10007411
 OpenBabel06101807152D

 58 63  0  0  0  0  0  0  0  0999 V2000
    6.0812   -0.3717    0.0000 O   0  0  0  0  0  0  0  0  0  0  0  0
    9.7484    0.3717    0.0000 O   0  0  0  0  0  0  0  0  0  0  0  0
    6.3919    2.1883    0.0000 O   0  0  0  0  0  0  0  0  0  0  0  0
    9.4378   -2.1883    0.0000 O   0  0  0  0  0  0  0  0  0  0  0  0
   10.6648    2.1651    0.0000 O   0  0  0  0  0  0  0  0  0  0  0  0
    5.1648   -2.1651    0.0000 O   0  0  0  0  0  0  0  0  0  0  0  0
    2.5369   -0.5670    0.0000 O   0  0  0  0  0  0  0  0  0  0  0  0
   13.2927    0.5670    0.0000 O   0  0  0  0  0  0  0  0  0  0  0  0
    9.6648    3.8971    0.0000 O   0  0  0  0  0  0  0  0  0  0  0  0
    6.1648   -3.8971    0.0000 O   0  0  0  0  0  0  0  0  0  0  0  0
    7.6648    0.4330    0.0000 C   0  0  0  0  0  0  0  0  0  0  0  0
    8.1648   -0.4330    0.0000 C   0  0  0  0  0  0  0  0  0  0  0  0
    6.6648    0.4330    0.0000 C   0  0  0  0  0  0  0  0  0  0  0  0
    9.1648   -0.4330    0.0000 C   0  0  0  0  0  0  0  0  0  0  0  0
    8.1648    1.2990    0.0000 C   0  0  0  0  0  0  0  0  0  0  0  0
    7.6648   -1.2990    0.0000 C   0  0  0  0  0  0  0  0  0  0  0  0
    5.1350    0.9330    0.0000 C   0  0  0  0  0  0  0  0  0  0  0  0
   10.6947   -0.9330    0.0000 C   0  0  0  0  0  0  0  0  0  0  0  0
    9.7484   -1.2377    0.0000 C   0  0  0  0  0  0  0  0  0  0  0  0
    6.0812    1.2377    0.0000 C   0  0  0  0  0  0  0  0  0  0  0  0
    5.1350   -0.0670    0.0000 C   0  0  0  0  0  0  0  0  0  0  0  0
   10.6947    0.0670    0.0000 C   0  0  0  0  0  0  0  0  0  0  0  0
    9.1648    1.2990    0.0000 C   0  0  0  0  0  0  0  0  0  0  0  0
    6.6648   -1.2990    0.0000 C   0  0  0  0  0  0  0  0  0  0  0  0
    7.6648    2.1651    0.0000 C   0  0  0  0  0  0  0  0  0  0  0  0
    8.1648   -2.1651    0.0000 C   0  0  0  0  0  0  0  0  0  0  0  0
    4.2690    1.4330    0.0000 C   0  0  0  0  0  0  0  0  0  0  0  0
   11.5607   -1.4330    0.0000 C   0  0  0  0  0  0  0  0  0  0  0  0
    4.2690   -0.5670    0.0000 C   0  0  0  0  0  0  0  0  0  0  0  0
   11.5607    0.5670    0.0000 C   0  0  0  0  0  0  0  0  0  0  0  0
    9.6648    2.1651    0.0000 C   0  0  0  0  0  0  0  0  0  0  0  0
    6.1648   -2.1651    0.0000 C   0  0  0  0  0  0  0  0  0  0  0  0
    8.1648    3.0311    0.0000 C   0  0  0  0  0  0  0  0  0  0  0  0
    7.6648   -3.0311    0.0000 C   0  0  0  0  0  0  0  0  0  0  0  0
    3.4030   -0.0670    0.0000 C   0  0  0  0  0  0  0  0  0  0  0  0
   12.4267    0.0670    0.0000 C   0  0  0  0  0  0  0  0  0  0  0  0
    3.4030    0.9330    0.0000 C   0  0  0  0  0  0  0  0  0  0  0  0
   12.4267   -0.9330    0.0000 C   0  0  0  0  0  0  0  0  0  0  0  0
    9.1648    3.0311    0.0000 C   0  0  0  0  0  0  0  0  0  0  0  0
    6.6648   -3.0311    0.0000 C   0  0  0  0  0  0  0  0  0  0  0  0
    9.4748    0.7621    0.0000 H   0  0  0  0  0  0  0  0  0  0  0  0
    6.3548   -0.7621    0.0000 H   0  0  0  0  0  0  0  0  0  0  0  0
    7.0448    2.1651    0.0000 H   0  0  0  0  0  0  0  0  0  0  0  0
    8.7848   -2.1651    0.0000 H   0  0  0  0  0  0  0  0  0  0  0  0
    4.2690    2.0530    0.0000 H   0  0  0  0  0  0  0  0  0  0  0  0
   11.5607   -2.0530    0.0000 H   0  0  0  0  0  0  0  0  0  0  0  0
    4.2690   -1.1870    0.0000 H   0  0  0  0  0  0  0  0  0  0  0  0
   11.5607    1.1870    0.0000 H   0  0  0  0  0  0  0  0  0  0  0  0
    7.8548    3.5680    0.0000 H   0  0  0  0  0  0  0  0  0  0  0  0
    7.9748   -3.5680    0.0000 H   0  0  0  0  0  0  0  0  0  0  0  0
    2.8660    1.2430    0.0000 H   0  0  0  0  0  0  0  0  0  0  0  0
   12.9637   -1.2430    0.0000 H   0  0  0  0  0  0  0  0  0  0  0  0
   10.9748    2.7020    0.0000 H   0  0  0  0  0  0  0  0  0  0  0  0
    4.8548   -2.7020    0.0000 H   0  0  0  0  0  0  0  0  0  0  0  0
    2.0000   -0.2570    0.0000 H   0  0  0  0  0  0  0  0  0  0  0  0
   13.8297    0.2570    0.0000 H   0  0  0  0  0  0  0  0  0  0  0  0
    6.4748   -4.4340    0.0000 H   0  0  0  0  0  0  0  0  0  0  0  0
    9.3548    4.4340    0.0000 H   0  0  0  0  0  0  0  0  0  0  0  0
  1 13  1  0  0  0  0
  1 21  1  0  0  0  0
  2 14  1  0  0  0  0
  2 22  1  0  0  0  0
  3 20  2  0  0  0  0
  4 19  2  0  0  0  0
  5 31  1  0  0  0  0
  5 53  1  0  0  0  0
  6 32  1  0  0  0  0
  6 54  1  0  0  0  0
  7 35  1  0  0  0  0
  7 55  1  0  0  0  0
  8 36  1  0  0  0  0
  8 56  1  0  0  0  0
  9 39  1  0  0  0  0
  9 58  1  0  0  0  0
 10 40  1  0  0  0  0
 10 57  1  0  0  0  0
 11 12  1  0  0  0  0
 11 13  2  0  0  0  0
 11 15  1  0  0  0  0
 12 14  2  0  0  0  0
 12 16  1  0  0  0  0
 13 20  1  0  0  0  0
 14 19  1  0  0  0  0
 15 23  2  0  0  0  0
 15 25  1  0  0  0  0
 16 24  2  0  0  0  0
 16 26  1  0  0  0  0
 17 20  1  0  0  0  0
 17 21  2  0  0  0  0
 17 27  1  0  0  0  0
 18 19  1  0  0  0  0
 18 22  2  0  0  0  0
 18 28  1  0  0  0  0
 21 29  1  0  0  0  0
 22 30  1  0  0  0  0
 23 31  1  0  0  0  0
 23 41  1  0  0  0  0
 24 32  1  0  0  0  0
 24 42  1  0  0  0  0
 25 33  2  0  0  0  0
 25 43  1  0  0  0  0
 26 34  2  0  0  0  0
 26 44  1  0  0  0  0
 27 37  2  0  0  0  0
 27 45  1  0  0  0  0
 28 38  2  0  0  0  0
 28 46  1  0  0  0  0
 29 35  2  0  0  0  0
 29 47  1  0  0  0  0
 30 36  2  0  0  0  0
 30 48  1  0  0  0  0
 31 39  2  0  0  0  0
 32 40  2  0  0  0  0
 33 39  1  0  0  0  0
 33 49  1  0  0  0  0
 34 40  1  0  0  0  0
 34 50  1  0  0  0  0
 35 37  1  0  0  0  0
 36 38  1  0  0  0  0
 37 51  1  0  0  0  0
 38 52  1  0  0  0  0
M  END
>  <PUBCHEM_COMPOUND_CID>
10007411

>  <PUBCHEM_COMPOUND_CANONICALIZED>
1

>  <PUBCHEM_CACTVS_COMPLEXITY>
998

>  <PUBCHEM_CACTVS_HBOND_ACCEPTOR>
10

>  <PUBCHEM_CACTVS_HBOND_DONOR>
6

>  <PUBCHEM_CACTVS_ROTATABLE_BOND>
3

>  <PUBCHEM_CACTVS_SUBSKEYS>
AAADceB4PAAAAAAAAAAAAAAAAAAAASJAAAAwYMGAAAAAAEgBVAAAGgAACAAADASAmAAwBoAABgCIAqBSAAICCAAkIAAIiAFGiMgNJzaGNR6CeWGl4BUJuYeI7PzOIAABCAAIQABAAAIQABCAAAAAAAAAAA==

>  <PUBCHEM_IUPAC_OPENEYE_NAME>
(2Z)-2-[(2Z)-1,2-bis(3,4-dihydroxyphenyl)-2-(6-hydroxy-3-oxo-benzofuran-2-ylidene)ethylidene]-6-hydroxy-benzofuran-3-one

>  <PUBCHEM_IUPAC_CAS_NAME>
(2Z)-2-[(2Z)-1,2-bis(3,4-dihydroxyphenyl)-2-(6-hydroxy-3-oxo-2-benzofuranylidene)ethylidene]-6-hydroxy-3-benzofuranone

>  <PUBCHEM_IUPAC_NAME>
(2Z)-2-[(2Z)-1,2-bis(3,4-dihydroxyphenyl)-2-(6-hydroxy-3-oxo-1-benzofuran-2-ylidene)ethylidene]-6-hydroxy-1-benzofuran-3-one

>  <PUBCHEM_IUPAC_SYSTEMATIC_NAME>
(2Z)-2-[(2Z)-1,2-bis[3,4-bis(oxidanyl)phenyl]-2-(6-oxidanyl-3-oxidanylidene-1-benzofuran-2-ylidene)ethylidene]-6-oxidanyl-1-benzofuran-3-one

>  <PUBCHEM_IUPAC_TRADITIONAL_NAME>
(2Z)-2-[(2Z)-1,2-bis(3,4-dihydroxyphenyl)-2-(6-hydroxy-3-keto-coumaran-2-ylidene)ethylidene]-6-hydroxy-coumaran-3-one

>  <PUBCHEM_IUPAC_INCHI>
InChI=1S/C30H18O10/c31-15-3-5-17-23(11-15)39-29(27(17)37)25(13-1-7-19(33)21(35)9-13)26(14-2-8-20(34)22(36)10-14)30-28(38)18-6-4-16(32)12-24(18)40-30/h1-12,31-36H/b29-25-,30-26-

>  <PUBCHEM_IUPAC_INCHIKEY>
MZVYXDUSVXNKLC-IDDWGTJGSA-N

>  <PUBCHEM_XLOGP3_AA>
5.3

>  <PUBCHEM_EXACT_MASS>
538.09

>  <PUBCHEM_MOLECULAR_FORMULA>
C30H18O10

>  <PUBCHEM_MOLECULAR_WEIGHT>
538.464

>  <PUBCHEM_OPENEYE_CAN_SMILES>
C1=CC(=C(C=C1C(=C2C(=O)C3=C(O2)C=C(C=C3)O)C(=C4C(=O)C5=C(O4)C=C(C=C5)O)C6=CC(=C(C=C6)O)O)O)O

>  <PUBCHEM_OPENEYE_ISO_SMILES>
C1=CC(=C(C=C1/C(=C\2/OC3=C(C2=O)C=CC(=C3)O)/C(=C/4\OC5=C(C4=O)C=CC(=C5)O)/C6=CC(=C(C=C6)O)O)O)O

>  <PUBCHEM_CACTVS_TPSA>
174

>  <PUBCHEM_MONOISOTOPIC_WEIGHT>
538.09

>  <PUBCHEM_TOTAL_CHARGE>
0

>  <PUBCHEM_HEAVY_ATOM_COUNT>
40

>  <PUBCHEM_ATOM_DEF_STEREO_COUNT>
0

>  <PUBCHEM_ATOM_UDEF_STEREO_COUNT>
0

>  <PUBCHEM_BOND_DEF_STEREO_COUNT>
2

>  <PUBCHEM_BOND_UDEF_STEREO_COUNT>
0

>  <PUBCHEM_ISOTOPIC_ATOM_COUNT>
0

>  <PUBCHEM_COMPONENT_COUNT>
1

>  <PUBCHEM_CACTVS_TAUTO_COUNT>
992

>  <PUBCHEM_COORDINATE_TYPE>
1
5
255

>  <PUBCHEM_BONDANNOTATIONS>
15  23  8
15  25  8
16  24  8
16  26  8
17  21  8
17  27  8
18  22  8
18  28  8
21  29  8
22  30  8
23  31  8
24  32  8
25  33  8
26  34  8
27  37  8
28  38  8
29  35  8
30  36  8
31  39  8
32  40  8
33  39  8
34  40  8
35  37  8
36  38  8

$$$$
