100089
 OpenBabel06101807152D

 35 37  0  0  1  0  0  0  0  0999 V2000
    4.2690   -1.4537    0.0000 O   0  0  0  0  0  0  0  0  0  0  0  0
    6.0290    0.5809    0.0000 O   0  0  0  0  0  0  0  0  0  0  0  0
    6.9350   -0.9746    0.0000 O   0  0  0  0  0  0  0  0  0  0  0  0
    4.2690    1.5463    0.0000 O   0  0  0  0  0  0  0  0  0  0  0  0
    2.5369    0.5463    0.0000 O   0  0  0  0  0  0  0  0  0  0  0  0
    2.5369   -1.4537    0.0000 O   0  0  0  0  0  0  0  0  0  0  0  0
    5.1350    0.0463    0.0000 C   0  0  3  0  0  0  0  0  0  0  0  0
    5.1350   -0.9537    0.0000 C   0  0  3  0  0  0  0  0  0  0  0  0
    4.2690    0.5463    0.0000 C   0  0  3  0  0  0  0  0  0  0  0  0
    3.4030    0.0463    0.0000 C   0  0  3  0  0  0  0  0  0  0  0  0
    3.4030   -0.9537    0.0000 C   0  0  3  0  0  0  0  0  0  0  0  0
    6.0290   -1.4884    0.0000 C   0  0  0  0  0  0  0  0  0  0  0  0
    6.9350    0.0671    0.0000 C   0  0  3  0  0  0  0  0  0  0  0  0
    7.7991    0.5704    0.0000 C   0  0  0  0  0  0  0  0  0  0  0  0
    8.6671    0.0738    0.0000 C   0  0  0  0  0  0  0  0  0  0  0  0
    7.7953    1.5704    0.0000 C   0  0  0  0  0  0  0  0  0  0  0  0
    9.5312    0.5771    0.0000 C   0  0  0  0  0  0  0  0  0  0  0  0
    8.6594    2.0737    0.0000 C   0  0  0  0  0  0  0  0  0  0  0  0
    9.5273    1.5771    0.0000 C   0  0  0  0  0  0  0  0  0  0  0  0
    5.1285    0.8962    0.0000 H   0  0  0  0  0  0  0  0  0  0  0  0
    5.1285   -1.8037    0.0000 H   0  0  0  0  0  0  0  0  0  0  0  0
    3.5329    0.9713    0.0000 H   0  0  0  0  0  0  0  0  0  0  0  0
    4.1391   -0.3787    0.0000 H   0  0  0  0  0  0  0  0  0  0  0  0
    3.4030   -1.8037    0.0000 H   0  0  0  0  0  0  0  0  0  0  0  0
    5.6244   -1.9582    0.0000 H   0  0  0  0  0  0  0  0  0  0  0  0
    6.4226   -1.9674    0.0000 H   0  0  0  0  0  0  0  0  0  0  0  0
    7.6720   -0.3565    0.0000 H   0  0  0  0  0  0  0  0  0  0  0  0
    3.7320    1.8563    0.0000 H   0  0  0  0  0  0  0  0  0  0  0  0
    2.0000    0.2363    0.0000 H   0  0  0  0  0  0  0  0  0  0  0  0
    2.5369   -2.0737    0.0000 H   0  0  0  0  0  0  0  0  0  0  0  0
    8.6694   -0.5462    0.0000 H   0  0  0  0  0  0  0  0  0  0  0  0
    7.2571    1.8783    0.0000 H   0  0  0  0  0  0  0  0  0  0  0  0
   10.0693    0.2692    0.0000 H   0  0  0  0  0  0  0  0  0  0  0  0
    8.6570    2.6937    0.0000 H   0  0  0  0  0  0  0  0  0  0  0  0
   10.0630    1.8892    0.0000 H   0  0  0  0  0  0  0  0  0  0  0  0
  1  8  1  0  0  0  0
  1 11  1  0  0  0  0
  2  7  1  0  0  0  0
  2 13  1  0  0  0  0
  3 12  1  0  0  0  0
  3 13  1  0  0  0  0
  4  9  1  0  0  0  0
  4 28  1  0  0  0  0
  5 10  1  0  0  0  0
  5 29  1  0  0  0  0
  6 11  1  0  0  0  0
  6 30  1  0  0  0  0
  7  8  1  0  0  0  0
  7  9  1  0  0  0  0
  7 20  1  0  0  0  0
  8 12  1  0  0  0  0
  8 21  1  0  0  0  0
  9 10  1  0  0  0  0
  9 22  1  0  0  0  0
 10 11  1  0  0  0  0
 10 23  1  0  0  0  0
 11 24  1  0  0  0  0
 12 25  1  0  0  0  0
 12 26  1  0  0  0  0
 13 14  1  0  0  0  0
 13 27  1  0  0  0  0
 14 15  2  0  0  0  0
 14 16  1  0  0  0  0
 15 17  1  0  0  0  0
 15 31  1  0  0  0  0
 16 18  2  0  0  0  0
 16 32  1  0  0  0  0
 17 19  2  0  0  0  0
 17 33  1  0  0  0  0
 18 19  1  0  0  0  0
 18 34  1  0  0  0  0
 19 35  1  0  0  0  0
M  END
>  <PUBCHEM_COMPOUND_CID>
100089

>  <PUBCHEM_COMPOUND_CANONICALIZED>
1

>  <PUBCHEM_CACTVS_COMPLEXITY>
306

>  <PUBCHEM_CACTVS_HBOND_ACCEPTOR>
6

>  <PUBCHEM_CACTVS_HBOND_DONOR>
3

>  <PUBCHEM_CACTVS_ROTATABLE_BOND>
1

>  <PUBCHEM_CACTVS_SUBSKEYS>
AAADceBwOAAAAAAAAAAAAAAAAAAAAAAAAAA0SIAAAAAAAACRAAAAGgAACAAADBSwmAMwCIAABgCAAiBCAAACAAAgAAAIiAAACIgZNiKAMRiicAAlwAEPqAfA4CwOAAAAAAAAAAAAAAAAAAAAAAAAAAAAAA==

>  <PUBCHEM_IUPAC_OPENEYE_NAME>
2-phenyl-4,4a,6,7,8,8a-hexahydropyrano[3,2-d][1,3]dioxine-6,7,8-triol

>  <PUBCHEM_IUPAC_CAS_NAME>
2-phenyl-4,4a,6,7,8,8a-hexahydropyrano[3,2-d][1,3]dioxin-6,7,8-triol

>  <PUBCHEM_IUPAC_NAME>
2-phenyl-4,4a,6,7,8,8a-hexahydropyrano[3,2-d][1,3]dioxine-6,7,8-triol

>  <PUBCHEM_IUPAC_SYSTEMATIC_NAME>
2-phenyl-4,4a,6,7,8,8a-hexahydropyrano[3,2-d][1,3]dioxine-6,7,8-triol

>  <PUBCHEM_IUPAC_TRADITIONAL_NAME>
2-phenyl-4,4a,6,7,8,8a-hexahydropyrano[3,2-d][1,3]dioxin-6,7,8-triol

>  <PUBCHEM_IUPAC_INCHI>
InChI=1S/C13H16O6/c14-9-10(15)12(16)18-8-6-17-13(19-11(8)9)7-4-2-1-3-5-7/h1-5,8-16H,6H2

>  <PUBCHEM_IUPAC_INCHIKEY>
FOLRUCXBTYDAQK-UHFFFAOYSA-N

>  <PUBCHEM_XLOGP3_AA>
-0.7

>  <PUBCHEM_EXACT_MASS>
268.095

>  <PUBCHEM_MOLECULAR_FORMULA>
C13H16O6

>  <PUBCHEM_MOLECULAR_WEIGHT>
268.265

>  <PUBCHEM_OPENEYE_CAN_SMILES>
C1C2C(C(C(C(O2)O)O)O)OC(O1)C3=CC=CC=C3

>  <PUBCHEM_OPENEYE_ISO_SMILES>
C1C2C(C(C(C(O2)O)O)O)OC(O1)C3=CC=CC=C3

>  <PUBCHEM_CACTVS_TPSA>
88.4

>  <PUBCHEM_MONOISOTOPIC_WEIGHT>
268.095

>  <PUBCHEM_TOTAL_CHARGE>
0

>  <PUBCHEM_HEAVY_ATOM_COUNT>
19

>  <PUBCHEM_ATOM_DEF_STEREO_COUNT>
0

>  <PUBCHEM_ATOM_UDEF_STEREO_COUNT>
6

>  <PUBCHEM_BOND_DEF_STEREO_COUNT>
0

>  <PUBCHEM_BOND_UDEF_STEREO_COUNT>
0

>  <PUBCHEM_ISOTOPIC_ATOM_COUNT>
0

>  <PUBCHEM_COMPONENT_COUNT>
1

>  <PUBCHEM_CACTVS_TAUTO_COUNT>
1

>  <PUBCHEM_COORDINATE_TYPE>
1
5
255

>  <PUBCHEM_BONDANNOTATIONS>
10  23  3
11  24  3
13  27  3
14  15  8
14  16  8
15  17  8
16  18  8
17  19  8
18  19  8
7  20  3
8  21  3
9  22  3

$$$$
