10013857
 OpenBabel06101807152D

 28 28  0  0  1  0  0  0  0  0999 V2000
    5.3660   -2.2500    0.0000 O   0  0  0  0  0  0  0  0  0  0  0  0
    3.0000   -1.6159    0.0000 O   0  0  0  0  0  0  0  0  0  0  0  0
    7.0981   -2.2500    0.0000 O   0  0  0  0  0  0  0  0  0  0  0  0
    3.0000    0.1160    0.0000 O   0  0  0  0  0  0  0  0  0  0  0  0
    6.2320    2.2500    0.0000 O   0  0  0  0  0  0  0  0  0  0  0  0
    5.3660   -0.2500    0.0000 C   0  0  3  0  0  0  0  0  0  0  0  0
    6.2320   -0.7500    0.0000 C   0  0  0  0  0  0  0  0  0  0  0  0
    4.5000   -0.7500    0.0000 C   0  0  0  0  0  0  0  0  0  0  0  0
    5.3660    0.7500    0.0000 C   0  0  0  0  0  0  0  0  0  0  0  0
    6.2320   -1.7500    0.0000 C   0  0  0  0  0  0  0  0  0  0  0  0
    4.5000   -1.7500    0.0000 C   0  0  0  0  0  0  0  0  0  0  0  0
    4.5000    1.2500    0.0000 C   0  0  0  0  0  0  0  0  0  0  0  0
    3.5000   -0.7500    0.0000 C   0  0  0  0  0  0  0  0  0  0  0  0
    6.2320    1.2500    0.0000 C   0  0  0  0  0  0  0  0  0  0  0  0
    4.5000    2.2500    0.0000 C   0  0  0  0  0  0  0  0  0  0  0  0
    2.0000   -1.6160    0.0000 C   0  0  0  0  0  0  0  0  0  0  0  0
    6.1022    0.1750    0.0000 H   0  0  0  0  0  0  0  0  0  0  0  0
    6.8426   -0.8577    0.0000 H   0  0  0  0  0  0  0  0  0  0  0  0
    6.4441   -0.1674    0.0000 H   0  0  0  0  0  0  0  0  0  0  0  0
    3.9631   -2.0600    0.0000 H   0  0  0  0  0  0  0  0  0  0  0  0
    3.8800    1.2500    0.0000 H   0  0  0  0  0  0  0  0  0  0  0  0
    6.7690    0.9400    0.0000 H   0  0  0  0  0  0  0  0  0  0  0  0
    5.1200    2.2500    0.0000 H   0  0  0  0  0  0  0  0  0  0  0  0
    4.5000    2.8700    0.0000 H   0  0  0  0  0  0  0  0  0  0  0  0
    3.8800    2.2500    0.0000 H   0  0  0  0  0  0  0  0  0  0  0  0
    2.0000   -0.9960    0.0000 H   0  0  0  0  0  0  0  0  0  0  0  0
    1.3800   -1.6161    0.0000 H   0  0  0  0  0  0  0  0  0  0  0  0
    2.0000   -2.2360    0.0000 H   0  0  0  0  0  0  0  0  0  0  0  0
  1 10  1  0  0  0  0
  1 11  1  0  0  0  0
  2 13  1  0  0  0  0
  2 16  1  0  0  0  0
  3 10  2  0  0  0  0
  4 13  2  0  0  0  0
  5 14  2  0  0  0  0
  6  7  1  0  0  0  0
  6  8  1  0  0  0  0
  6  9  1  0  0  0  0
  6 17  1  0  0  0  0
  7 10  1  0  0  0  0
  7 18  1  0  0  0  0
  7 19  1  0  0  0  0
  8 11  2  0  0  0  0
  8 13  1  0  0  0  0
  9 12  2  0  0  0  0
  9 14  1  0  0  0  0
 11 20  1  0  0  0  0
 12 15  1  0  0  0  0
 12 21  1  0  0  0  0
 14 22  1  0  0  0  0
 15 23  1  0  0  0  0
 15 24  1  0  0  0  0
 15 25  1  0  0  0  0
 16 26  1  0  0  0  0
 16 27  1  0  0  0  0
 16 28  1  0  0  0  0
M  END
>  <PUBCHEM_COMPOUND_CID>
10013857

>  <PUBCHEM_COMPOUND_CANONICALIZED>
1

>  <PUBCHEM_CACTVS_COMPLEXITY>
378

>  <PUBCHEM_CACTVS_HBOND_ACCEPTOR>
5

>  <PUBCHEM_CACTVS_HBOND_DONOR>
0

>  <PUBCHEM_CACTVS_ROTATABLE_BOND>
4

>  <PUBCHEM_CACTVS_SUBSKEYS>
AAADccBwOAAAAAAAAAAAAAAAAAAAAAAAAAAgAAAAAAAAAAAAAAAAGgAAAAAADQCggAICCAAABACIAijSiAAACAAgIAAACAEAAEgABBIAIQAAAAAEgAAIIYKIJggKAAAAAAAAAAAAAAAAAAAAAAAAAAAAAA==

>  <PUBCHEM_IUPAC_OPENEYE_NAME>
methyl 4-[(Z)-1-formylprop-1-enyl]-2-oxo-3,4-dihydropyran-5-carboxylate

>  <PUBCHEM_IUPAC_CAS_NAME>
2-oxo-4-[(Z)-1-oxobut-2-en-2-yl]-3,4-dihydropyran-5-carboxylic acid methyl ester

>  <PUBCHEM_IUPAC_NAME>
methyl 2-oxo-4-[(Z)-1-oxobut-2-en-2-yl]-3,4-dihydropyran-5-carboxylate

>  <PUBCHEM_IUPAC_SYSTEMATIC_NAME>
methyl 2-oxidanylidene-4-[(Z)-1-oxidanylidenebut-2-en-2-yl]-3,4-dihydropyran-5-carboxylate

>  <PUBCHEM_IUPAC_TRADITIONAL_NAME>
4-[(Z)-1-formylprop-1-enyl]-2-keto-3,4-dihydropyran-5-carboxylic acid methyl ester

>  <PUBCHEM_IUPAC_INCHI>
InChI=1S/C11H12O5/c1-3-7(5-12)8-4-10(13)16-6-9(8)11(14)15-2/h3,5-6,8H,4H2,1-2H3/b7-3+

>  <PUBCHEM_IUPAC_INCHIKEY>
TXTINTVPMBCGKO-XVNBXDOJSA-N

>  <PUBCHEM_XLOGP3_AA>
0.2

>  <PUBCHEM_EXACT_MASS>
224.068

>  <PUBCHEM_MOLECULAR_FORMULA>
C11H12O5

>  <PUBCHEM_MOLECULAR_WEIGHT>
224.212

>  <PUBCHEM_OPENEYE_CAN_SMILES>
CC=C(C=O)C1CC(=O)OC=C1C(=O)OC

>  <PUBCHEM_OPENEYE_ISO_SMILES>
C/C=C(\C=O)/C1CC(=O)OC=C1C(=O)OC

>  <PUBCHEM_CACTVS_TPSA>
69.7

>  <PUBCHEM_MONOISOTOPIC_WEIGHT>
224.068

>  <PUBCHEM_TOTAL_CHARGE>
0

>  <PUBCHEM_HEAVY_ATOM_COUNT>
16

>  <PUBCHEM_ATOM_DEF_STEREO_COUNT>
0

>  <PUBCHEM_ATOM_UDEF_STEREO_COUNT>
1

>  <PUBCHEM_BOND_DEF_STEREO_COUNT>
1

>  <PUBCHEM_BOND_UDEF_STEREO_COUNT>
0

>  <PUBCHEM_ISOTOPIC_ATOM_COUNT>
0

>  <PUBCHEM_COMPONENT_COUNT>
1

>  <PUBCHEM_CACTVS_TAUTO_COUNT>
2

>  <PUBCHEM_COORDINATE_TYPE>
1
5
255

>  <PUBCHEM_BONDANNOTATIONS>
6  17  3

$$$$
