10045178
 OpenBabel06101807152D

 45 46  0  0  0  0  0  0  0  0999 V2000
    6.8671    0.1550    0.0000 O   0  0  0  0  0  0  0  0  0  0  0  0
   10.3312    0.1550    0.0000 O   0  0  0  0  0  0  0  0  0  0  0  0
    2.5369   -0.3450    0.0000 O   0  0  0  0  0  0  0  0  0  0  0  0
    4.2690    2.6550    0.0000 O   0  0  0  0  0  0  0  0  0  0  0  0
    8.5991   -2.8450    0.0000 O   0  0  0  0  0  0  0  0  0  0  0  0
    9.4651    2.6550    0.0000 O   0  0  0  0  0  0  0  0  0  0  0  0
    2.5369    1.6550    0.0000 O   0  0  0  0  0  0  0  0  0  0  0  0
    6.0010   -1.3450    0.0000 O   0  0  0  0  0  0  0  0  0  0  0  0
   10.3312    1.1550    0.0000 O   0  0  0  0  0  0  0  0  0  0  0  0
    8.5991    0.1550    0.0000 C   0  0  0  0  0  0  0  0  0  0  0  0
    7.7331   -0.3450    0.0000 C   0  0  0  0  0  0  0  0  0  0  0  0
    8.5991    1.1550    0.0000 C   0  0  0  0  0  0  0  0  0  0  0  0
    9.4651   -0.3450    0.0000 C   0  0  0  0  0  0  0  0  0  0  0  0
    7.7331   -1.3450    0.0000 C   0  0  0  0  0  0  0  0  0  0  0  0
    5.1350    0.1550    0.0000 C   0  0  0  0  0  0  0  0  0  0  0  0
    9.4651   -1.3450    0.0000 C   0  0  0  0  0  0  0  0  0  0  0  0
    8.5991   -1.8450    0.0000 C   0  0  0  0  0  0  0  0  0  0  0  0
    5.1350    1.1550    0.0000 C   0  0  0  0  0  0  0  0  0  0  0  0
    4.2690   -0.3450    0.0000 C   0  0  0  0  0  0  0  0  0  0  0  0
    6.0010   -0.3450    0.0000 C   0  0  0  0  0  0  0  0  0  0  0  0
    3.4030    0.1550    0.0000 C   0  0  0  0  0  0  0  0  0  0  0  0
    4.2690    1.6550    0.0000 C   0  0  0  0  0  0  0  0  0  0  0  0
    3.4030    1.1550    0.0000 C   0  0  0  0  0  0  0  0  0  0  0  0
    9.4651    1.6550    0.0000 C   0  0  0  0  0  0  0  0  0  0  0  0
    2.5369   -1.3450    0.0000 C   0  0  0  0  0  0  0  0  0  0  0  0
    5.1350    3.1550    0.0000 C   0  0  0  0  0  0  0  0  0  0  0  0
   10.3312    3.1550    0.0000 C   0  0  0  0  0  0  0  0  0  0  0  0
    8.3871    1.7376    0.0000 H   0  0  0  0  0  0  0  0  0  0  0  0
    7.9885    1.0473    0.0000 H   0  0  0  0  0  0  0  0  0  0  0  0
    7.1962   -1.6550    0.0000 H   0  0  0  0  0  0  0  0  0  0  0  0
   10.0021   -1.6550    0.0000 H   0  0  0  0  0  0  0  0  0  0  0  0
    5.6720    1.4650    0.0000 H   0  0  0  0  0  0  0  0  0  0  0  0
    4.2690   -0.9650    0.0000 H   0  0  0  0  0  0  0  0  0  0  0  0
   10.8681   -0.1550    0.0000 H   0  0  0  0  0  0  0  0  0  0  0  0
    8.0622   -3.1550    0.0000 H   0  0  0  0  0  0  0  0  0  0  0  0
    2.0000    1.3450    0.0000 H   0  0  0  0  0  0  0  0  0  0  0  0
    1.9169   -1.3450    0.0000 H   0  0  0  0  0  0  0  0  0  0  0  0
    2.5369   -1.9650    0.0000 H   0  0  0  0  0  0  0  0  0  0  0  0
    3.1569   -1.3450    0.0000 H   0  0  0  0  0  0  0  0  0  0  0  0
    5.4450    2.6181    0.0000 H   0  0  0  0  0  0  0  0  0  0  0  0
    5.6720    3.4650    0.0000 H   0  0  0  0  0  0  0  0  0  0  0  0
    4.8250    3.6919    0.0000 H   0  0  0  0  0  0  0  0  0  0  0  0
   10.6412    2.6181    0.0000 H   0  0  0  0  0  0  0  0  0  0  0  0
   10.8681    3.4650    0.0000 H   0  0  0  0  0  0  0  0  0  0  0  0
   10.0212    3.6919    0.0000 H   0  0  0  0  0  0  0  0  0  0  0  0
  1 11  1  0  0  0  0
  1 20  1  0  0  0  0
  2 13  1  0  0  0  0
  2 34  1  0  0  0  0
  3 21  1  0  0  0  0
  3 25  1  0  0  0  0
  4 22  1  0  0  0  0
  4 26  1  0  0  0  0
  5 17  1  0  0  0  0
  5 35  1  0  0  0  0
  6 24  1  0  0  0  0
  6 27  1  0  0  0  0
  7 23  1  0  0  0  0
  7 36  1  0  0  0  0
  8 20  2  0  0  0  0
  9 24  2  0  0  0  0
 10 11  1  0  0  0  0
 10 12  1  0  0  0  0
 10 13  2  0  0  0  0
 11 14  2  0  0  0  0
 12 24  1  0  0  0  0
 12 28  1  0  0  0  0
 12 29  1  0  0  0  0
 13 16  1  0  0  0  0
 14 17  1  0  0  0  0
 14 30  1  0  0  0  0
 15 18  2  0  0  0  0
 15 19  1  0  0  0  0
 15 20  1  0  0  0  0
 16 17  2  0  0  0  0
 16 31  1  0  0  0  0
 18 22  1  0  0  0  0
 18 32  1  0  0  0  0
 19 21  2  0  0  0  0
 19 33  1  0  0  0  0
 21 23  1  0  0  0  0
 22 23  2  0  0  0  0
 25 37  1  0  0  0  0
 25 38  1  0  0  0  0
 25 39  1  0  0  0  0
 26 40  1  0  0  0  0
 26 41  1  0  0  0  0
 26 42  1  0  0  0  0
 27 43  1  0  0  0  0
 27 44  1  0  0  0  0
 27 45  1  0  0  0  0
M  END
>  <PUBCHEM_COMPOUND_CID>
10045178

>  <PUBCHEM_COMPOUND_CANONICALIZED>
1

>  <PUBCHEM_CACTVS_COMPLEXITY>
497

>  <PUBCHEM_CACTVS_HBOND_ACCEPTOR>
9

>  <PUBCHEM_CACTVS_HBOND_DONOR>
3

>  <PUBCHEM_CACTVS_ROTATABLE_BOND>
8

>  <PUBCHEM_CACTVS_SUBSKEYS>
AAADceB4PAAAAAAAAAAAAAAAAAAAAAAAAAAwYAAAAAAAAAABQAAAGgAACAAADASAmAIyDoAABgCIAiDSCAACCAAkIAAAiAEGiMgNJzKGNRqCeyOlwBULuYfK7LzOIAABCAAIQABAAAIQABCAAAAAAAAAAA==

>  <PUBCHEM_IUPAC_OPENEYE_NAME>
[3,5-dihydroxy-2-(2-methoxy-2-oxo-ethyl)phenyl] 4-hydroxy-3,5-dimethoxy-benzoate

>  <PUBCHEM_IUPAC_CAS_NAME>
4-hydroxy-3,5-dimethoxybenzoic acid [3,5-dihydroxy-2-(2-methoxy-2-oxoethyl)phenyl] ester

>  <PUBCHEM_IUPAC_NAME>
[3,5-dihydroxy-2-(2-methoxy-2-oxoethyl)phenyl] 4-hydroxy-3,5-dimethoxybenzoate

>  <PUBCHEM_IUPAC_SYSTEMATIC_NAME>
[2-(2-methoxy-2-oxidanylidene-ethyl)-3,5-bis(oxidanyl)phenyl] 3,5-dimethoxy-4-oxidanyl-benzoate

>  <PUBCHEM_IUPAC_TRADITIONAL_NAME>
4-hydroxy-3,5-dimethoxy-benzoic acid [3,5-dihydroxy-2-(2-keto-2-methoxy-ethyl)phenyl] ester

>  <PUBCHEM_IUPAC_INCHI>
InChI=1S/C18H18O9/c1-24-14-4-9(5-15(25-2)17(14)22)18(23)27-13-7-10(19)6-12(20)11(13)8-16(21)26-3/h4-7,19-20,22H,8H2,1-3H3

>  <PUBCHEM_IUPAC_INCHIKEY>
HTYXVCATPMWMSN-UHFFFAOYSA-N

>  <PUBCHEM_XLOGP3_AA>
2

>  <PUBCHEM_EXACT_MASS>
378.095

>  <PUBCHEM_MOLECULAR_FORMULA>
C18H18O9

>  <PUBCHEM_MOLECULAR_WEIGHT>
378.333

>  <PUBCHEM_OPENEYE_CAN_SMILES>
COC1=CC(=CC(=C1O)OC)C(=O)OC2=CC(=CC(=C2CC(=O)OC)O)O

>  <PUBCHEM_OPENEYE_ISO_SMILES>
COC1=CC(=CC(=C1O)OC)C(=O)OC2=CC(=CC(=C2CC(=O)OC)O)O

>  <PUBCHEM_CACTVS_TPSA>
132

>  <PUBCHEM_MONOISOTOPIC_WEIGHT>
378.095

>  <PUBCHEM_TOTAL_CHARGE>
0

>  <PUBCHEM_HEAVY_ATOM_COUNT>
27

>  <PUBCHEM_ATOM_DEF_STEREO_COUNT>
0

>  <PUBCHEM_ATOM_UDEF_STEREO_COUNT>
0

>  <PUBCHEM_BOND_DEF_STEREO_COUNT>
0

>  <PUBCHEM_BOND_UDEF_STEREO_COUNT>
0

>  <PUBCHEM_ISOTOPIC_ATOM_COUNT>
0

>  <PUBCHEM_COMPONENT_COUNT>
1

>  <PUBCHEM_CACTVS_TAUTO_COUNT>
36

>  <PUBCHEM_COORDINATE_TYPE>
1
5
255

>  <PUBCHEM_BONDANNOTATIONS>
10  11  8
10  13  8
11  14  8
13  16  8
14  17  8
15  18  8
15  19  8
16  17  8
18  22  8
19  21  8
21  23  8
22  23  8

$$$$
