10070028
 OpenBabel06101807152D

 58 59  0  0  0  0  0  0  0  0999 V2000
    5.4641    1.1900    0.0000 O   0  0  0  0  0  0  0  0  0  0  0  0
    7.1962   -1.8100    0.0000 O   0  0  0  0  0  0  0  0  0  0  0  0
    8.9282    1.1900    0.0000 O   0  0  0  0  0  0  0  0  0  0  0  0
    6.3301    2.6900    0.0000 O   0  0  0  0  0  0  0  0  0  0  0  0
   11.5263    5.6900    0.0000 O   0  0  0  0  0  0  0  0  0  0  0  0
    4.5981   -3.3100    0.0000 C   0  0  0  0  0  0  0  0  0  0  0  0
    5.4641   -0.8100    0.0000 C   0  0  0  0  0  0  0  0  0  0  0  0
    4.5981   -2.3100    0.0000 C   0  0  0  0  0  0  0  0  0  0  0  0
    6.3301   -0.3100    0.0000 C   0  0  0  0  0  0  0  0  0  0  0  0
    3.7320   -3.8100    0.0000 C   0  0  0  0  0  0  0  0  0  0  0  0
    5.4641   -1.8100    0.0000 C   0  0  0  0  0  0  0  0  0  0  0  0
    6.3301    0.6900    0.0000 C   0  0  0  0  0  0  0  0  0  0  0  0
    7.1962   -0.8100    0.0000 C   0  0  0  0  0  0  0  0  0  0  0  0
    7.1962    1.1900    0.0000 C   0  0  0  0  0  0  0  0  0  0  0  0
    3.7320   -1.8100    0.0000 C   0  0  0  0  0  0  0  0  0  0  0  0
    3.7320   -4.8100    0.0000 C   0  0  0  0  0  0  0  0  0  0  0  0
    8.0622    0.6900    0.0000 C   0  0  0  0  0  0  0  0  0  0  0  0
    8.0622   -0.3100    0.0000 C   0  0  0  0  0  0  0  0  0  0  0  0
    2.8660   -5.3100    0.0000 C   0  0  0  0  0  0  0  0  0  0  0  0
    7.1962    2.1900    0.0000 C   0  0  0  0  0  0  0  0  0  0  0  0
    2.8660   -6.3100    0.0000 C   0  0  0  0  0  0  0  0  0  0  0  0
    2.0000   -4.8100    0.0000 C   0  0  0  0  0  0  0  0  0  0  0  0
    8.0622    2.6900    0.0000 C   0  0  0  0  0  0  0  0  0  0  0  0
    8.0622    3.6900    0.0000 C   0  0  0  0  0  0  0  0  0  0  0  0
    8.9282    4.1900    0.0000 C   0  0  0  0  0  0  0  0  0  0  0  0
    9.7942    3.6900    0.0000 C   0  0  0  0  0  0  0  0  0  0  0  0
    8.9282    5.1900    0.0000 C   0  0  0  0  0  0  0  0  0  0  0  0
   10.6603    4.1900    0.0000 C   0  0  0  0  0  0  0  0  0  0  0  0
    9.7942    5.6900    0.0000 C   0  0  0  0  0  0  0  0  0  0  0  0
   10.6603    5.1900    0.0000 C   0  0  0  0  0  0  0  0  0  0  0  0
    4.8101   -3.8926    0.0000 H   0  0  0  0  0  0  0  0  0  0  0  0
    5.2087   -3.2023    0.0000 H   0  0  0  0  0  0  0  0  0  0  0  0
    5.2520   -0.2274    0.0000 H   0  0  0  0  0  0  0  0  0  0  0  0
    4.8535   -0.9177    0.0000 H   0  0  0  0  0  0  0  0  0  0  0  0
    3.5200   -3.2274    0.0000 H   0  0  0  0  0  0  0  0  0  0  0  0
    3.1215   -3.9177    0.0000 H   0  0  0  0  0  0  0  0  0  0  0  0
    6.0010   -2.1200    0.0000 H   0  0  0  0  0  0  0  0  0  0  0  0
    4.0420   -1.2731    0.0000 H   0  0  0  0  0  0  0  0  0  0  0  0
    3.1951   -1.5000    0.0000 H   0  0  0  0  0  0  0  0  0  0  0  0
    3.4220   -2.3469    0.0000 H   0  0  0  0  0  0  0  0  0  0  0  0
    4.2690   -5.1200    0.0000 H   0  0  0  0  0  0  0  0  0  0  0  0
    8.5991   -0.6200    0.0000 H   0  0  0  0  0  0  0  0  0  0  0  0
    2.2460   -6.3100    0.0000 H   0  0  0  0  0  0  0  0  0  0  0  0
    2.8660   -6.9300    0.0000 H   0  0  0  0  0  0  0  0  0  0  0  0
    3.4860   -6.3100    0.0000 H   0  0  0  0  0  0  0  0  0  0  0  0
    2.3100   -4.2731    0.0000 H   0  0  0  0  0  0  0  0  0  0  0  0
    1.4631   -4.5000    0.0000 H   0  0  0  0  0  0  0  0  0  0  0  0
    1.6900   -5.3469    0.0000 H   0  0  0  0  0  0  0  0  0  0  0  0
    4.9272    0.8800    0.0000 H   0  0  0  0  0  0  0  0  0  0  0  0
    8.5991    2.3800    0.0000 H   0  0  0  0  0  0  0  0  0  0  0  0
    7.7331   -2.1200    0.0000 H   0  0  0  0  0  0  0  0  0  0  0  0
    9.4651    0.8800    0.0000 H   0  0  0  0  0  0  0  0  0  0  0  0
    7.5252    4.0000    0.0000 H   0  0  0  0  0  0  0  0  0  0  0  0
    9.7942    3.0700    0.0000 H   0  0  0  0  0  0  0  0  0  0  0  0
    8.3913    5.5000    0.0000 H   0  0  0  0  0  0  0  0  0  0  0  0
   11.1972    3.8800    0.0000 H   0  0  0  0  0  0  0  0  0  0  0  0
    9.7942    6.3100    0.0000 H   0  0  0  0  0  0  0  0  0  0  0  0
   11.5263    6.3100    0.0000 H   0  0  0  0  0  0  0  0  0  0  0  0
  1 12  1  0  0  0  0
  1 49  1  0  0  0  0
  2 13  1  0  0  0  0
  2 51  1  0  0  0  0
  3 17  1  0  0  0  0
  3 52  1  0  0  0  0
  4 20  2  0  0  0  0
  5 30  1  0  0  0  0
  5 58  1  0  0  0  0
  6  8  1  0  0  0  0
  6 10  1  0  0  0  0
  6 31  1  0  0  0  0
  6 32  1  0  0  0  0
  7  9  1  0  0  0  0
  7 11  1  0  0  0  0
  7 33  1  0  0  0  0
  7 34  1  0  0  0  0
  8 11  2  0  0  0  0
  8 15  1  0  0  0  0
  9 12  2  0  0  0  0
  9 13  1  0  0  0  0
 10 16  1  0  0  0  0
 10 35  1  0  0  0  0
 10 36  1  0  0  0  0
 11 37  1  0  0  0  0
 12 14  1  0  0  0  0
 13 18  2  0  0  0  0
 14 17  2  0  0  0  0
 14 20  1  0  0  0  0
 15 38  1  0  0  0  0
 15 39  1  0  0  0  0
 15 40  1  0  0  0  0
 16 19  2  0  0  0  0
 16 41  1  0  0  0  0
 17 18  1  0  0  0  0
 18 42  1  0  0  0  0
 19 21  1  0  0  0  0
 19 22  1  0  0  0  0
 20 23  1  0  0  0  0
 21 43  1  0  0  0  0
 21 44  1  0  0  0  0
 21 45  1  0  0  0  0
 22 46  1  0  0  0  0
 22 47  1  0  0  0  0
 22 48  1  0  0  0  0
 23 24  2  0  0  0  0
 23 50  1  0  0  0  0
 24 25  1  0  0  0  0
 24 53  1  0  0  0  0
 25 26  2  0  0  0  0
 25 27  1  0  0  0  0
 26 28  1  0  0  0  0
 26 54  1  0  0  0  0
 27 29  2  0  0  0  0
 27 55  1  0  0  0  0
 28 30  2  0  0  0  0
 28 56  1  0  0  0  0
 29 30  1  0  0  0  0
 29 57  1  0  0  0  0
M  END
>  <PUBCHEM_COMPOUND_CID>
10070028

>  <PUBCHEM_COMPOUND_CANONICALIZED>
1

>  <PUBCHEM_CACTVS_COMPLEXITY>
638

>  <PUBCHEM_CACTVS_HBOND_ACCEPTOR>
5

>  <PUBCHEM_CACTVS_HBOND_DONOR>
4

>  <PUBCHEM_CACTVS_ROTATABLE_BOND>
8

>  <PUBCHEM_CACTVS_SUBSKEYS>
AAADceB4OAAAAAAAAAAAAAAAAAAAAAAAAAAwYAAAAAAAAAABQAAAGgAACAAADASAmAAyBoAAAgCIAqBSAAACAAAkIAAIiAEGCMgIJzaCFRKAcUAl4BUImYeI7OTOIAACCAAIAABAAAQQABAAAAAAAAAAAA==

>  <PUBCHEM_IUPAC_OPENEYE_NAME>
(E)-1-[3-[(2E)-3,7-dimethylocta-2,6-dienyl]-2,4,6-trihydroxy-phenyl]-3-(4-hydroxyphenyl)prop-2-en-1-one

>  <PUBCHEM_IUPAC_CAS_NAME>
(E)-1-[3-[(2E)-3,7-dimethylocta-2,6-dienyl]-2,4,6-trihydroxyphenyl]-3-(4-hydroxyphenyl)-2-propen-1-one

>  <PUBCHEM_IUPAC_NAME>
(E)-1-[3-[(2E)-3,7-dimethylocta-2,6-dienyl]-2,4,6-trihydroxyphenyl]-3-(4-hydroxyphenyl)prop-2-en-1-one

>  <PUBCHEM_IUPAC_SYSTEMATIC_NAME>
(E)-1-[3-[(2E)-3,7-dimethylocta-2,6-dienyl]-2,4,6-tris(oxidanyl)phenyl]-3-(4-hydroxyphenyl)prop-2-en-1-one

>  <PUBCHEM_IUPAC_TRADITIONAL_NAME>
(E)-1-[3-[(2E)-3,7-dimethylocta-2,6-dienyl]-2,4,6-trihydroxy-phenyl]-3-(4-hydroxyphenyl)prop-2-en-1-one

>  <PUBCHEM_IUPAC_INCHI>
InChI=1S/C25H28O5/c1-16(2)5-4-6-17(3)7-13-20-22(28)15-23(29)24(25(20)30)21(27)14-10-18-8-11-19(26)12-9-18/h5,7-12,14-15,26,28-30H,4,6,13H2,1-3H3/b14-10+,17-7+

>  <PUBCHEM_IUPAC_INCHIKEY>
GVXVZXDPRNGAOE-ZCFXJLACSA-N

>  <PUBCHEM_XLOGP3_AA>
6.6

>  <PUBCHEM_EXACT_MASS>
408.194

>  <PUBCHEM_MOLECULAR_FORMULA>
C25H28O5

>  <PUBCHEM_MOLECULAR_WEIGHT>
408.494

>  <PUBCHEM_OPENEYE_CAN_SMILES>
CC(=CCCC(=CCC1=C(C=C(C(=C1O)C(=O)C=CC2=CC=C(C=C2)O)O)O)C)C

>  <PUBCHEM_OPENEYE_ISO_SMILES>
CC(=CCC/C(=C/CC1=C(C=C(C(=C1O)C(=O)/C=C/C2=CC=C(C=C2)O)O)O)/C)C

>  <PUBCHEM_CACTVS_TPSA>
98

>  <PUBCHEM_MONOISOTOPIC_WEIGHT>
408.194

>  <PUBCHEM_TOTAL_CHARGE>
0

>  <PUBCHEM_HEAVY_ATOM_COUNT>
30

>  <PUBCHEM_ATOM_DEF_STEREO_COUNT>
0

>  <PUBCHEM_ATOM_UDEF_STEREO_COUNT>
0

>  <PUBCHEM_BOND_DEF_STEREO_COUNT>
2

>  <PUBCHEM_BOND_UDEF_STEREO_COUNT>
0

>  <PUBCHEM_ISOTOPIC_ATOM_COUNT>
0

>  <PUBCHEM_COMPONENT_COUNT>
1

>  <PUBCHEM_CACTVS_TAUTO_COUNT>
117

>  <PUBCHEM_COORDINATE_TYPE>
1
5
255

>  <PUBCHEM_BONDANNOTATIONS>
12  14  8
13  18  8
14  17  8
17  18  8
25  26  8
25  27  8
26  28  8
27  29  8
28  30  8
29  30  8
9  12  8
9  13  8

$$$$
