10087098
 OpenBabel06101807152D

 35 37  0  0  0  0  0  0  0  0999 V2000
    5.5443   -1.3953    0.0000 O   0  0  0  0  0  0  0  0  0  0  0  0
    3.7320    1.4095    0.0000 O   0  0  0  0  0  0  0  0  0  0  0  0
    5.1871    1.9090    0.0000 O   0  0  0  0  0  0  0  0  0  0  0  0
    2.0000   -1.5905    0.0000 O   0  0  0  0  0  0  0  0  0  0  0  0
    6.8335    1.3709    0.0000 O   0  0  0  0  0  0  0  0  0  0  0  0
    9.1279   -2.3226    0.0000 O   0  0  0  0  0  0  0  0  0  0  0  0
   10.1279   -0.5905    0.0000 O   0  0  0  0  0  0  0  0  0  0  0  0
    4.5981   -0.0905    0.0000 C   0  0  0  0  0  0  0  0  0  0  0  0
    5.5443    0.2142    0.0000 C   0  0  0  0  0  0  0  0  0  0  0  0
    6.1279   -0.5905    0.0000 C   0  0  0  0  0  0  0  0  0  0  0  0
    4.5981   -1.0905    0.0000 C   0  0  0  0  0  0  0  0  0  0  0  0
    7.1279   -0.5905    0.0000 C   0  0  0  0  0  0  0  0  0  0  0  0
    3.7320    0.4095    0.0000 C   0  0  0  0  0  0  0  0  0  0  0  0
    3.7320   -1.5905    0.0000 C   0  0  0  0  0  0  0  0  0  0  0  0
    2.8660   -0.0905    0.0000 C   0  0  0  0  0  0  0  0  0  0  0  0
    2.8660   -1.0905    0.0000 C   0  0  0  0  0  0  0  0  0  0  0  0
    5.8550    1.1647    0.0000 C   0  0  0  0  0  0  0  0  0  0  0  0
    7.6279   -1.4566    0.0000 C   0  0  0  0  0  0  0  0  0  0  0  0
    7.6279    0.2755    0.0000 C   0  0  0  0  0  0  0  0  0  0  0  0
    8.6279   -1.4566    0.0000 C   0  0  0  0  0  0  0  0  0  0  0  0
    8.6279    0.2755    0.0000 C   0  0  0  0  0  0  0  0  0  0  0  0
    9.1279   -0.5905    0.0000 C   0  0  0  0  0  0  0  0  0  0  0  0
    5.4978    2.8595    0.0000 C   0  0  0  0  0  0  0  0  0  0  0  0
    3.7320   -2.2105    0.0000 H   0  0  0  0  0  0  0  0  0  0  0  0
    2.3291    0.2195    0.0000 H   0  0  0  0  0  0  0  0  0  0  0  0
    7.3179   -1.9935    0.0000 H   0  0  0  0  0  0  0  0  0  0  0  0
    7.3179    0.8124    0.0000 H   0  0  0  0  0  0  0  0  0  0  0  0
    8.9379    0.8124    0.0000 H   0  0  0  0  0  0  0  0  0  0  0  0
    3.1951    1.7195    0.0000 H   0  0  0  0  0  0  0  0  0  0  0  0
    2.0000   -2.2105    0.0000 H   0  0  0  0  0  0  0  0  0  0  0  0
    8.8179   -2.8595    0.0000 H   0  0  0  0  0  0  0  0  0  0  0  0
    6.0871    2.6669    0.0000 H   0  0  0  0  0  0  0  0  0  0  0  0
    5.6904    3.4488    0.0000 H   0  0  0  0  0  0  0  0  0  0  0  0
    4.9084    3.0521    0.0000 H   0  0  0  0  0  0  0  0  0  0  0  0
   10.4379   -0.0536    0.0000 H   0  0  0  0  0  0  0  0  0  0  0  0
  1 10  1  0  0  0  0
  1 11  1  0  0  0  0
  2 13  1  0  0  0  0
  2 29  1  0  0  0  0
  3 17  1  0  0  0  0
  3 23  1  0  0  0  0
  4 16  1  0  0  0  0
  4 30  1  0  0  0  0
  5 17  2  0  0  0  0
  6 20  1  0  0  0  0
  6 31  1  0  0  0  0
  7 22  1  0  0  0  0
  7 35  1  0  0  0  0
  8  9  1  0  0  0  0
  8 11  1  0  0  0  0
  8 13  2  0  0  0  0
  9 10  2  0  0  0  0
  9 17  1  0  0  0  0
 10 12  1  0  0  0  0
 11 14  2  0  0  0  0
 12 18  2  0  0  0  0
 12 19  1  0  0  0  0
 13 15  1  0  0  0  0
 14 16  1  0  0  0  0
 14 24  1  0  0  0  0
 15 16  2  0  0  0  0
 15 25  1  0  0  0  0
 18 20  1  0  0  0  0
 18 26  1  0  0  0  0
 19 21  2  0  0  0  0
 19 27  1  0  0  0  0
 20 22  2  0  0  0  0
 21 22  1  0  0  0  0
 21 28  1  0  0  0  0
 23 32  1  0  0  0  0
 23 33  1  0  0  0  0
 23 34  1  0  0  0  0
M  END
>  <PUBCHEM_COMPOUND_CID>
10087098

>  <PUBCHEM_COMPOUND_CANONICALIZED>
1

>  <PUBCHEM_CACTVS_COMPLEXITY>
442

>  <PUBCHEM_CACTVS_HBOND_ACCEPTOR>
7

>  <PUBCHEM_CACTVS_HBOND_DONOR>
4

>  <PUBCHEM_CACTVS_ROTATABLE_BOND>
3

>  <PUBCHEM_CACTVS_SUBSKEYS>
AAADccB4OAAAAAAAAAAAAAAAAAAAASAAAAAwYAAAAAAAAEgB9AAAGgAACAAADASAmAIyDsAABkCIAqDSCAACCAAkIAAIiAEGiMgNJzaONRqCeWGl4BUJuYfL7PzOoAABCAAIQABAAAIQABCAAAAAAAAAAA==

>  <PUBCHEM_IUPAC_OPENEYE_NAME>
methyl 2-(3,4-dihydroxyphenyl)-4,6-dihydroxy-benzofuran-3-carboxylate

>  <PUBCHEM_IUPAC_CAS_NAME>
2-(3,4-dihydroxyphenyl)-4,6-dihydroxy-3-benzofurancarboxylic acid methyl ester

>  <PUBCHEM_IUPAC_NAME>
methyl 2-(3,4-dihydroxyphenyl)-4,6-dihydroxy-1-benzofuran-3-carboxylate

>  <PUBCHEM_IUPAC_SYSTEMATIC_NAME>
methyl 2-[3,4-bis(oxidanyl)phenyl]-4,6-bis(oxidanyl)-1-benzofuran-3-carboxylate

>  <PUBCHEM_IUPAC_TRADITIONAL_NAME>
2-(3,4-dihydroxyphenyl)-4,6-dihydroxy-benzofuran-3-carboxylic acid methyl ester

>  <PUBCHEM_IUPAC_INCHI>
InChI=1S/C16H12O7/c1-22-16(21)14-13-11(20)5-8(17)6-12(13)23-15(14)7-2-3-9(18)10(19)4-7/h2-6,17-20H,1H3

>  <PUBCHEM_IUPAC_INCHIKEY>
BVFAKXZUPQTNKN-UHFFFAOYSA-N

>  <PUBCHEM_XLOGP3_AA>
2.4

>  <PUBCHEM_EXACT_MASS>
316.058

>  <PUBCHEM_MOLECULAR_FORMULA>
C16H12O7

>  <PUBCHEM_MOLECULAR_WEIGHT>
316.265

>  <PUBCHEM_OPENEYE_CAN_SMILES>
COC(=O)C1=C(OC2=CC(=CC(=C21)O)O)C3=CC(=C(C=C3)O)O

>  <PUBCHEM_OPENEYE_ISO_SMILES>
COC(=O)C1=C(OC2=CC(=CC(=C21)O)O)C3=CC(=C(C=C3)O)O

>  <PUBCHEM_CACTVS_TPSA>
120

>  <PUBCHEM_MONOISOTOPIC_WEIGHT>
316.058

>  <PUBCHEM_TOTAL_CHARGE>
0

>  <PUBCHEM_HEAVY_ATOM_COUNT>
23

>  <PUBCHEM_ATOM_DEF_STEREO_COUNT>
0

>  <PUBCHEM_ATOM_UDEF_STEREO_COUNT>
0

>  <PUBCHEM_BOND_DEF_STEREO_COUNT>
0

>  <PUBCHEM_BOND_UDEF_STEREO_COUNT>
0

>  <PUBCHEM_ISOTOPIC_ATOM_COUNT>
0

>  <PUBCHEM_COMPONENT_COUNT>
1

>  <PUBCHEM_CACTVS_TAUTO_COUNT>
150

>  <PUBCHEM_COORDINATE_TYPE>
1
5
255

>  <PUBCHEM_BONDANNOTATIONS>
1  10  8
1  11  8
11  14  8
12  18  8
12  19  8
13  15  8
14  16  8
15  16  8
18  20  8
19  21  8
20  22  8
21  22  8
8  11  8
8  13  8
8  9  8
9  10  8

$$$$
