100933941
 OpenBabel06101807152D

 73 78  0  0  1  0  0  0  0  0999 V2000
    6.5254   -1.3501    0.0000 O   0  0  0  0  0  0  0  0  0  0  0  0
    8.2574   -1.3501    0.0000 O   0  0  0  0  0  0  0  0  0  0  0  0
    6.5254   -4.3501    0.0000 O   0  0  0  0  0  0  0  0  0  0  0  0
    4.7933   -3.3501    0.0000 O   0  0  0  0  0  0  0  0  0  0  0  0
    8.2574   -3.3501    0.0000 O   0  0  0  0  0  0  0  0  0  0  0  0
    3.9273   -1.8501    0.0000 O   0  0  0  0  0  0  0  0  0  0  0  0
    9.9263    0.7029    0.0000 O   0  3  0  0  0  0  0  0  0  0  0  0
    6.6476    1.8735    0.0000 O   0  0  0  0  0  0  0  0  0  0  0  0
    9.3371    4.1836    0.0000 O   0  0  0  0  0  0  0  0  0  0  0  0
   10.1858   -3.6482    0.0000 O   0  0  0  0  0  0  0  0  0  0  0  0
   12.8395   -1.4216    0.0000 O   0  0  0  0  0  0  0  0  0  0  0  0
   12.1554   -3.3009    0.0000 O   0  0  0  0  0  0  0  0  0  0  0  0
    2.4078    0.1613    0.0000 O   0  0  0  0  0  0  0  0  0  0  0  0
    6.5254   -3.3501    0.0000 C   0  0  1  0  0  0  0  0  0  0  0  0
    5.6594   -2.8501    0.0000 C   0  0  1  0  0  0  0  0  0  0  0  0
    7.3914   -2.8501    0.0000 C   0  0  2  0  0  0  0  0  0  0  0  0
    5.6594   -1.8501    0.0000 C   0  0  1  0  0  0  0  0  0  0  0  0
    7.3914   -1.8501    0.0000 C   0  0  1  0  0  0  0  0  0  0  0  0
    4.7933   -1.3501    0.0000 C   0  0  0  0  0  0  0  0  0  0  0  0
    8.5995   -0.4104    0.0000 C   0  0  0  0  0  0  0  0  0  0  0  0
    7.9567    0.3556    0.0000 C   0  0  0  0  0  0  0  0  0  0  0  0
    9.5843   -0.2368    0.0000 C   0  0  0  0  0  0  0  0  0  0  0  0
    8.2987    1.2953    0.0000 C   0  0  0  0  0  0  0  0  0  0  0  0
    9.2835    1.4690    0.0000 C   0  0  0  0  0  0  0  0  0  0  0  0
    6.9802    0.1822    0.0000 C   0  0  0  0  0  0  0  0  0  0  0  0
    7.6169    2.0828    0.0000 C   0  0  0  0  0  0  0  0  0  0  0  0
   10.2271   -1.0028    0.0000 C   0  0  0  0  0  0  0  0  0  0  0  0
    6.3326    0.9332    0.0000 C   0  0  0  0  0  0  0  0  0  0  0  0
    9.6548    2.4422    0.0000 C   0  0  0  0  0  0  0  0  0  0  0  0
    7.9656    3.0644    0.0000 C   0  0  0  0  0  0  0  0  0  0  0  0
    8.9914    3.2452    0.0000 C   0  0  0  0  0  0  0  0  0  0  0  0
   11.2119   -0.8292    0.0000 C   0  0  0  0  0  0  0  0  0  0  0  0
    9.8850   -1.9425    0.0000 C   0  0  0  0  0  0  0  0  0  0  0  0
    5.3514    0.7402    0.0000 C   0  0  0  0  0  0  0  0  0  0  0  0
   10.5278   -2.7085    0.0000 C   0  0  0  0  0  0  0  0  0  0  0  0
   11.8547   -1.5952    0.0000 C   0  0  0  0  0  0  0  0  0  0  0  0
   11.5126   -2.5349    0.0000 C   0  0  0  0  0  0  0  0  0  0  0  0
    5.0280   -0.2060    0.0000 C   0  0  0  0  0  0  0  0  0  0  0  0
    4.6936    1.4934    0.0000 C   0  0  0  0  0  0  0  0  0  0  0  0
    4.0467   -0.3990    0.0000 C   0  0  0  0  0  0  0  0  0  0  0  0
    3.7124    1.3004    0.0000 C   0  0  0  0  0  0  0  0  0  0  0  0
    3.3890    0.3543    0.0000 C   0  0  0  0  0  0  0  0  0  0  0  0
    9.2010   -3.8219    0.0000 C   0  0  0  0  0  0  0  0  0  0  0  0
   13.1815   -0.4819    0.0000 C   0  0  0  0  0  0  0  0  0  0  0  0
    7.0623   -3.6601    0.0000 H   0  0  0  0  0  0  0  0  0  0  0  0
    5.6594   -3.4701    0.0000 H   0  0  0  0  0  0  0  0  0  0  0  0
    7.9284   -2.5401    0.0000 H   0  0  0  0  0  0  0  0  0  0  0  0
    5.6594   -1.2301    0.0000 H   0  0  0  0  0  0  0  0  0  0  0  0
    7.3914   -1.2301    0.0000 H   0  0  0  0  0  0  0  0  0  0  0  0
    5.1919   -0.8752    0.0000 H   0  0  0  0  0  0  0  0  0  0  0  0
    4.3948   -0.8752    0.0000 H   0  0  0  0  0  0  0  0  0  0  0  0
    5.9884   -4.6601    0.0000 H   0  0  0  0  0  0  0  0  0  0  0  0
    4.7933   -3.9701    0.0000 H   0  0  0  0  0  0  0  0  0  0  0  0
    8.2574   -3.9701    0.0000 H   0  0  0  0  0  0  0  0  0  0  0  0
    3.9273   -2.4701    0.0000 H   0  0  0  0  0  0  0  0  0  0  0  0
    6.7725   -0.4020    0.0000 H   0  0  0  0  0  0  0  0  0  0  0  0
   10.2666    2.5428    0.0000 H   0  0  0  0  0  0  0  0  0  0  0  0
    7.5653    3.5378    0.0000 H   0  0  0  0  0  0  0  0  0  0  0  0
   11.4239   -0.2465    0.0000 H   0  0  0  0  0  0  0  0  0  0  0  0
    9.2745   -2.0502    0.0000 H   0  0  0  0  0  0  0  0  0  0  0  0
    5.4358   -0.6730    0.0000 H   0  0  0  0  0  0  0  0  0  0  0  0
    4.8942    2.0801    0.0000 H   0  0  0  0  0  0  0  0  0  0  0  0
    8.9404    4.6601    0.0000 H   0  0  0  0  0  0  0  0  0  0  0  0
    3.8462   -0.9857    0.0000 H   0  0  0  0  0  0  0  0  0  0  0  0
    3.3046    1.7674    0.0000 H   0  0  0  0  0  0  0  0  0  0  0  0
   11.9434   -3.8836    0.0000 H   0  0  0  0  0  0  0  0  0  0  0  0
    9.0933   -3.2113    0.0000 H   0  0  0  0  0  0  0  0  0  0  0  0
    8.5904   -3.9295    0.0000 H   0  0  0  0  0  0  0  0  0  0  0  0
    9.3087   -4.4325    0.0000 H   0  0  0  0  0  0  0  0  0  0  0  0
   13.7641   -0.6939    0.0000 H   0  0  0  0  0  0  0  0  0  0  0  0
   13.3935    0.1007    0.0000 H   0  0  0  0  0  0  0  0  0  0  0  0
   12.5989   -0.2698    0.0000 H   0  0  0  0  0  0  0  0  0  0  0  0
    2.0000    0.6283    0.0000 H   0  0  0  0  0  0  0  0  0  0  0  0
  1 17  1  0  0  0  0
  1 18  1  0  0  0  0
  2 20  1  0  0  0  0
  3 52  1  0  0  0  0
  4 53  1  0  0  0  0
  5 54  1  0  0  0  0
  6 19  1  0  0  0  0
  6 55  1  0  0  0  0
  7 22  2  0  0  0  0
  7 24  1  0  0  0  0
  8 26  1  0  0  0  0
  8 28  1  0  0  0  0
  9 31  1  0  0  0  0
  9 63  1  0  0  0  0
 10 35  1  0  0  0  0
 10 43  1  0  0  0  0
 11 36  1  0  0  0  0
 11 44  1  0  0  0  0
 12 37  1  0  0  0  0
 12 66  1  0  0  0  0
 13 42  1  0  0  0  0
 13 73  1  0  0  0  0
 14  3  1  0  0  0  0
 14 15  1  6  0  0  0
 14 45  1  0  0  0  0
 15  4  1  0  0  0  0
 15 17  1  1  0  0  0
 15 46  1  0  0  0  0
 16  5  1  0  0  0  0
 16 14  1  1  0  0  0
 16 47  1  0  0  0  0
 17 19  1  0  0  0  0
 17 48  1  6  0  0  0
 18  2  1  0  0  0  0
 18 16  1  6  0  0  0
 18 49  1  0  0  0  0
 19 50  1  0  0  0  0
 19 51  1  0  0  0  0
 20 21  2  0  0  0  0
 20 22  1  0  0  0  0
 21 23  1  0  0  0  0
 21 25  1  0  0  0  0
 22 27  1  0  0  0  0
 23 24  2  0  0  0  0
 23 26  1  0  0  0  0
 24 29  1  0  0  0  0
 25 28  2  0  0  0  0
 25 56  1  0  0  0  0
 26 30  2  0  0  0  0
 27 32  2  0  0  0  0
 27 33  1  0  0  0  0
 28 34  1  0  0  0  0
 29 31  2  0  0  0  0
 29 57  1  0  0  0  0
 30 31  1  0  0  0  0
 30 58  1  0  0  0  0
 32 36  1  0  0  0  0
 32 59  1  0  0  0  0
 33 35  2  0  0  0  0
 33 60  1  0  0  0  0
 34 38  2  0  0  0  0
 34 39  1  0  0  0  0
 35 37  1  0  0  0  0
 36 37  2  0  0  0  0
 38 40  1  0  0  0  0
 38 61  1  0  0  0  0
 39 41  2  0  0  0  0
 39 62  1  0  0  0  0
 40 42  2  0  0  0  0
 40 64  1  0  0  0  0
 41 42  1  0  0  0  0
 41 65  1  0  0  0  0
 43 67  1  0  0  0  0
 43 68  1  0  0  0  0
 43 69  1  0  0  0  0
 44 70  1  0  0  0  0
 44 71  1  0  0  0  0
 44 72  1  0  0  0  0
M  CHG  1   7   1
M  END
>  <PUBCHEM_COMPOUND_CID>
100933941

>  <PUBCHEM_COMPOUND_CANONICALIZED>
1

>  <PUBCHEM_CACTVS_COMPLEXITY>
976

>  <PUBCHEM_CACTVS_HBOND_ACCEPTOR>
12

>  <PUBCHEM_CACTVS_HBOND_DONOR>
7

>  <PUBCHEM_CACTVS_ROTATABLE_BOND>
7

>  <PUBCHEM_CACTVS_SUBSKEYS>
AAADceB4PAAAAAAAAAAAAAAAAAAAAAAAAAA0aMECAAAAAACR9AAAGgAACAAADBSwmAMyDsAABkCIAqBSAAICCAAkIAAIiAFGiMgdNzaGNR6ieWOl4BUPuYfK7PzOoAABCAAIQABAAAIQABCAAAAAAAAAAA==

>  <PUBCHEM_IUPAC_INCHI>
InChI=1S/C31H28O13/c1-39-21-7-14(8-22(40-2)25(21)35)29-30(44-31-28(38)27(37)26(36)23(12-32)43-31)17-11-18(13-3-5-15(33)6-4-13)41-19-9-16(34)10-20(42-29)24(17)19/h3-11,23,26-28,31-32,36-38H,12H2,1-2H3,(H2-,33,34,35)/p+1/t23-,26-,27+,28-,31+/m1/s1

>  <PUBCHEM_IUPAC_INCHIKEY>
QVDUZUIZMDYJSK-BGXVWEPQSA-O

>  <PUBCHEM_EXACT_MASS>
609.161

>  <PUBCHEM_MOLECULAR_FORMULA>
C31H29O13+

>  <PUBCHEM_MOLECULAR_WEIGHT>
609.56

>  <PUBCHEM_OPENEYE_CAN_SMILES>
COC1=CC(=CC(=C1O)OC)C2=[O+]C3=CC(=CC4=C3C(=C2OC5C(C(C(C(O5)CO)O)O)O)C=C(O4)C6=CC=C(C=C6)O)O

>  <PUBCHEM_OPENEYE_ISO_SMILES>
COC1=CC(=CC(=C1O)OC)C2=[O+]C3=CC(=CC4=C3C(=C2O[C@H]5[C@@H]([C@H]([C@@H]([C@H](O5)CO)O)O)O)C=C(O4)C6=CC=C(C=C6)O)O

>  <PUBCHEM_CACTVS_TPSA>
189

>  <PUBCHEM_MONOISOTOPIC_WEIGHT>
609.161

>  <PUBCHEM_TOTAL_CHARGE>
1

>  <PUBCHEM_HEAVY_ATOM_COUNT>
44

>  <PUBCHEM_ATOM_DEF_STEREO_COUNT>
5

>  <PUBCHEM_ATOM_UDEF_STEREO_COUNT>
0

>  <PUBCHEM_BOND_DEF_STEREO_COUNT>
0

>  <PUBCHEM_BOND_UDEF_STEREO_COUNT>
0

>  <PUBCHEM_ISOTOPIC_ATOM_COUNT>
0

>  <PUBCHEM_COMPONENT_COUNT>
1

>  <PUBCHEM_CACTVS_TAUTO_COUNT>
94

>  <PUBCHEM_COORDINATE_TYPE>
1
5
255

>  <PUBCHEM_BONDANNOTATIONS>
17  19  5
18  2  5
20  21  8
20  22  8
21  23  8
23  24  8
23  26  8
24  29  8
26  30  8
27  32  8
27  33  8
29  31  8
14  3  5
30  31  8
32  36  8
33  35  8
34  38  8
34  39  8
35  37  8
36  37  8
38  40  8
39  41  8
15  4  6
40  42  8
41  42  8
16  5  6
7  22  8
7  24  8

$$$$
