100951802
 OpenBabel06101807152D

111117  0  0  1  0  0  0  0  0999 V2000
    7.1962   -3.1550    0.0000 O   0  0  0  0  0  0  0  0  0  0  0  0
    8.0622   -0.6550    0.0000 O   0  0  0  0  0  0  0  0  0  0  0  0
    5.4641   -3.1550    0.0000 O   0  0  0  0  0  0  0  0  0  0  0  0
    8.9282   -2.1550    0.0000 O   0  0  0  0  0  0  0  0  0  0  0  0
    5.4641   -2.1550    0.0000 O   0  0  0  0  0  0  0  0  0  0  0  0
    5.4641   -0.1550    0.0000 O   0  0  0  0  0  0  0  0  0  0  0  0
    7.1962   -5.1550    0.0000 O   0  0  0  0  0  0  0  0  0  0  0  0
    5.4641   -6.1550    0.0000 O   0  0  0  0  0  0  0  0  0  0  0  0
    3.7320   -5.1550    0.0000 O   0  0  0  0  0  0  0  0  0  0  0  0
    6.3301    1.3450    0.0000 O   0  0  0  0  0  0  0  0  0  0  0  0
    8.8891    2.8664    0.0000 O   0  0  0  0  0  0  0  0  0  0  0  0
    2.8660   -3.6550    0.0000 O   0  0  0  0  0  0  0  0  0  0  0  0
    9.7724    1.3765    0.0000 O   0  0  0  0  0  0  0  0  0  0  0  0
   11.4697    4.3963    0.0000 O   0  0  0  0  0  0  0  0  0  0  0  0
    9.7262    5.3762    0.0000 O   0  0  0  0  0  0  0  0  0  0  0  0
   11.4928    2.3964    0.0000 O   0  0  0  0  0  0  0  0  0  0  0  0
   11.5263   -1.6550    0.0000 O   0  0  0  0  0  0  0  0  0  0  0  0
    7.9943    5.3562    0.0000 O   0  0  0  0  0  0  0  0  0  0  0  0
    7.1962    2.8450    0.0000 O   0  3  0  0  0  0  0  0  0  0  0  0
   13.3123    1.3901    0.0000 O   0  0  0  0  0  0  0  0  0  0  0  0
   10.6603   -6.1550    0.0000 O   0  0  0  0  0  0  0  0  0  0  0  0
    2.0000    5.8450    0.0000 O   0  0  0  0  0  0  0  0  0  0  0  0
    7.1962   -2.1550    0.0000 C   0  0  2  0  0  0  0  0  0  0  0  0
    6.3301   -1.6550    0.0000 C   0  0  2  0  0  0  0  0  0  0  0  0
    6.3301   -0.6550    0.0000 C   0  0  1  0  0  0  0  0  0  0  0  0
    6.3301   -3.6550    0.0000 C   0  0  2  0  0  0  0  0  0  0  0  0
    8.0622   -1.6550    0.0000 C   0  0  1  0  0  0  0  0  0  0  0  0
    7.1962   -0.1550    0.0000 C   0  0  1  0  0  0  0  0  0  0  0  0
    6.3301   -4.6550    0.0000 C   0  0  1  0  0  0  0  0  0  0  0  0
    5.4641   -5.1550    0.0000 C   0  0  2  0  0  0  0  0  0  0  0  0
    4.5981   -4.6550    0.0000 C   0  0  1  0  0  0  0  0  0  0  0  0
    4.5981   -3.6550    0.0000 C   0  0  1  0  0  0  0  0  0  0  0  0
    7.1962    0.8450    0.0000 C   0  0  0  0  0  0  0  0  0  0  0  0
    3.7320   -3.1550    0.0000 C   0  0  0  0  0  0  0  0  0  0  0  0
   10.6095    3.8863    0.0000 C   0  0  1  0  0  0  0  0  0  0  0  0
    9.7378    4.3763    0.0000 C   0  0  1  0  0  0  0  0  0  0  0  0
   10.6211    2.8864    0.0000 C   0  0  2  0  0  0  0  0  0  0  0  0
    8.8776    3.8663    0.0000 C   0  0  1  0  0  0  0  0  0  0  0  0
    9.7609    2.3764    0.0000 C   0  0  1  0  0  0  0  0  0  0  0  0
    9.7942   -1.6550    0.0000 C   0  0  0  0  0  0  0  0  0  0  0  0
    8.0058    4.3562    0.0000 C   0  0  0  0  0  0  0  0  0  0  0  0
    9.7942   -0.6550    0.0000 C   0  0  0  0  0  0  0  0  0  0  0  0
   10.6603   -2.1550    0.0000 C   0  0  0  0  0  0  0  0  0  0  0  0
   10.6603   -0.1550    0.0000 C   0  0  0  0  0  0  0  0  0  0  0  0
   10.6442    0.8865    0.0000 C   0  0  0  0  0  0  0  0  0  0  0  0
   11.5263   -0.6550    0.0000 C   0  0  0  0  0  0  0  0  0  0  0  0
    6.3301    2.3450    0.0000 C   0  0  0  0  0  0  0  0  0  0  0  0
   10.6603   -3.1550    0.0000 C   0  0  0  0  0  0  0  0  0  0  0  0
   11.5422    1.4143    0.0000 C   0  0  0  0  0  0  0  0  0  0  0  0
   12.4363   -0.1482    0.0000 C   0  0  0  0  0  0  0  0  0  0  0  0
   12.4443    0.8934    0.0000 C   0  0  0  0  0  0  0  0  0  0  0  0
    5.4641    2.8450    0.0000 C   0  0  0  0  0  0  0  0  0  0  0  0
   11.5263   -3.6550    0.0000 C   0  0  0  0  0  0  0  0  0  0  0  0
    9.7942   -3.6550    0.0000 C   0  0  0  0  0  0  0  0  0  0  0  0
   11.5263   -4.6550    0.0000 C   0  0  0  0  0  0  0  0  0  0  0  0
    9.7942   -4.6550    0.0000 C   0  0  0  0  0  0  0  0  0  0  0  0
    5.4641    3.8450    0.0000 C   0  0  0  0  0  0  0  0  0  0  0  0
   10.6603   -5.1550    0.0000 C   0  0  0  0  0  0  0  0  0  0  0  0
    4.5981    4.3450    0.0000 C   0  0  0  0  0  0  0  0  0  0  0  0
    4.5981    5.3450    0.0000 C   0  0  0  0  0  0  0  0  0  0  0  0
    3.7320    3.8450    0.0000 C   0  0  0  0  0  0  0  0  0  0  0  0
    3.7320    5.8450    0.0000 C   0  0  0  0  0  0  0  0  0  0  0  0
    2.8660    4.3450    0.0000 C   0  0  0  0  0  0  0  0  0  0  0  0
    2.8660    5.3450    0.0000 C   0  0  0  0  0  0  0  0  0  0  0  0
    7.7331   -2.4650    0.0000 H   0  0  0  0  0  0  0  0  0  0  0  0
    6.3301   -2.2750    0.0000 H   0  0  0  0  0  0  0  0  0  0  0  0
    6.3301   -0.0350    0.0000 H   0  0  0  0  0  0  0  0  0  0  0  0
    6.3301   -3.0350    0.0000 H   0  0  0  0  0  0  0  0  0  0  0  0
    8.5991   -1.3450    0.0000 H   0  0  0  0  0  0  0  0  0  0  0  0
    7.7331    0.1550    0.0000 H   0  0  0  0  0  0  0  0  0  0  0  0
    6.8671   -4.3450    0.0000 H   0  0  0  0  0  0  0  0  0  0  0  0
    6.0010   -5.4650    0.0000 H   0  0  0  0  0  0  0  0  0  0  0  0
    4.0611   -4.3450    0.0000 H   0  0  0  0  0  0  0  0  0  0  0  0
    4.5981   -3.0350    0.0000 H   0  0  0  0  0  0  0  0  0  0  0  0
    7.8067    0.7373    0.0000 H   0  0  0  0  0  0  0  0  0  0  0  0
    7.4082    1.4276    0.0000 H   0  0  0  0  0  0  0  0  0  0  0  0
    4.1306   -2.6800    0.0000 H   0  0  0  0  0  0  0  0  0  0  0  0
    3.3335   -2.6800    0.0000 H   0  0  0  0  0  0  0  0  0  0  0  0
    4.9272   -1.8450    0.0000 H   0  0  0  0  0  0  0  0  0  0  0  0
    5.4641    0.4650    0.0000 H   0  0  0  0  0  0  0  0  0  0  0  0
    7.1962   -5.7750    0.0000 H   0  0  0  0  0  0  0  0  0  0  0  0
   11.1500    3.5825    0.0000 H   0  0  0  0  0  0  0  0  0  0  0  0
   10.2711    4.6924    0.0000 H   0  0  0  0  0  0  0  0  0  0  0  0
    4.9272   -6.4650    0.0000 H   0  0  0  0  0  0  0  0  0  0  0  0
   10.6282    2.2664    0.0000 H   0  0  0  0  0  0  0  0  0  0  0  0
    8.3443    3.5501    0.0000 H   0  0  0  0  0  0  0  0  0  0  0  0
    3.7320   -5.7750    0.0000 H   0  0  0  0  0  0  0  0  0  0  0  0
    9.2276    2.0602    0.0000 H   0  0  0  0  0  0  0  0  0  0  0  0
    7.3940    4.4568    0.0000 H   0  0  0  0  0  0  0  0  0  0  0  0
    7.8005    3.7712    0.0000 H   0  0  0  0  0  0  0  0  0  0  0  0
    9.2573   -0.3450    0.0000 H   0  0  0  0  0  0  0  0  0  0  0  0
    2.3291   -3.3450    0.0000 H   0  0  0  0  0  0  0  0  0  0  0  0
   11.4625    5.0162    0.0000 H   0  0  0  0  0  0  0  0  0  0  0  0
   10.2595    5.6924    0.0000 H   0  0  0  0  0  0  0  0  0  0  0  0
   12.0261    2.7126    0.0000 H   0  0  0  0  0  0  0  0  0  0  0  0
   11.5398    2.0343    0.0000 H   0  0  0  0  0  0  0  0  0  0  0  0
   12.9696   -0.4643    0.0000 H   0  0  0  0  0  0  0  0  0  0  0  0
    7.4538    5.6599    0.0000 H   0  0  0  0  0  0  0  0  0  0  0  0
    4.9272    2.5350    0.0000 H   0  0  0  0  0  0  0  0  0  0  0  0
   12.0632   -3.3450    0.0000 H   0  0  0  0  0  0  0  0  0  0  0  0
    9.2573   -3.3450    0.0000 H   0  0  0  0  0  0  0  0  0  0  0  0
    7.1962    3.4650    0.0000 H   0  0  0  0  0  0  0  0  0  0  0  0
   12.0632   -4.9650    0.0000 H   0  0  0  0  0  0  0  0  0  0  0  0
    9.2573   -4.9650    0.0000 H   0  0  0  0  0  0  0  0  0  0  0  0
    6.0010    4.1550    0.0000 H   0  0  0  0  0  0  0  0  0  0  0  0
   10.1233   -6.4650    0.0000 H   0  0  0  0  0  0  0  0  0  0  0  0
    5.1350    5.6550    0.0000 H   0  0  0  0  0  0  0  0  0  0  0  0
    3.7320    3.2250    0.0000 H   0  0  0  0  0  0  0  0  0  0  0  0
    3.7320    6.4650    0.0000 H   0  0  0  0  0  0  0  0  0  0  0  0
    2.3291    4.0350    0.0000 H   0  0  0  0  0  0  0  0  0  0  0  0
    2.0000    6.4650    0.0000 H   0  0  0  0  0  0  0  0  0  0  0  0
  2 27  1  0  0  0  0
  2 28  1  0  0  0  0
  3 26  1  0  0  0  0
  3 32  1  0  0  0  0
  4 40  1  0  0  0  0
  5 79  1  0  0  0  0
  6 80  1  0  0  0  0
  7 81  1  0  0  0  0
  8 84  1  0  0  0  0
  9 87  1  0  0  0  0
 10 33  1  0  0  0  0
 10 47  1  0  0  0  0
 11 38  1  0  0  0  0
 11 39  1  0  0  0  0
 12 34  1  0  0  0  0
 12 92  1  0  0  0  0
 13 45  1  0  0  0  0
 14 93  1  0  0  0  0
 15 94  1  0  0  0  0
 16 95  1  0  0  0  0
 17 43  1  0  0  0  0
 17 46  1  0  0  0  0
 18 41  1  0  0  0  0
 18 98  1  0  0  0  0
 19 47  2  0  0  0  0
 19102  1  0  0  0  0
 20 51  2  0  0  0  0
 21 58  1  0  0  0  0
 21106  1  0  0  0  0
 22 64  1  0  0  0  0
 22111  1  0  0  0  0
 23  1  1  0  0  0  0
 23 24  1  1  0  0  0
 23 65  1  0  0  0  0
 24  5  1  0  0  0  0
 24 25  1  6  0  0  0
 24 66  1  0  0  0  0
 25  6  1  0  0  0  0
 25 28  1  6  0  0  0
 25 67  1  0  0  0  0
 26  1  1  0  0  0  0
 26 29  1  6  0  0  0
 26 68  1  0  0  0  0
 27  4  1  0  0  0  0
 27 23  1  6  0  0  0
 27 69  1  0  0  0  0
 28 33  1  0  0  0  0
 28 70  1  6  0  0  0
 29  7  1  0  0  0  0
 29 30  1  1  0  0  0
 29 71  1  0  0  0  0
 30  8  1  0  0  0  0
 30 31  1  6  0  0  0
 30 72  1  0  0  0  0
 31  9  1  0  0  0  0
 31 32  1  6  0  0  0
 31 73  1  0  0  0  0
 32 34  1  0  0  0  0
 32 74  1  6  0  0  0
 33 75  1  0  0  0  0
 33 76  1  0  0  0  0
 34 77  1  0  0  0  0
 34 78  1  0  0  0  0
 35 14  1  0  0  0  0
 35 36  1  1  0  0  0
 35 82  1  0  0  0  0
 36 15  1  0  0  0  0
 36 38  1  6  0  0  0
 36 83  1  0  0  0  0
 37 16  1  0  0  0  0
 37 35  1  6  0  0  0
 37 85  1  0  0  0  0
 38 41  1  0  0  0  0
 38 86  1  1  0  0  0
 39 13  1  0  0  0  0
 39 37  1  1  0  0  0
 39 88  1  0  0  0  0
 40 42  1  0  0  0  0
 40 43  2  0  0  0  0
 41 89  1  0  0  0  0
 41 90  1  0  0  0  0
 42 44  2  0  0  0  0
 42 91  1  0  0  0  0
 43 48  1  0  0  0  0
 44 45  1  0  0  0  0
 44 46  1  0  0  0  0
 45 49  2  0  0  0  0
 46 50  2  0  0  0  0
 47 52  1  0  0  0  0
 48 53  2  0  0  0  0
 48 54  1  0  0  0  0
 49 51  1  0  0  0  0
 49 96  1  0  0  0  0
 50 51  1  0  0  0  0
 50 97  1  0  0  0  0
 52 57  2  3  0  0  0
 52 99  1  0  0  0  0
 53 55  1  0  0  0  0
 53100  1  0  0  0  0
 54 56  2  0  0  0  0
 54101  1  0  0  0  0
 55 58  2  0  0  0  0
 55103  1  0  0  0  0
 56 58  1  0  0  0  0
 56104  1  0  0  0  0
 57 59  1  0  0  0  0
 57105  1  0  0  0  0
 59 60  2  0  0  0  0
 59 61  1  0  0  0  0
 60 62  1  0  0  0  0
 60107  1  0  0  0  0
 61 63  2  0  0  0  0
 61108  1  0  0  0  0
 62 64  2  0  0  0  0
 62109  1  0  0  0  0
 63 64  1  0  0  0  0
 63110  1  0  0  0  0
M  CHG  1  19   1
M  END
>  <PUBCHEM_COMPOUND_CID>
100951802

>  <PUBCHEM_COMPOUND_CANONICALIZED>
1

>  <PUBCHEM_CACTVS_COMPLEXITY>
1800

>  <PUBCHEM_CACTVS_HBOND_ACCEPTOR>
21

>  <PUBCHEM_CACTVS_HBOND_DONOR>
13

>  <PUBCHEM_CACTVS_ROTATABLE_BOND>
14

>  <PUBCHEM_CACTVS_SUBSKEYS>
AAADcfB8PgAAAAAAAAAAAAAAAAAAAAAAAAA0aJECAAAAAACBQAAAGgAACAAADBSwmAMwDoAABgCIAqDSCAACCAAgIAAIiAAGCMgZNiKCMRqicAAlwBEPuYfA4CwOIAAAAAAAAABAAAAAAAAAAAAAAAAAAA==

>  <PUBCHEM_IUPAC_OPENEYE_NAME>
[1-[[(2R,3S,4S,5R,6S)-3,4-dihydroxy-6-[2-(4-hydroxyphenyl)-7-oxo-5-[(2S,3R,4S,5S,6R)-3,4,5-trihydroxy-6-(hydroxymethyl)tetrahydropyran-2-yl]oxy-chromen-3-yl]oxy-5-[(2S,3R,4S,5S,6R)-3,4,5-trihydroxy-6-(hydroxymethyl)tetrahydropyran-2-yl]oxy-tetrahydropyran-2-yl]methoxy]-3-(4-hydroxyphenyl)prop-2-enylidene]oxonium

>  <PUBCHEM_IUPAC_CAS_NAME>
[1-[[(2R,3S,4S,5R,6S)-3,4-dihydroxy-6-[[2-(4-hydroxyphenyl)-7-oxo-5-[[(2S,3R,4S,5S,6R)-3,4,5-trihydroxy-6-(hydroxymethyl)-2-oxanyl]oxy]-1-benzopyran-3-yl]oxy]-5-[[(2S,3R,4S,5S,6R)-3,4,5-trihydroxy-6-(hydroxymethyl)-2-oxanyl]oxy]-2-oxanyl]methoxy]-3-(4-hydroxyphenyl)prop-2-enylidene]oxonium

>  <PUBCHEM_IUPAC_NAME>
[1-[[(2R,3S,4S,5R,6S)-3,4-dihydroxy-6-[2-(4-hydroxyphenyl)-7-oxo-5-[(2S,3R,4S,5S,6R)-3,4,5-trihydroxy-6-(hydroxymethyl)oxan-2-yl]oxychromen-3-yl]oxy-5-[(2S,3R,4S,5S,6R)-3,4,5-trihydroxy-6-(hydroxymethyl)oxan-2-yl]oxyoxan-2-yl]methoxy]-3-(4-hydroxyphenyl)prop-2-enylidene]oxidanium

>  <PUBCHEM_IUPAC_SYSTEMATIC_NAME>
[1-[[(2R,3S,4S,5R,6S)-5-[(2S,3R,4S,5S,6R)-6-(hydroxymethyl)-3,4,5-tris(oxidanyl)oxan-2-yl]oxy-6-[5-[(2S,3R,4S,5S,6R)-6-(hydroxymethyl)-3,4,5-tris(oxidanyl)oxan-2-yl]oxy-2-(4-hydroxyphenyl)-7-oxidanylidene-chromen-3-yl]oxy-3,4-bis(oxidanyl)oxan-2-yl]methoxy]-3-(4-hydroxyphenyl)prop-2-enylidene]oxidanium

>  <PUBCHEM_IUPAC_TRADITIONAL_NAME>
[1-[[(2R,3S,4S,5R,6S)-3,4-dihydroxy-6-[2-(4-hydroxyphenyl)-7-keto-5-[(2S,3R,4S,5S,6R)-3,4,5-trihydroxy-6-methylol-tetrahydropyran-2-yl]oxy-chromen-3-yl]oxy-5-[(2S,3R,4S,5S,6R)-3,4,5-trihydroxy-6-methylol-tetrahydropyran-2-yl]oxy-tetrahydropyran-2-yl]methoxy]-3-(4-hydroxyphenyl)prop-2-enylidene]oxonium

>  <PUBCHEM_IUPAC_INCHI>
InChI=1S/C42H46O22/c43-14-26-30(49)33(52)36(55)40(61-26)59-24-12-21(47)11-23-22(24)13-25(38(58-23)18-4-8-20(46)9-5-18)60-42-39(64-41-37(56)34(53)31(50)27(15-44)62-41)35(54)32(51)28(63-42)16-57-29(48)10-3-17-1-6-19(45)7-2-17/h1-13,26-28,30-37,39-46,49-56H,14-16H2/p+1/t26-,27-,28-,30-,31-,32-,33+,34+,35+,36-,37-,39-,40-,41+,42-/m1/s1

>  <PUBCHEM_IUPAC_INCHIKEY>
DPDZSGXMIAVFCI-GXKMNUNHSA-O

>  <PUBCHEM_XLOGP3_AA>
-2.5

>  <PUBCHEM_EXACT_MASS>
903.256

>  <PUBCHEM_MOLECULAR_FORMULA>
C42H47O22+

>  <PUBCHEM_MOLECULAR_WEIGHT>
903.816

>  <PUBCHEM_OPENEYE_CAN_SMILES>
C1=CC(=CC=C1C=CC(=[OH+])OCC2C(C(C(C(O2)OC3=C(OC4=CC(=O)C=C(C4=C3)OC5C(C(C(C(O5)CO)O)O)O)C6=CC=C(C=C6)O)OC7C(C(C(C(O7)CO)O)O)O)O)O)O

>  <PUBCHEM_OPENEYE_ISO_SMILES>
C1=CC(=CC=C1C=CC(=[OH+])OC[C@@H]2[C@H]([C@@H]([C@H]([C@@H](O2)OC3=C(OC4=CC(=O)C=C(C4=C3)O[C@H]5[C@@H]([C@H]([C@@H]([C@H](O5)CO)O)O)O)C6=CC=C(C=C6)O)O[C@H]7[C@@H]([C@H]([C@@H]([C@H](O7)CO)O)O)O)O)O)O

>  <PUBCHEM_CACTVS_TPSA>
335

>  <PUBCHEM_MONOISOTOPIC_WEIGHT>
903.256

>  <PUBCHEM_TOTAL_CHARGE>
1

>  <PUBCHEM_HEAVY_ATOM_COUNT>
64

>  <PUBCHEM_ATOM_DEF_STEREO_COUNT>
15

>  <PUBCHEM_ATOM_UDEF_STEREO_COUNT>
0

>  <PUBCHEM_BOND_DEF_STEREO_COUNT>
0

>  <PUBCHEM_BOND_UDEF_STEREO_COUNT>
1

>  <PUBCHEM_ISOTOPIC_ATOM_COUNT>
0

>  <PUBCHEM_COMPONENT_COUNT>
1

>  <PUBCHEM_CACTVS_TAUTO_COUNT>
28

>  <PUBCHEM_COORDINATE_TYPE>
1
5
255

>  <PUBCHEM_BONDANNOTATIONS>
23  1  6
26  1  5
39  13  6
35  14  6
36  15  5
37  16  5
17  43  8
17  46  8
28  33  5
32  34  5
38  41  6
27  4  5
40  42  8
40  43  8
42  44  8
44  45  8
45  49  8
46  50  8
48  53  8
48  54  8
49  51  8
24  5  5
50  51  8
52  57  1
53  55  8
54  56  8
55  58  8
56  58  8
59  60  8
59  61  8
25  6  6
60  62  8
61  63  8
62  64  8
63  64  8
29  7  6
30  8  5
31  9  6

$$$$
