101020994
 OpenBabel06101807152D

 50 51  0  0  0  0  0  0  0  0999 V2000
    4.6660    2.0000    0.0000 O   0  0  0  0  0  0  0  0  0  0  0  0
   13.3263   -2.0000    0.0000 O   0  0  0  0  0  0  0  0  0  0  0  0
    4.6660   -1.0000    0.0000 N   0  0  0  0  0  0  0  0  0  0  0  0
    8.1301   -1.0000    0.0000 C   0  0  0  0  0  0  0  0  0  0  0  0
    8.9962   -0.5000    0.0000 C   0  0  0  0  0  0  0  0  0  0  0  0
    7.2641   -0.5000    0.0000 C   0  0  0  0  0  0  0  0  0  0  0  0
    9.8622   -1.0000    0.0000 C   0  0  0  0  0  0  0  0  0  0  0  0
    6.3981   -1.0000    0.0000 C   0  0  0  0  0  0  0  0  0  0  0  0
   10.7282   -0.5000    0.0000 C   0  0  0  0  0  0  0  0  0  0  0  0
    5.5321   -0.5000    0.0000 C   0  0  0  0  0  0  0  0  0  0  0  0
   11.5942   -1.0000    0.0000 C   0  0  0  0  0  0  0  0  0  0  0  0
    3.8000   -0.5000    0.0000 C   0  0  0  0  0  0  0  0  0  0  0  0
   12.4603   -0.5000    0.0000 C   0  0  0  0  0  0  0  0  0  0  0  0
    5.5321    0.5000    0.0000 C   0  0  0  0  0  0  0  0  0  0  0  0
    3.8000    0.5000    0.0000 C   0  0  0  0  0  0  0  0  0  0  0  0
    4.6660    1.0000    0.0000 C   0  0  0  0  0  0  0  0  0  0  0  0
    4.6660   -2.0000    0.0000 C   0  0  0  0  0  0  0  0  0  0  0  0
    2.9061   -1.0347    0.0000 C   0  0  0  0  0  0  0  0  0  0  0  0
   13.3263   -1.0000    0.0000 C   0  0  0  0  0  0  0  0  0  0  0  0
    2.9061    1.0347    0.0000 C   0  0  0  0  0  0  0  0  0  0  0  0
    2.0000   -0.5208    0.0000 C   0  0  0  0  0  0  0  0  0  0  0  0
    2.0000    0.5208    0.0000 C   0  0  0  0  0  0  0  0  0  0  0  0
   14.1923   -0.5000    0.0000 C   0  0  0  0  0  0  0  0  0  0  0  0
    7.7316   -1.4750    0.0000 H   0  0  0  0  0  0  0  0  0  0  0  0
    8.5287   -1.4750    0.0000 H   0  0  0  0  0  0  0  0  0  0  0  0
    9.3947   -0.0251    0.0000 H   0  0  0  0  0  0  0  0  0  0  0  0
    8.5976   -0.0251    0.0000 H   0  0  0  0  0  0  0  0  0  0  0  0
    7.6626   -0.0251    0.0000 H   0  0  0  0  0  0  0  0  0  0  0  0
    6.8656   -0.0251    0.0000 H   0  0  0  0  0  0  0  0  0  0  0  0
    9.4637   -1.4750    0.0000 H   0  0  0  0  0  0  0  0  0  0  0  0
   10.2607   -1.4750    0.0000 H   0  0  0  0  0  0  0  0  0  0  0  0
    5.9996   -1.4750    0.0000 H   0  0  0  0  0  0  0  0  0  0  0  0
    6.7966   -1.4750    0.0000 H   0  0  0  0  0  0  0  0  0  0  0  0
   11.1267   -0.0251    0.0000 H   0  0  0  0  0  0  0  0  0  0  0  0
   10.3297   -0.0251    0.0000 H   0  0  0  0  0  0  0  0  0  0  0  0
   11.1957   -1.4750    0.0000 H   0  0  0  0  0  0  0  0  0  0  0  0
   11.9928   -1.4750    0.0000 H   0  0  0  0  0  0  0  0  0  0  0  0
   12.8588   -0.0251    0.0000 H   0  0  0  0  0  0  0  0  0  0  0  0
   12.0617   -0.0251    0.0000 H   0  0  0  0  0  0  0  0  0  0  0  0
    6.0690    0.8100    0.0000 H   0  0  0  0  0  0  0  0  0  0  0  0
    4.0460   -2.0000    0.0000 H   0  0  0  0  0  0  0  0  0  0  0  0
    4.6660   -2.6200    0.0000 H   0  0  0  0  0  0  0  0  0  0  0  0
    5.2860   -2.0000    0.0000 H   0  0  0  0  0  0  0  0  0  0  0  0
    2.9132   -1.6546    0.0000 H   0  0  0  0  0  0  0  0  0  0  0  0
    2.9132    1.6546    0.0000 H   0  0  0  0  0  0  0  0  0  0  0  0
    1.4643   -0.8329    0.0000 H   0  0  0  0  0  0  0  0  0  0  0  0
    1.4643    0.8329    0.0000 H   0  0  0  0  0  0  0  0  0  0  0  0
   14.5023   -1.0369    0.0000 H   0  0  0  0  0  0  0  0  0  0  0  0
   14.7292   -0.1900    0.0000 H   0  0  0  0  0  0  0  0  0  0  0  0
   13.8823    0.0369    0.0000 H   0  0  0  0  0  0  0  0  0  0  0  0
  1 16  2  0  0  0  0
  2 19  2  0  0  0  0
  3 10  1  0  0  0  0
  3 12  1  0  0  0  0
  3 17  1  0  0  0  0
  4  5  1  0  0  0  0
  4  6  1  0  0  0  0
  4 24  1  0  0  0  0
  4 25  1  0  0  0  0
  5  7  1  0  0  0  0
  5 26  1  0  0  0  0
  5 27  1  0  0  0  0
  6  8  1  0  0  0  0
  6 28  1  0  0  0  0
  6 29  1  0  0  0  0
  7  9  1  0  0  0  0
  7 30  1  0  0  0  0
  7 31  1  0  0  0  0
  8 10  1  0  0  0  0
  8 32  1  0  0  0  0
  8 33  1  0  0  0  0
  9 11  1  0  0  0  0
  9 34  1  0  0  0  0
  9 35  1  0  0  0  0
 10 14  2  0  0  0  0
 11 13  1  0  0  0  0
 11 36  1  0  0  0  0
 11 37  1  0  0  0  0
 12 15  1  0  0  0  0
 12 18  2  0  0  0  0
 13 19  1  0  0  0  0
 13 38  1  0  0  0  0
 13 39  1  0  0  0  0
 14 16  1  0  0  0  0
 14 40  1  0  0  0  0
 15 16  1  0  0  0  0
 15 20  2  0  0  0  0
 17 41  1  0  0  0  0
 17 42  1  0  0  0  0
 17 43  1  0  0  0  0
 18 21  1  0  0  0  0
 18 44  1  0  0  0  0
 19 23  1  0  0  0  0
 20 22  1  0  0  0  0
 20 45  1  0  0  0  0
 21 22  2  0  0  0  0
 21 46  1  0  0  0  0
 22 47  1  0  0  0  0
 23 48  1  0  0  0  0
 23 49  1  0  0  0  0
 23 50  1  0  0  0  0
M  END
>  <PUBCHEM_COMPOUND_CID>
101020994

>  <PUBCHEM_COMPOUND_CANONICALIZED>
1

>  <PUBCHEM_CACTVS_COMPLEXITY>
441

>  <PUBCHEM_CACTVS_HBOND_ACCEPTOR>
3

>  <PUBCHEM_CACTVS_HBOND_DONOR>
0

>  <PUBCHEM_CACTVS_ROTATABLE_BOND>
9

>  <PUBCHEM_CACTVS_SUBSKEYS>
AAADceB6MAAAAAAAAAAAAAAAAAAAAAAAAAAwQAAAAAAAAACBAAAAHgAAAAAADAyBmAQywIMAAACIAqRSQACCAAAlAgAIiAEIZMgIIDrAlZGEIYhggADIyccYiICOAAAAAAACAAAAAAAAAAQAAAAAAAAAAA==

>  <PUBCHEM_IUPAC_OPENEYE_NAME>
1-methyl-2-(9-oxodecyl)quinolin-4-one

>  <PUBCHEM_IUPAC_CAS_NAME>
1-methyl-2-(9-oxodecyl)-4-quinolinone

>  <PUBCHEM_IUPAC_NAME>
1-methyl-2-(9-oxodecyl)quinolin-4-one

>  <PUBCHEM_IUPAC_SYSTEMATIC_NAME>
1-methyl-2-(9-oxidanylidenedecyl)quinolin-4-one

>  <PUBCHEM_IUPAC_TRADITIONAL_NAME>
2-(9-ketodecyl)-1-methyl-4-quinolone

>  <PUBCHEM_IUPAC_INCHI>
InChI=1S/C20H27NO2/c1-16(22)11-7-5-3-4-6-8-12-17-15-20(23)18-13-9-10-14-19(18)21(17)2/h9-10,13-15H,3-8,11-12H2,1-2H3

>  <PUBCHEM_IUPAC_INCHIKEY>
FFRDGQMIHWZDLH-UHFFFAOYSA-N

>  <PUBCHEM_XLOGP3_AA>
4.5

>  <PUBCHEM_EXACT_MASS>
313.204

>  <PUBCHEM_MOLECULAR_FORMULA>
C20H27NO2

>  <PUBCHEM_MOLECULAR_WEIGHT>
313.441

>  <PUBCHEM_OPENEYE_CAN_SMILES>
CC(=O)CCCCCCCCC1=CC(=O)C2=CC=CC=C2N1C

>  <PUBCHEM_OPENEYE_ISO_SMILES>
CC(=O)CCCCCCCCC1=CC(=O)C2=CC=CC=C2N1C

>  <PUBCHEM_CACTVS_TPSA>
37.4

>  <PUBCHEM_MONOISOTOPIC_WEIGHT>
313.204

>  <PUBCHEM_TOTAL_CHARGE>
0

>  <PUBCHEM_HEAVY_ATOM_COUNT>
23

>  <PUBCHEM_ATOM_DEF_STEREO_COUNT>
0

>  <PUBCHEM_ATOM_UDEF_STEREO_COUNT>
0

>  <PUBCHEM_BOND_DEF_STEREO_COUNT>
0

>  <PUBCHEM_BOND_UDEF_STEREO_COUNT>
0

>  <PUBCHEM_ISOTOPIC_ATOM_COUNT>
0

>  <PUBCHEM_COMPONENT_COUNT>
1

>  <PUBCHEM_CACTVS_TAUTO_COUNT>
54

>  <PUBCHEM_COORDINATE_TYPE>
1
5
255

>  <PUBCHEM_BONDANNOTATIONS>
10  14  8
12  15  8
12  18  8
14  16  8
15  16  8
15  20  8
18  21  8
20  22  8
21  22  8
3  10  8
3  12  8

$$$$
