101115367
 OpenBabel06101807152D

 37 39  0  0  0  0  0  0  0  0999 V2000
    8.1821    1.4799    0.0000 O   0  0  0  0  0  0  0  0  0  0  0  0
    6.3961   -1.5652    0.0000 C   0  0  0  0  0  0  0  0  0  0  0  0
    5.5301   -2.0652    0.0000 C   0  0  0  0  0  0  0  0  0  0  0  0
    6.3961   -0.5652    0.0000 C   0  0  0  0  0  0  0  0  0  0  0  0
    4.6641   -1.5652    0.0000 C   0  0  0  0  0  0  0  0  0  0  0  0
    4.6641   -0.5652    0.0000 C   0  0  0  0  0  0  0  0  0  0  0  0
    5.5301   -0.0652    0.0000 C   0  0  0  0  0  0  0  0  0  0  0  0
    7.3062   -0.0584    0.0000 C   0  0  0  0  0  0  0  0  0  0  0  0
    3.7702   -0.0306    0.0000 C   0  0  0  0  0  0  0  0  0  0  0  0
    3.7702   -2.0999    0.0000 C   0  0  0  0  0  0  0  0  0  0  0  0
    5.5141    0.9763    0.0000 C   0  0  0  0  0  0  0  0  0  0  0  0
    2.8641   -1.5860    0.0000 C   0  0  0  0  0  0  0  0  0  0  0  0
    2.8641   -0.5444    0.0000 C   0  0  0  0  0  0  0  0  0  0  0  0
    7.3142    0.9832    0.0000 C   0  0  0  0  0  0  0  0  0  0  0  0
    6.4121    1.5040    0.0000 C   0  0  0  0  0  0  0  0  0  0  0  0
    8.1663   -0.5684    0.0000 C   0  0  0  0  0  0  0  0  0  0  0  0
    3.7817    0.9694    0.0000 C   0  0  0  0  0  0  0  0  0  0  0  0
    2.0000   -2.0894    0.0000 C   0  0  0  0  0  0  0  0  0  0  0  0
    2.9215    1.4794    0.0000 C   0  0  0  0  0  0  0  0  0  0  0  0
    6.6082   -2.1478    0.0000 H   0  0  0  0  0  0  0  0  0  0  0  0
    7.0067   -1.4576    0.0000 H   0  0  0  0  0  0  0  0  0  0  0  0
    5.1316   -2.5402    0.0000 H   0  0  0  0  0  0  0  0  0  0  0  0
    5.9286   -2.5402    0.0000 H   0  0  0  0  0  0  0  0  0  0  0  0
    3.7773   -2.7198    0.0000 H   0  0  0  0  0  0  0  0  0  0  0  0
    4.9736    1.2801    0.0000 H   0  0  0  0  0  0  0  0  0  0  0  0
    2.3284   -0.2323    0.0000 H   0  0  0  0  0  0  0  0  0  0  0  0
    6.4097    2.1240    0.0000 H   0  0  0  0  0  0  0  0  0  0  0  0
    7.8502   -1.1017    0.0000 H   0  0  0  0  0  0  0  0  0  0  0  0
    8.6996   -0.8845    0.0000 H   0  0  0  0  0  0  0  0  0  0  0  0
    8.4825   -0.0350    0.0000 H   0  0  0  0  0  0  0  0  0  0  0  0
    4.3222    1.2732    0.0000 H   0  0  0  0  0  0  0  0  0  0  0  0
    1.6879   -1.5536    0.0000 H   0  0  0  0  0  0  0  0  0  0  0  0
    1.4643   -2.4014    0.0000 H   0  0  0  0  0  0  0  0  0  0  0  0
    2.3121   -2.6251    0.0000 H   0  0  0  0  0  0  0  0  0  0  0  0
    8.1845    2.0999    0.0000 H   0  0  0  0  0  0  0  0  0  0  0  0
    2.9287    2.0993    0.0000 H   0  0  0  0  0  0  0  0  0  0  0  0
    2.3810    1.1756    0.0000 H   0  0  0  0  0  0  0  0  0  0  0  0
  1 14  1  0  0  0  0
  1 35  1  0  0  0  0
  2  3  1  0  0  0  0
  2  4  1  0  0  0  0
  2 20  1  0  0  0  0
  2 21  1  0  0  0  0
  3  5  1  0  0  0  0
  3 22  1  0  0  0  0
  3 23  1  0  0  0  0
  4  7  2  0  0  0  0
  4  8  1  0  0  0  0
  5  6  2  0  0  0  0
  5 10  1  0  0  0  0
  6  7  1  0  0  0  0
  6  9  1  0  0  0  0
  7 11  1  0  0  0  0
  8 14  2  0  0  0  0
  8 16  1  0  0  0  0
  9 13  2  0  0  0  0
  9 17  1  0  0  0  0
 10 12  2  0  0  0  0
 10 24  1  0  0  0  0
 11 15  2  0  0  0  0
 11 25  1  0  0  0  0
 12 13  1  0  0  0  0
 12 18  1  0  0  0  0
 13 26  1  0  0  0  0
 14 15  1  0  0  0  0
 15 27  1  0  0  0  0
 16 28  1  0  0  0  0
 16 29  1  0  0  0  0
 16 30  1  0  0  0  0
 17 19  2  0  0  0  0
 17 31  1  0  0  0  0
 18 32  1  0  0  0  0
 18 33  1  0  0  0  0
 18 34  1  0  0  0  0
 19 36  1  0  0  0  0
 19 37  1  0  0  0  0
M  END
>  <PUBCHEM_COMPOUND_CID>
101115367

>  <PUBCHEM_COMPOUND_CANONICALIZED>
1

>  <PUBCHEM_CACTVS_COMPLEXITY>
337

>  <PUBCHEM_CACTVS_HBOND_ACCEPTOR>
1

>  <PUBCHEM_CACTVS_HBOND_DONOR>
1

>  <PUBCHEM_CACTVS_ROTATABLE_BOND>
1

>  <PUBCHEM_CACTVS_SUBSKEYS>
AAADceB4IAAAAAAAAAAAAAAAAAAAAAAAAAAwYMAAAAAAAADBQAAAGgAACAAADASAmAAyBoAAAgCAAiBCAAACAAAgIAAIiAAGCIgIJiKCERKAcAAkwBEImAeAwPAO4AADAAAYAADAAAYAADAAAAAAAAAAAA==

>  <PUBCHEM_IUPAC_OPENEYE_NAME>
1,7-dimethyl-5-vinyl-9,10-dihydrophenanthren-2-ol

>  <PUBCHEM_IUPAC_CAS_NAME>
5-ethenyl-1,7-dimethyl-9,10-dihydrophenanthren-2-ol

>  <PUBCHEM_IUPAC_NAME>
5-ethenyl-1,7-dimethyl-9,10-dihydrophenanthren-2-ol

>  <PUBCHEM_IUPAC_SYSTEMATIC_NAME>
5-ethenyl-1,7-dimethyl-9,10-dihydrophenanthren-2-ol

>  <PUBCHEM_IUPAC_TRADITIONAL_NAME>
1,7-dimethyl-5-vinyl-9,10-dihydrophenanthren-2-ol

>  <PUBCHEM_IUPAC_INCHI>
InChI=1S/C18H18O/c1-4-13-9-11(2)10-14-5-6-15-12(3)17(19)8-7-16(15)18(13)14/h4,7-10,19H,1,5-6H2,2-3H3

>  <PUBCHEM_IUPAC_INCHIKEY>
DOVVPEXQMTVYAG-UHFFFAOYSA-N

>  <PUBCHEM_XLOGP3_AA>
5

>  <PUBCHEM_EXACT_MASS>
250.136

>  <PUBCHEM_MOLECULAR_FORMULA>
C18H18O

>  <PUBCHEM_MOLECULAR_WEIGHT>
250.341

>  <PUBCHEM_OPENEYE_CAN_SMILES>
CC1=CC2=C(C3=C(CC2)C(=C(C=C3)O)C)C(=C1)C=C

>  <PUBCHEM_OPENEYE_ISO_SMILES>
CC1=CC2=C(C3=C(CC2)C(=C(C=C3)O)C)C(=C1)C=C

>  <PUBCHEM_CACTVS_TPSA>
20.2

>  <PUBCHEM_MONOISOTOPIC_WEIGHT>
250.136

>  <PUBCHEM_TOTAL_CHARGE>
0

>  <PUBCHEM_HEAVY_ATOM_COUNT>
19

>  <PUBCHEM_ATOM_DEF_STEREO_COUNT>
0

>  <PUBCHEM_ATOM_UDEF_STEREO_COUNT>
0

>  <PUBCHEM_BOND_DEF_STEREO_COUNT>
0

>  <PUBCHEM_BOND_UDEF_STEREO_COUNT>
0

>  <PUBCHEM_ISOTOPIC_ATOM_COUNT>
0

>  <PUBCHEM_COMPONENT_COUNT>
1

>  <PUBCHEM_CACTVS_TAUTO_COUNT>
723

>  <PUBCHEM_COORDINATE_TYPE>
1
5
255

>  <PUBCHEM_BONDANNOTATIONS>
10  12  8
11  15  8
12  13  8
14  15  8
4  7  8
4  8  8
5  10  8
5  6  8
6  9  8
7  11  8
8  14  8
9  13  8

$$$$
