101150699
 OpenBabel06101807152D

110115  0  0  0  0  0  0  0  0999 V2000
   12.4238   -1.0343    0.0000 O   0  0  0  0  0  0  0  0  0  0  0  0
    9.3613    1.0343    0.0000 O   0  0  0  0  0  0  0  0  0  0  0  0
    5.4144   -1.0343    0.0000 O   0  0  0  0  0  0  0  0  0  0  0  0
   16.3707    1.0343    0.0000 O   0  0  0  0  0  0  0  0  0  0  0  0
    8.9191   -0.1217    0.0000 N   0  0  0  0  0  0  0  0  0  0  0  0
   12.8660    0.1217    0.0000 N   0  0  0  0  0  0  0  0  0  0  0  0
   10.7436   -0.4773    0.0000 C   0  0  0  0  0  0  0  0  0  0  0  0
   11.0416    0.4773    0.0000 C   0  0  0  0  0  0  0  0  0  0  0  0
   12.0570    0.7095    0.0000 C   0  0  0  0  0  0  0  0  0  0  0  0
    9.7282   -0.7095    0.0000 C   0  0  0  0  0  0  0  0  0  0  0  0
   12.3660    1.6606    0.0000 C   0  0  0  0  0  0  0  0  0  0  0  0
    9.4191   -1.6606    0.0000 C   0  0  0  0  0  0  0  0  0  0  0  0
    8.4191   -1.6606    0.0000 C   0  0  0  0  0  0  0  0  0  0  0  0
   13.3660    1.6606    0.0000 C   0  0  0  0  0  0  0  0  0  0  0  0
   13.6750    0.7095    0.0000 C   0  0  0  0  0  0  0  0  0  0  0  0
    8.1101   -0.7095    0.0000 C   0  0  0  0  0  0  0  0  0  0  0  0
   11.4465   -1.2460    0.0000 C   0  0  0  0  0  0  0  0  0  0  0  0
   10.3386    1.2460    0.0000 C   0  0  0  0  0  0  0  0  0  0  0  0
    7.0947   -0.4773    0.0000 C   0  0  0  0  0  0  0  0  0  0  0  0
   14.6904    0.4773    0.0000 C   0  0  0  0  0  0  0  0  0  0  0  0
   11.6810    2.4453    0.0000 C   0  0  0  0  0  0  0  0  0  0  0  0
   10.1041   -2.4453    0.0000 C   0  0  0  0  0  0  0  0  0  0  0  0
   11.1246   -2.2366    0.0000 C   0  0  0  0  0  0  0  0  0  0  0  0
   10.6605    2.2366    0.0000 C   0  0  0  0  0  0  0  0  0  0  0  0
   14.0510    2.4453    0.0000 C   0  0  0  0  0  0  0  0  0  0  0  0
    7.7342   -2.4453    0.0000 C   0  0  0  0  0  0  0  0  0  0  0  0
   14.9884   -0.4773    0.0000 C   0  0  0  0  0  0  0  0  0  0  0  0
    6.7967    0.4773    0.0000 C   0  0  0  0  0  0  0  0  0  0  0  0
    6.3918   -1.2460    0.0000 C   0  0  0  0  0  0  0  0  0  0  0  0
   15.3933    1.2460    0.0000 C   0  0  0  0  0  0  0  0  0  0  0  0
   15.0715    2.2366    0.0000 C   0  0  0  0  0  0  0  0  0  0  0  0
    6.7137   -2.2366    0.0000 C   0  0  0  0  0  0  0  0  0  0  0  0
    9.9942    2.9823    0.0000 C   0  0  0  0  0  0  0  0  0  0  0  0
   11.7909   -2.9823    0.0000 C   0  0  0  0  0  0  0  0  0  0  0  0
   15.9641   -0.6965    0.0000 C   0  0  0  0  0  0  0  0  0  0  0  0
    5.8210    0.6965    0.0000 C   0  0  0  0  0  0  0  0  0  0  0  0
   16.2621   -1.6511    0.0000 C   0  0  0  0  0  0  0  0  0  0  0  0
    5.5230    1.6511    0.0000 C   0  0  0  0  0  0  0  0  0  0  0  0
   17.2378   -1.8703    0.0000 C   0  0  0  0  0  0  0  0  0  0  0  0
    4.5474    1.8703    0.0000 C   0  0  0  0  0  0  0  0  0  0  0  0
   15.5844   -2.3864    0.0000 C   0  0  0  0  0  0  0  0  0  0  0  0
    6.2007    2.3864    0.0000 C   0  0  0  0  0  0  0  0  0  0  0  0
    4.7424   -1.7748    0.0000 C   0  0  0  0  0  0  0  0  0  0  0  0
   17.0427    1.7748    0.0000 C   0  0  0  0  0  0  0  0  0  0  0  0
    4.2494    2.8248    0.0000 C   0  0  0  0  0  0  0  0  0  0  0  0
   17.5358   -2.8248    0.0000 C   0  0  0  0  0  0  0  0  0  0  0  0
    3.2737    3.0440    0.0000 C   0  0  0  0  0  0  0  0  0  0  0  0
   18.5114   -3.0440    0.0000 C   0  0  0  0  0  0  0  0  0  0  0  0
   18.8094   -3.9986    0.0000 C   0  0  0  0  0  0  0  0  0  0  0  0
    2.9757    3.9986    0.0000 C   0  0  0  0  0  0  0  0  0  0  0  0
   19.7851   -4.2178    0.0000 C   0  0  0  0  0  0  0  0  0  0  0  0
   18.1318   -4.7340    0.0000 C   0  0  0  0  0  0  0  0  0  0  0  0
    2.0000    4.2178    0.0000 C   0  0  0  0  0  0  0  0  0  0  0  0
    3.6534    4.7340    0.0000 C   0  0  0  0  0  0  0  0  0  0  0  0
    8.9191    0.4983    0.0000 H   0  0  0  0  0  0  0  0  0  0  0  0
   12.8660   -0.4983    0.0000 H   0  0  0  0  0  0  0  0  0  0  0  0
   11.8794    3.0327    0.0000 H   0  0  0  0  0  0  0  0  0  0  0  0
    9.9057   -3.0327    0.0000 H   0  0  0  0  0  0  0  0  0  0  0  0
   13.8526    3.0327    0.0000 H   0  0  0  0  0  0  0  0  0  0  0  0
    7.9326   -3.0327    0.0000 H   0  0  0  0  0  0  0  0  0  0  0  0
    7.4116    0.5565    0.0000 H   0  0  0  0  0  0  0  0  0  0  0  0
    6.8255    1.0966    0.0000 H   0  0  0  0  0  0  0  0  0  0  0  0
   14.3735   -0.5565    0.0000 H   0  0  0  0  0  0  0  0  0  0  0  0
   14.9596   -1.0966    0.0000 H   0  0  0  0  0  0  0  0  0  0  0  0
   15.4845    2.6990    0.0000 H   0  0  0  0  0  0  0  0  0  0  0  0
    6.3006   -2.6990    0.0000 H   0  0  0  0  0  0  0  0  0  0  0  0
   11.3285   -3.3954    0.0000 H   0  0  0  0  0  0  0  0  0  0  0  0
   12.2040   -3.4447    0.0000 H   0  0  0  0  0  0  0  0  0  0  0  0
   12.2532   -2.5693    0.0000 H   0  0  0  0  0  0  0  0  0  0  0  0
   10.4566    3.3954    0.0000 H   0  0  0  0  0  0  0  0  0  0  0  0
    9.5812    3.4447    0.0000 H   0  0  0  0  0  0  0  0  0  0  0  0
    9.5319    2.5693    0.0000 H   0  0  0  0  0  0  0  0  0  0  0  0
    5.4009    0.2406    0.0000 H   0  0  0  0  0  0  0  0  0  0  0  0
   16.3842   -0.2406    0.0000 H   0  0  0  0  0  0  0  0  0  0  0  0
    8.9446    1.4934    0.0000 H   0  0  0  0  0  0  0  0  0  0  0  0
   12.8405   -1.4934    0.0000 H   0  0  0  0  0  0  0  0  0  0  0  0
   17.8527   -1.7911    0.0000 H   0  0  0  0  0  0  0  0  0  0  0  0
   17.2666   -1.2509    0.0000 H   0  0  0  0  0  0  0  0  0  0  0  0
    3.9324    1.7911    0.0000 H   0  0  0  0  0  0  0  0  0  0  0  0
    4.5186    1.2509    0.0000 H   0  0  0  0  0  0  0  0  0  0  0  0
   15.1285   -1.9662    0.0000 H   0  0  0  0  0  0  0  0  0  0  0  0
   15.1642   -2.8423    0.0000 H   0  0  0  0  0  0  0  0  0  0  0  0
   16.0403   -2.8066    0.0000 H   0  0  0  0  0  0  0  0  0  0  0  0
    6.6566    1.9662    0.0000 H   0  0  0  0  0  0  0  0  0  0  0  0
    6.6209    2.8423    0.0000 H   0  0  0  0  0  0  0  0  0  0  0  0
    5.7448    2.8066    0.0000 H   0  0  0  0  0  0  0  0  0  0  0  0
   17.5018    1.3582    0.0000 H   0  0  0  0  0  0  0  0  0  0  0  0
   17.4593    2.2340    0.0000 H   0  0  0  0  0  0  0  0  0  0  0  0
   16.5835    2.1915    0.0000 H   0  0  0  0  0  0  0  0  0  0  0  0
    4.2833   -1.3582    0.0000 H   0  0  0  0  0  0  0  0  0  0  0  0
    4.3258   -2.2340    0.0000 H   0  0  0  0  0  0  0  0  0  0  0  0
    5.2016   -2.1915    0.0000 H   0  0  0  0  0  0  0  0  0  0  0  0
    4.8643    2.9040    0.0000 H   0  0  0  0  0  0  0  0  0  0  0  0
    4.2782    3.4442    0.0000 H   0  0  0  0  0  0  0  0  0  0  0  0
   16.9208   -2.9040    0.0000 H   0  0  0  0  0  0  0  0  0  0  0  0
   17.5070   -3.4442    0.0000 H   0  0  0  0  0  0  0  0  0  0  0  0
    2.8535    2.5881    0.0000 H   0  0  0  0  0  0  0  0  0  0  0  0
   18.9316   -2.5881    0.0000 H   0  0  0  0  0  0  0  0  0  0  0  0
    4.1093    4.3138    0.0000 H   0  0  0  0  0  0  0  0  0  0  0  0
   19.6492   -4.8227    0.0000 H   0  0  0  0  0  0  0  0  0  0  0  0
    4.0735    5.1899    0.0000 H   0  0  0  0  0  0  0  0  0  0  0  0
    2.1359    4.8227    0.0000 H   0  0  0  0  0  0  0  0  0  0  0  0
    1.3951    4.3537    0.0000 H   0  0  0  0  0  0  0  0  0  0  0  0
    1.8641    3.6129    0.0000 H   0  0  0  0  0  0  0  0  0  0  0  0
   17.6758   -4.3138    0.0000 H   0  0  0  0  0  0  0  0  0  0  0  0
   17.7116   -5.1899    0.0000 H   0  0  0  0  0  0  0  0  0  0  0  0
   18.5877   -5.1541    0.0000 H   0  0  0  0  0  0  0  0  0  0  0  0
   20.3900   -4.3537    0.0000 H   0  0  0  0  0  0  0  0  0  0  0  0
    3.1974    5.1541    0.0000 H   0  0  0  0  0  0  0  0  0  0  0  0
   19.9210   -3.6129    0.0000 H   0  0  0  0  0  0  0  0  0  0  0  0
  1 17  1  0  0  0  0
  1 76  1  0  0  0  0
  2 18  1  0  0  0  0
  2 75  1  0  0  0  0
  3 29  1  0  0  0  0
  3 43  1  0  0  0  0
  4 30  1  0  0  0  0
  4 44  1  0  0  0  0
  5 10  1  0  0  0  0
  5 16  1  0  0  0  0
  5 55  1  0  0  0  0
  6  9  1  0  0  0  0
  6 15  1  0  0  0  0
  6 56  1  0  0  0  0
  7  8  1  0  0  0  0
  7 10  1  0  0  0  0
  7 17  2  0  0  0  0
  8  9  1  0  0  0  0
  8 18  2  0  0  0  0
  9 11  2  0  0  0  0
 10 12  2  0  0  0  0
 11 14  1  0  0  0  0
 11 21  1  0  0  0  0
 12 13  1  0  0  0  0
 12 22  1  0  0  0  0
 13 16  2  0  0  0  0
 13 26  1  0  0  0  0
 14 15  2  0  0  0  0
 14 25  1  0  0  0  0
 15 20  1  0  0  0  0
 16 19  1  0  0  0  0
 17 23  1  0  0  0  0
 18 24  1  0  0  0  0
 19 28  1  0  0  0  0
 19 29  2  0  0  0  0
 20 27  1  0  0  0  0
 20 30  2  0  0  0  0
 21 24  2  0  0  0  0
 21 57  1  0  0  0  0
 22 23  2  0  0  0  0
 22 58  1  0  0  0  0
 23 34  1  0  0  0  0
 24 33  1  0  0  0  0
 25 31  2  0  0  0  0
 25 59  1  0  0  0  0
 26 32  2  0  0  0  0
 26 60  1  0  0  0  0
 27 35  1  0  0  0  0
 27 63  1  0  0  0  0
 27 64  1  0  0  0  0
 28 36  1  0  0  0  0
 28 61  1  0  0  0  0
 28 62  1  0  0  0  0
 29 32  1  0  0  0  0
 30 31  1  0  0  0  0
 31 65  1  0  0  0  0
 32 66  1  0  0  0  0
 33 70  1  0  0  0  0
 33 71  1  0  0  0  0
 33 72  1  0  0  0  0
 34 67  1  0  0  0  0
 34 68  1  0  0  0  0
 34 69  1  0  0  0  0
 35 37  2  0  0  0  0
 35 74  1  0  0  0  0
 36 38  2  0  0  0  0
 36 73  1  0  0  0  0
 37 39  1  0  0  0  0
 37 41  1  0  0  0  0
 38 40  1  0  0  0  0
 38 42  1  0  0  0  0
 39 46  1  0  0  0  0
 39 77  1  0  0  0  0
 39 78  1  0  0  0  0
 40 45  1  0  0  0  0
 40 79  1  0  0  0  0
 40 80  1  0  0  0  0
 41 81  1  0  0  0  0
 41 82  1  0  0  0  0
 41 83  1  0  0  0  0
 42 84  1  0  0  0  0
 42 85  1  0  0  0  0
 42 86  1  0  0  0  0
 43 90  1  0  0  0  0
 43 91  1  0  0  0  0
 43 92  1  0  0  0  0
 44 87  1  0  0  0  0
 44 88  1  0  0  0  0
 44 89  1  0  0  0  0
 45 47  1  0  0  0  0
 45 93  1  0  0  0  0
 45 94  1  0  0  0  0
 46 48  1  0  0  0  0
 46 95  1  0  0  0  0
 46 96  1  0  0  0  0
 47 50  2  0  0  0  0
 47 97  1  0  0  0  0
 48 49  2  0  0  0  0
 48 98  1  0  0  0  0
 49 51  1  0  0  0  0
 49 52  1  0  0  0  0
 50 53  1  0  0  0  0
 50 54  1  0  0  0  0
 51100  1  0  0  0  0
 51108  1  0  0  0  0
 51110  1  0  0  0  0
 52105  1  0  0  0  0
 52106  1  0  0  0  0
 52107  1  0  0  0  0
 53102  1  0  0  0  0
 53103  1  0  0  0  0
 53104  1  0  0  0  0
 54 99  1  0  0  0  0
 54101  1  0  0  0  0
 54109  1  0  0  0  0
M  END
>  <PUBCHEM_COMPOUND_CID>
101150699

>  <PUBCHEM_COMPOUND_CANONICALIZED>
1

>  <PUBCHEM_CACTVS_COMPLEXITY>
1260

>  <PUBCHEM_CACTVS_HBOND_ACCEPTOR>
4

>  <PUBCHEM_CACTVS_HBOND_DONOR>
4

>  <PUBCHEM_CACTVS_ROTATABLE_BOND>
13

>  <PUBCHEM_CACTVS_SUBSKEYS>
AAADcfB/OAAAAAAAAAAAAAAAAAAAAWLAAAAwYMGAAAAAAFgB/gAAHgAQCAAADAyBngIyxvLJlgCgAyRiRACCiCAhICAImSAmTJgMJuLGsZuEcChmwBnI+Afw0PMOqAACAgAKAABQAAQEABQAAAAAAAAAAA==

>  <PUBCHEM_IUPAC_OPENEYE_NAME>
8-[(2E)-3,7-dimethylocta-2,6-dienyl]-1-[8-[(2E)-3,7-dimethylocta-2,6-dienyl]-2-hydroxy-7-methoxy-3-methyl-9H-carbazol-1-yl]-7-methoxy-3-methyl-9H-carbazol-2-ol

>  <PUBCHEM_IUPAC_CAS_NAME>
8-[(2E)-3,7-dimethylocta-2,6-dienyl]-1-[8-[(2E)-3,7-dimethylocta-2,6-dienyl]-2-hydroxy-7-methoxy-3-methyl-9H-carbazol-1-yl]-7-methoxy-3-methyl-9H-carbazol-2-ol

>  <PUBCHEM_IUPAC_NAME>
8-[(2E)-3,7-dimethylocta-2,6-dienyl]-1-[8-[(2E)-3,7-dimethylocta-2,6-dienyl]-2-hydroxy-7-methoxy-3-methyl-9H-carbazol-1-yl]-7-methoxy-3-methyl-9H-carbazol-2-ol

>  <PUBCHEM_IUPAC_SYSTEMATIC_NAME>
8-[(2E)-3,7-dimethylocta-2,6-dienyl]-1-[8-[(2E)-3,7-dimethylocta-2,6-dienyl]-7-methoxy-3-methyl-2-oxidanyl-9H-carbazol-1-yl]-7-methoxy-3-methyl-9H-carbazol-2-ol

>  <PUBCHEM_IUPAC_TRADITIONAL_NAME>
8-[(2E)-3,7-dimethylocta-2,6-dienyl]-1-[8-[(2E)-3,7-dimethylocta-2,6-dienyl]-2-hydroxy-7-methoxy-3-methyl-9H-carbazol-1-yl]-7-methoxy-3-methyl-9H-carbazol-2-ol

>  <PUBCHEM_IUPAC_INCHI>
InChI=1S/C48H56N2O4/c1-27(2)13-11-15-29(5)17-19-35-39(53-9)23-21-33-37-25-31(7)47(51)41(45(37)49-43(33)35)42-46-38(26-32(8)48(42)52)34-22-24-40(54-10)36(44(34)50-46)20-18-30(6)16-12-14-28(3)4/h13-14,17-18,21-26,49-52H,11-12,15-16,19-20H2,1-10H3/b29-17+,30-18+

>  <PUBCHEM_IUPAC_INCHIKEY>
OUSUKIXJVMBEMB-YAGSLNJISA-N

>  <PUBCHEM_XLOGP3_AA>
14

>  <PUBCHEM_EXACT_MASS>
724.424

>  <PUBCHEM_MOLECULAR_FORMULA>
C48H56N2O4

>  <PUBCHEM_MOLECULAR_WEIGHT>
724.986

>  <PUBCHEM_OPENEYE_CAN_SMILES>
CC1=C(C(=C2C(=C1)C3=C(N2)C(=C(C=C3)OC)CC=C(C)CCC=C(C)C)C4=C5C(=CC(=C4O)C)C6=C(N5)C(=C(C=C6)OC)CC=C(C)CCC=C(C)C)O

>  <PUBCHEM_OPENEYE_ISO_SMILES>
CC1=C(C(=C2NC3=C(C2=C1)C=CC(=C3C/C=C(/CCC=C(C)C)\C)OC)C4=C5NC6=C(C5=CC(=C4O)C)C=CC(=C6C/C=C(/CCC=C(C)C)\C)OC)O

>  <PUBCHEM_CACTVS_TPSA>
90.5

>  <PUBCHEM_MONOISOTOPIC_WEIGHT>
724.424

>  <PUBCHEM_TOTAL_CHARGE>
0

>  <PUBCHEM_HEAVY_ATOM_COUNT>
54

>  <PUBCHEM_ATOM_DEF_STEREO_COUNT>
0

>  <PUBCHEM_ATOM_UDEF_STEREO_COUNT>
0

>  <PUBCHEM_BOND_DEF_STEREO_COUNT>
2

>  <PUBCHEM_BOND_UDEF_STEREO_COUNT>
0

>  <PUBCHEM_ISOTOPIC_ATOM_COUNT>
0

>  <PUBCHEM_COMPONENT_COUNT>
1

>  <PUBCHEM_CACTVS_TAUTO_COUNT>
992

>  <PUBCHEM_COORDINATE_TYPE>
1
5
255

>  <PUBCHEM_BONDANNOTATIONS>
10  12  8
11  14  8
11  21  8
12  13  8
12  22  8
13  16  8
13  26  8
14  15  8
14  25  8
15  20  8
16  19  8
17  23  8
18  24  8
19  29  8
20  30  8
21  24  8
22  23  8
25  31  8
26  32  8
29  32  8
30  31  8
5  10  8
5  16  8
6  15  8
6  9  8
7  10  8
7  17  8
8  18  8
8  9  8
9  11  8

$$$$
