10127573
 OpenBabel06101807152D

 83 84  0  0  0  0  0  0  0  0999 V2000
    7.9244   -4.1688    0.0000 O   0  0  0  0  0  0  0  0  0  0  0  0
    6.2781   -3.6307    0.0000 N   0  0  0  0  0  0  0  0  0  0  0  0
    4.6783   -7.3474    0.0000 N   0  0  0  0  0  0  0  0  0  0  0  0
   12.7239    2.1530    0.0000 C   0  0  0  0  0  0  0  0  0  0  0  0
   13.7024    2.3592    0.0000 C   0  0  0  0  0  0  0  0  0  0  0  0
   12.4133    1.2025    0.0000 C   0  0  0  0  0  0  0  0  0  0  0  0
   14.0131    3.3098    0.0000 C   0  0  0  0  0  0  0  0  0  0  0  0
   11.4348    0.9963    0.0000 C   0  0  0  0  0  0  0  0  0  0  0  0
   14.9916    3.5160    0.0000 C   0  0  0  0  0  0  0  0  0  0  0  0
   11.1241    0.0458    0.0000 C   0  0  0  0  0  0  0  0  0  0  0  0
   15.3023    4.4665    0.0000 C   0  0  0  0  0  0  0  0  0  0  0  0
   10.1456   -0.1605    0.0000 C   0  0  0  0  0  0  0  0  0  0  0  0
   16.2808    4.6727    0.0000 C   0  0  0  0  0  0  0  0  0  0  0  0
    9.8349   -1.1110    0.0000 C   0  0  0  0  0  0  0  0  0  0  0  0
   16.5914    5.6232    0.0000 C   0  0  0  0  0  0  0  0  0  0  0  0
    8.8564   -1.3172    0.0000 C   0  0  0  0  0  0  0  0  0  0  0  0
   17.5700    5.8295    0.0000 C   0  0  0  0  0  0  0  0  0  0  0  0
    8.5458   -2.2677    0.0000 C   0  0  0  0  0  0  0  0  0  0  0  0
   17.8806    6.7800    0.0000 C   0  0  0  0  0  0  0  0  0  0  0  0
    7.5673   -2.4739    0.0000 C   0  0  0  0  0  0  0  0  0  0  0  0
   18.8591    6.9862    0.0000 C   0  0  0  0  0  0  0  0  0  0  0  0
    7.2566   -3.4244    0.0000 C   0  0  0  0  0  0  0  0  0  0  0  0
   19.1698    7.9367    0.0000 C   0  0  0  0  0  0  0  0  0  0  0  0
    5.9674   -4.5812    0.0000 C   0  0  0  0  0  0  0  0  0  0  0  0
    4.9889   -4.7874    0.0000 C   0  0  0  0  0  0  0  0  0  0  0  0
    4.6783   -5.7379    0.0000 C   0  0  0  0  0  0  0  0  0  0  0  0
    3.7320   -6.0427    0.0000 C   0  0  0  0  0  0  0  0  0  0  0  0
    3.7320   -7.0427    0.0000 C   0  0  0  0  0  0  0  0  0  0  0  0
    5.2619   -6.5427    0.0000 C   0  0  0  0  0  0  0  0  0  0  0  0
    2.8660   -5.5427    0.0000 C   0  0  0  0  0  0  0  0  0  0  0  0
    2.8660   -7.5427    0.0000 C   0  0  0  0  0  0  0  0  0  0  0  0
    2.0000   -6.0427    0.0000 C   0  0  0  0  0  0  0  0  0  0  0  0
    2.0000   -7.0427    0.0000 C   0  0  0  0  0  0  0  0  0  0  0  0
   12.7034    2.7727    0.0000 H   0  0  0  0  0  0  0  0  0  0  0  0
   12.1101    2.2404    0.0000 H   0  0  0  0  0  0  0  0  0  0  0  0
   13.7230    1.7396    0.0000 H   0  0  0  0  0  0  0  0  0  0  0  0
   14.3163    2.2719    0.0000 H   0  0  0  0  0  0  0  0  0  0  0  0
   12.4338    0.5828    0.0000 H   0  0  0  0  0  0  0  0  0  0  0  0
   13.0271    1.1152    0.0000 H   0  0  0  0  0  0  0  0  0  0  0  0
   13.9925    3.9294    0.0000 H   0  0  0  0  0  0  0  0  0  0  0  0
   13.3993    3.3971    0.0000 H   0  0  0  0  0  0  0  0  0  0  0  0
   11.4142    1.6159    0.0000 H   0  0  0  0  0  0  0  0  0  0  0  0
   10.8210    1.0836    0.0000 H   0  0  0  0  0  0  0  0  0  0  0  0
   15.0122    2.8963    0.0000 H   0  0  0  0  0  0  0  0  0  0  0  0
   15.6054    3.4286    0.0000 H   0  0  0  0  0  0  0  0  0  0  0  0
   11.1447   -0.5739    0.0000 H   0  0  0  0  0  0  0  0  0  0  0  0
   11.7379   -0.0416    0.0000 H   0  0  0  0  0  0  0  0  0  0  0  0
   15.2817    5.0862    0.0000 H   0  0  0  0  0  0  0  0  0  0  0  0
   14.6885    4.5538    0.0000 H   0  0  0  0  0  0  0  0  0  0  0  0
   10.1250    0.4592    0.0000 H   0  0  0  0  0  0  0  0  0  0  0  0
    9.5318   -0.0731    0.0000 H   0  0  0  0  0  0  0  0  0  0  0  0
   16.3013    4.0531    0.0000 H   0  0  0  0  0  0  0  0  0  0  0  0
   16.8946    4.5854    0.0000 H   0  0  0  0  0  0  0  0  0  0  0  0
    9.8555   -1.7306    0.0000 H   0  0  0  0  0  0  0  0  0  0  0  0
   10.4488   -1.1983    0.0000 H   0  0  0  0  0  0  0  0  0  0  0  0
   16.5709    6.2429    0.0000 H   0  0  0  0  0  0  0  0  0  0  0  0
   15.9776    5.7106    0.0000 H   0  0  0  0  0  0  0  0  0  0  0  0
    8.8359   -0.6975    0.0000 H   0  0  0  0  0  0  0  0  0  0  0  0
    8.2426   -1.2298    0.0000 H   0  0  0  0  0  0  0  0  0  0  0  0
   17.5905    5.2098    0.0000 H   0  0  0  0  0  0  0  0  0  0  0  0
   18.1838    5.7421    0.0000 H   0  0  0  0  0  0  0  0  0  0  0  0
    8.5663   -2.8874    0.0000 H   0  0  0  0  0  0  0  0  0  0  0  0
    9.1596   -2.3551    0.0000 H   0  0  0  0  0  0  0  0  0  0  0  0
   17.8601    7.3996    0.0000 H   0  0  0  0  0  0  0  0  0  0  0  0
   17.2668    6.8673    0.0000 H   0  0  0  0  0  0  0  0  0  0  0  0
    7.5467   -1.8543    0.0000 H   0  0  0  0  0  0  0  0  0  0  0  0
    6.9534   -2.3866    0.0000 H   0  0  0  0  0  0  0  0  0  0  0  0
   18.8797    6.3665    0.0000 H   0  0  0  0  0  0  0  0  0  0  0  0
   19.4729    6.8988    0.0000 H   0  0  0  0  0  0  0  0  0  0  0  0
   19.7591    7.7441    0.0000 H   0  0  0  0  0  0  0  0  0  0  0  0
   19.3624    8.5260    0.0000 H   0  0  0  0  0  0  0  0  0  0  0  0
   18.5805    8.1293    0.0000 H   0  0  0  0  0  0  0  0  0  0  0  0
    5.9880   -5.2008    0.0000 H   0  0  0  0  0  0  0  0  0  0  0  0
    6.5812   -4.6685    0.0000 H   0  0  0  0  0  0  0  0  0  0  0  0
    4.9684   -4.1678    0.0000 H   0  0  0  0  0  0  0  0  0  0  0  0
    4.3751   -4.7001    0.0000 H   0  0  0  0  0  0  0  0  0  0  0  0
    5.8640   -3.1692    0.0000 H   0  0  0  0  0  0  0  0  0  0  0  0
    5.8819   -6.5427    0.0000 H   0  0  0  0  0  0  0  0  0  0  0  0
    4.8709   -7.9367    0.0000 H   0  0  0  0  0  0  0  0  0  0  0  0
    2.8660   -4.9227    0.0000 H   0  0  0  0  0  0  0  0  0  0  0  0
    2.8660   -8.1627    0.0000 H   0  0  0  0  0  0  0  0  0  0  0  0
    1.4631   -5.7327    0.0000 H   0  0  0  0  0  0  0  0  0  0  0  0
    1.4631   -7.3527    0.0000 H   0  0  0  0  0  0  0  0  0  0  0  0
  1 22  2  0  0  0  0
  2 22  1  0  0  0  0
  2 24  1  0  0  0  0
  2 77  1  0  0  0  0
  3 28  1  0  0  0  0
  3 29  1  0  0  0  0
  3 79  1  0  0  0  0
  4  5  1  0  0  0  0
  4  6  1  0  0  0  0
  4 34  1  0  0  0  0
  4 35  1  0  0  0  0
  5  7  1  0  0  0  0
  5 36  1  0  0  0  0
  5 37  1  0  0  0  0
  6  8  1  0  0  0  0
  6 38  1  0  0  0  0
  6 39  1  0  0  0  0
  7  9  1  0  0  0  0
  7 40  1  0  0  0  0
  7 41  1  0  0  0  0
  8 10  1  0  0  0  0
  8 42  1  0  0  0  0
  8 43  1  0  0  0  0
  9 11  1  0  0  0  0
  9 44  1  0  0  0  0
  9 45  1  0  0  0  0
 10 12  1  0  0  0  0
 10 46  1  0  0  0  0
 10 47  1  0  0  0  0
 11 13  1  0  0  0  0
 11 48  1  0  0  0  0
 11 49  1  0  0  0  0
 12 14  1  0  0  0  0
 12 50  1  0  0  0  0
 12 51  1  0  0  0  0
 13 15  1  0  0  0  0
 13 52  1  0  0  0  0
 13 53  1  0  0  0  0
 14 16  1  0  0  0  0
 14 54  1  0  0  0  0
 14 55  1  0  0  0  0
 15 17  1  0  0  0  0
 15 56  1  0  0  0  0
 15 57  1  0  0  0  0
 16 18  1  0  0  0  0
 16 58  1  0  0  0  0
 16 59  1  0  0  0  0
 17 19  1  0  0  0  0
 17 60  1  0  0  0  0
 17 61  1  0  0  0  0
 18 20  1  0  0  0  0
 18 62  1  0  0  0  0
 18 63  1  0  0  0  0
 19 21  1  0  0  0  0
 19 64  1  0  0  0  0
 19 65  1  0  0  0  0
 20 22  1  0  0  0  0
 20 66  1  0  0  0  0
 20 67  1  0  0  0  0
 21 23  1  0  0  0  0
 21 68  1  0  0  0  0
 21 69  1  0  0  0  0
 23 70  1  0  0  0  0
 23 71  1  0  0  0  0
 23 72  1  0  0  0  0
 24 25  1  0  0  0  0
 24 73  1  0  0  0  0
 24 74  1  0  0  0  0
 25 26  1  0  0  0  0
 25 75  1  0  0  0  0
 25 76  1  0  0  0  0
 26 27  1  0  0  0  0
 26 29  2  0  0  0  0
 27 28  1  0  0  0  0
 27 30  2  0  0  0  0
 28 31  2  0  0  0  0
 29 78  1  0  0  0  0
 30 32  1  0  0  0  0
 30 80  1  0  0  0  0
 31 33  1  0  0  0  0
 31 81  1  0  0  0  0
 32 33  2  0  0  0  0
 32 82  1  0  0  0  0
 33 83  1  0  0  0  0
M  END
>  <PUBCHEM_COMPOUND_CID>
10127573

>  <PUBCHEM_COMPOUND_CANONICALIZED>
1

>  <PUBCHEM_CACTVS_COMPLEXITY>
466

>  <PUBCHEM_CACTVS_HBOND_ACCEPTOR>
1

>  <PUBCHEM_CACTVS_HBOND_DONOR>
2

>  <PUBCHEM_CACTVS_ROTATABLE_BOND>
21

>  <PUBCHEM_CACTVS_SUBSKEYS>
AAADcfB7IAAAAAAAAAAAAAAAAAAAAWAAAAAwAAAAAAAAAFgB8AAAHgAQAAAADAjBngQ+wPLJkACoAzV3VACCgCAxAiAI2aE4ZJgIIPLAkZGEIAhglgDIyAcYiMCOgAAAAAACAAAAAAAAAAQAAAAAAAAAAA==

>  <PUBCHEM_IUPAC_OPENEYE_NAME>
N-[2-(1H-indol-3-yl)ethyl]icosanamide

>  <PUBCHEM_IUPAC_CAS_NAME>
N-[2-(1H-indol-3-yl)ethyl]eicosanamide

>  <PUBCHEM_IUPAC_NAME>
N-[2-(1H-indol-3-yl)ethyl]icosanamide

>  <PUBCHEM_IUPAC_SYSTEMATIC_NAME>
N-[2-(1H-indol-3-yl)ethyl]icosanamide

>  <PUBCHEM_IUPAC_TRADITIONAL_NAME>
N-[2-(1H-indol-3-yl)ethyl]arachidamide

>  <PUBCHEM_IUPAC_INCHI>
InChI=1S/C30H50N2O/c1-2-3-4-5-6-7-8-9-10-11-12-13-14-15-16-17-18-23-30(33)31-25-24-27-26-32-29-22-20-19-21-28(27)29/h19-22,26,32H,2-18,23-25H2,1H3,(H,31,33)

>  <PUBCHEM_IUPAC_INCHIKEY>
PMYMGHIVWFOOOS-UHFFFAOYSA-N

>  <PUBCHEM_XLOGP3>
11.3

>  <PUBCHEM_EXACT_MASS>
454.392

>  <PUBCHEM_MOLECULAR_FORMULA>
C30H50N2O

>  <PUBCHEM_MOLECULAR_WEIGHT>
454.743

>  <PUBCHEM_OPENEYE_CAN_SMILES>
CCCCCCCCCCCCCCCCCCCC(=O)NCCC1=CNC2=CC=CC=C21

>  <PUBCHEM_OPENEYE_ISO_SMILES>
CCCCCCCCCCCCCCCCCCCC(=O)NCCC1=CNC2=CC=CC=C21

>  <PUBCHEM_CACTVS_TPSA>
44.9

>  <PUBCHEM_MONOISOTOPIC_WEIGHT>
454.392

>  <PUBCHEM_TOTAL_CHARGE>
0

>  <PUBCHEM_HEAVY_ATOM_COUNT>
33

>  <PUBCHEM_ATOM_DEF_STEREO_COUNT>
0

>  <PUBCHEM_ATOM_UDEF_STEREO_COUNT>
0

>  <PUBCHEM_BOND_DEF_STEREO_COUNT>
0

>  <PUBCHEM_BOND_UDEF_STEREO_COUNT>
0

>  <PUBCHEM_ISOTOPIC_ATOM_COUNT>
0

>  <PUBCHEM_COMPONENT_COUNT>
1

>  <PUBCHEM_CACTVS_TAUTO_COUNT>
2

>  <PUBCHEM_COORDINATE_TYPE>
1
5
255

>  <PUBCHEM_BONDANNOTATIONS>
26  27  8
26  29  8
27  28  8
27  30  8
28  31  8
3  28  8
3  29  8
30  32  8
31  33  8
32  33  8

$$$$
