101220898
 OpenBabel06101807152D

  5  2  0  0  0  0  0  0  0  0999 V2000
    0.0000    1.2500    0.0000 Ba  0  0  0  0  0 15  0  0  0  0  0  0
    2.5000    0.0000    0.0000 H   0  0  0  0  0  0  0  0  0  0  0  0
    2.5000    2.5000    0.0000 H   0  0  0  0  0  0  0  0  0  0  0  0
    3.5000    0.0000    0.0000 H   0  0  0  0  0  0  0  0  0  0  0  0
    3.5000    2.5000    0.0000 H   0  0  0  0  0  0  0  0  0  0  0  0
  2  4  1  0  0  0  0
  3  5  1  0  0  0  0
M  END
>  <PUBCHEM_COMPOUND_CID>
101220898

>  <PUBCHEM_COMPOUND_CANONICALIZED>
1

>  <PUBCHEM_CACTVS_COMPLEXITY>
0

>  <PUBCHEM_CACTVS_HBOND_ACCEPTOR>
0

>  <PUBCHEM_CACTVS_HBOND_DONOR>
0

>  <PUBCHEM_CACTVS_ROTATABLE_BOND>
0

>  <PUBCHEM_CACTVS_SUBSKEYS>
AAADcYAAAAAAAAAAAAAEAAAAAAAAAAAAAAAAAAAAAAAAAAAAAAAAAAAAAAAAAAAAAAAAAAAAAAAAAAAAAAAAAAAAAAAAAAAAAAAAAAAAAAAAAAAAAAAAAAAAAAAAAAAAAAAAAAAAAAAAAAAAAAAAAAAAAA==

>  <PUBCHEM_IUPAC_OPENEYE_NAME>
barium;molecular hydrogen

>  <PUBCHEM_IUPAC_CAS_NAME>
barium;molecular hydrogen

>  <PUBCHEM_IUPAC_NAME>
barium;molecular hydrogen

>  <PUBCHEM_IUPAC_SYSTEMATIC_NAME>
barium;molecular hydrogen

>  <PUBCHEM_IUPAC_TRADITIONAL_NAME>
barium;molecular hydrogen

>  <PUBCHEM_IUPAC_INCHI>
InChI=1S/Ba.2H2/h;2*1H

>  <PUBCHEM_IUPAC_INCHIKEY>
RFECAIFQWINRDX-UHFFFAOYSA-N

>  <PUBCHEM_EXACT_MASS>
141.937

>  <PUBCHEM_MOLECULAR_FORMULA>
BaH4

>  <PUBCHEM_MOLECULAR_WEIGHT>
141.359

>  <PUBCHEM_OPENEYE_CAN_SMILES>
[HH].[HH].[Ba]

>  <PUBCHEM_OPENEYE_ISO_SMILES>
[HH].[HH].[Ba]

>  <PUBCHEM_CACTVS_TPSA>
0

>  <PUBCHEM_MONOISOTOPIC_WEIGHT>
141.937

>  <PUBCHEM_TOTAL_CHARGE>
0

>  <PUBCHEM_HEAVY_ATOM_COUNT>
1

>  <PUBCHEM_ATOM_DEF_STEREO_COUNT>
0

>  <PUBCHEM_ATOM_UDEF_STEREO_COUNT>
0

>  <PUBCHEM_BOND_DEF_STEREO_COUNT>
0

>  <PUBCHEM_BOND_UDEF_STEREO_COUNT>
0

>  <PUBCHEM_ISOTOPIC_ATOM_COUNT>
0

>  <PUBCHEM_COMPONENT_COUNT>
3

>  <PUBCHEM_CACTVS_TAUTO_COUNT>
1

>  <PUBCHEM_COORDINATE_TYPE>
1
5
255

$$$$
