101209468
 OpenBabel06101807152D

 63 66  0  0  1  0  0  0  0  0999 V2000
    9.4651   -1.2857    0.0000 O   0  0  0  0  0  0  0  0  0  0  0  0
   11.1972   -1.2857    0.0000 O   0  0  0  0  0  0  0  0  0  0  0  0
    7.7331   -3.2857    0.0000 O   0  0  0  0  0  0  0  0  0  0  0  0
    9.4651   -4.2857    0.0000 O   0  0  0  0  0  0  0  0  0  0  0  0
   11.1972   -3.2857    0.0000 O   0  0  0  0  0  0  0  0  0  0  0  0
    6.8671   -1.7857    0.0000 O   0  0  0  0  0  0  0  0  0  0  0  0
   12.0632    1.2143    0.0000 O   0  3  0  0  0  0  0  0  0  0  0  0
    6.0010   -0.2857    0.0000 O   0  0  0  0  0  0  0  0  0  0  0  0
    8.5610    1.2112    0.0000 O   0  0  0  0  0  0  0  0  0  0  0  0
   10.3191    4.2836    0.0000 O   0  0  0  0  0  0  0  0  0  0  0  0
   15.5273   -1.7857    0.0000 O   0  0  0  0  0  0  0  0  0  0  0  0
    2.5369   -1.2857    0.0000 O   0  0  0  0  0  0  0  0  0  0  0  0
    3.4030   -2.7857    0.0000 O   0  0  0  0  0  0  0  0  0  0  0  0
    8.5991   -2.7857    0.0000 C   0  0  1  0  0  0  0  0  0  0  0  0
    9.4651   -3.2857    0.0000 C   0  0  1  0  0  0  0  0  0  0  0  0
    8.5991   -1.7857    0.0000 C   0  0  1  0  0  0  0  0  0  0  0  0
   10.3312   -2.7857    0.0000 C   0  0  2  0  0  0  0  0  0  0  0  0
   10.3312   -1.7857    0.0000 C   0  0  1  0  0  0  0  0  0  0  0  0
    7.7331   -1.2857    0.0000 C   0  0  0  0  0  0  0  0  0  0  0  0
   11.1972   -0.2857    0.0000 C   0  0  0  0  0  0  0  0  0  0  0  0
   12.0632    0.2143    0.0000 C   0  0  0  0  0  0  0  0  0  0  0  0
   10.3312    0.2143    0.0000 C   0  0  0  0  0  0  0  0  0  0  0  0
    6.0010   -1.2857    0.0000 C   0  0  0  0  0  0  0  0  0  0  0  0
   10.3312    1.2143    0.0000 C   0  0  0  0  0  0  0  0  0  0  0  0
   11.1972    1.7143    0.0000 C   0  0  0  0  0  0  0  0  0  0  0  0
   12.9292   -0.2857    0.0000 C   0  0  0  0  0  0  0  0  0  0  0  0
    5.1350   -1.7857    0.0000 C   0  0  0  0  0  0  0  0  0  0  0  0
    9.4212    1.7212    0.0000 C   0  0  0  0  0  0  0  0  0  0  0  0
   11.2132    2.7558    0.0000 C   0  0  0  0  0  0  0  0  0  0  0  0
    4.2690   -1.2857    0.0000 C   0  0  0  0  0  0  0  0  0  0  0  0
   12.9292   -1.2857    0.0000 C   0  0  0  0  0  0  0  0  0  0  0  0
   13.7953    0.2143    0.0000 C   0  0  0  0  0  0  0  0  0  0  0  0
    9.4131    2.7628    0.0000 C   0  0  0  0  0  0  0  0  0  0  0  0
   10.3152    3.2836    0.0000 C   0  0  0  0  0  0  0  0  0  0  0  0
   13.7953   -1.7857    0.0000 C   0  0  0  0  0  0  0  0  0  0  0  0
   14.6613   -0.2857    0.0000 C   0  0  0  0  0  0  0  0  0  0  0  0
   14.6613   -1.2857    0.0000 C   0  0  0  0  0  0  0  0  0  0  0  0
    3.4030   -1.7857    0.0000 C   0  0  0  0  0  0  0  0  0  0  0  0
    8.5991   -3.4057    0.0000 H   0  0  0  0  0  0  0  0  0  0  0  0
   10.0021   -3.5957    0.0000 H   0  0  0  0  0  0  0  0  0  0  0  0
    8.5991   -1.1657    0.0000 H   0  0  0  0  0  0  0  0  0  0  0  0
   10.8681   -2.4757    0.0000 H   0  0  0  0  0  0  0  0  0  0  0  0
   10.3312   -1.1657    0.0000 H   0  0  0  0  0  0  0  0  0  0  0  0
    8.1316   -0.8107    0.0000 H   0  0  0  0  0  0  0  0  0  0  0  0
    7.3346   -0.8107    0.0000 H   0  0  0  0  0  0  0  0  0  0  0  0
    7.7331   -3.9057    0.0000 H   0  0  0  0  0  0  0  0  0  0  0  0
    8.9282   -4.5957    0.0000 H   0  0  0  0  0  0  0  0  0  0  0  0
   11.1972   -3.9057    0.0000 H   0  0  0  0  0  0  0  0  0  0  0  0
    9.7942   -0.0957    0.0000 H   0  0  0  0  0  0  0  0  0  0  0  0
    4.7365   -2.2606    0.0000 H   0  0  0  0  0  0  0  0  0  0  0  0
    5.5335   -2.2606    0.0000 H   0  0  0  0  0  0  0  0  0  0  0  0
   11.7537    3.0596    0.0000 H   0  0  0  0  0  0  0  0  0  0  0  0
    4.6675   -0.8107    0.0000 H   0  0  0  0  0  0  0  0  0  0  0  0
    3.8705   -0.8107    0.0000 H   0  0  0  0  0  0  0  0  0  0  0  0
   12.3923   -1.5957    0.0000 H   0  0  0  0  0  0  0  0  0  0  0  0
   13.7953    0.8343    0.0000 H   0  0  0  0  0  0  0  0  0  0  0  0
    8.8750    3.0707    0.0000 H   0  0  0  0  0  0  0  0  0  0  0  0
   13.7953   -2.4057    0.0000 H   0  0  0  0  0  0  0  0  0  0  0  0
   15.1982    0.0243    0.0000 H   0  0  0  0  0  0  0  0  0  0  0  0
    8.0205    1.5150    0.0000 H   0  0  0  0  0  0  0  0  0  0  0  0
    9.7833    4.5957    0.0000 H   0  0  0  0  0  0  0  0  0  0  0  0
   16.0643   -1.4757    0.0000 H   0  0  0  0  0  0  0  0  0  0  0  0
    2.0000   -1.5957    0.0000 H   0  0  0  0  0  0  0  0  0  0  0  0
  1 16  1  0  0  0  0
  1 18  1  0  0  0  0
  2 20  1  0  0  0  0
  3 46  1  0  0  0  0
  4 47  1  0  0  0  0
  5 48  1  0  0  0  0
  6 19  1  0  0  0  0
  6 23  1  0  0  0  0
  7 21  2  0  0  0  0
  7 25  1  0  0  0  0
  8 23  2  0  0  0  0
  9 28  1  0  0  0  0
  9 60  1  0  0  0  0
 10 34  1  0  0  0  0
 10 61  1  0  0  0  0
 11 37  1  0  0  0  0
 11 62  1  0  0  0  0
 12 38  1  0  0  0  0
 12 63  1  0  0  0  0
 13 38  2  0  0  0  0
 14  3  1  0  0  0  0
 14 15  1  6  0  0  0
 14 39  1  0  0  0  0
 15  4  1  0  0  0  0
 15 17  1  1  0  0  0
 15 40  1  0  0  0  0
 16 14  1  6  0  0  0
 16 19  1  0  0  0  0
 16 41  1  0  0  0  0
 17  5  1  0  0  0  0
 17 18  1  6  0  0  0
 17 42  1  0  0  0  0
 18  2  1  0  0  0  0
 18 43  1  6  0  0  0
 19 44  1  0  0  0  0
 19 45  1  0  0  0  0
 20 21  1  0  0  0  0
 20 22  2  0  0  0  0
 21 26  1  0  0  0  0
 22 24  1  0  0  0  0
 22 49  1  0  0  0  0
 23 27  1  0  0  0  0
 24 25  1  0  0  0  0
 24 28  2  0  0  0  0
 25 29  2  0  0  0  0
 26 31  2  0  0  0  0
 26 32  1  0  0  0  0
 27 30  1  0  0  0  0
 27 50  1  0  0  0  0
 27 51  1  0  0  0  0
 28 33  1  0  0  0  0
 29 34  1  0  0  0  0
 29 52  1  0  0  0  0
 30 38  1  0  0  0  0
 30 53  1  0  0  0  0
 30 54  1  0  0  0  0
 31 35  1  0  0  0  0
 31 55  1  0  0  0  0
 32 36  2  0  0  0  0
 32 56  1  0  0  0  0
 33 34  2  0  0  0  0
 33 57  1  0  0  0  0
 35 37  2  0  0  0  0
 35 58  1  0  0  0  0
 36 37  1  0  0  0  0
 36 59  1  0  0  0  0
M  CHG  1   7   1
M  END
>  <PUBCHEM_COMPOUND_CID>
101209468

>  <PUBCHEM_COMPOUND_CANONICALIZED>
1

>  <PUBCHEM_CACTVS_COMPLEXITY>
802

>  <PUBCHEM_CACTVS_HBOND_ACCEPTOR>
12

>  <PUBCHEM_CACTVS_HBOND_DONOR>
7

>  <PUBCHEM_CACTVS_ROTATABLE_BOND>
9

>  <PUBCHEM_CACTVS_SUBSKEYS>
AAADceB4PAAAAAAAAAAAAAAAAAAAAAAAAAA0aIEAAAAAAACR9AAAGgAACAAADBSwmAMwDsAABkCIAqDSCAICCAAkIAAIiAFGiMgdNzaGNR6ieWKl4BUPuYfL7OzOIAAACAAIAABAAAAQABAAAAAAAAAAAA==

>  <PUBCHEM_IUPAC_OPENEYE_NAME>
4-[[(2R,3S,4S,5R,6S)-6-[5,7-dihydroxy-2-(4-hydroxyphenyl)chromenylium-3-yl]oxy-3,4,5-trihydroxy-tetrahydropyran-2-yl]methoxy]-4-oxo-butanoic acid

>  <PUBCHEM_IUPAC_CAS_NAME>
4-[[(2R,3S,4S,5R,6S)-6-[[5,7-dihydroxy-2-(4-hydroxyphenyl)-1-benzopyrylium-3-yl]oxy]-3,4,5-trihydroxy-2-oxanyl]methoxy]-4-oxobutanoic acid

>  <PUBCHEM_IUPAC_NAME>
4-[[(2R,3S,4S,5R,6S)-6-[5,7-dihydroxy-2-(4-hydroxyphenyl)chromenylium-3-yl]oxy-3,4,5-trihydroxyoxan-2-yl]methoxy]-4-oxobutanoic acid

>  <PUBCHEM_IUPAC_SYSTEMATIC_NAME>
4-[[(2R,3S,4S,5R,6S)-6-[2-(4-hydroxyphenyl)-5,7-bis(oxidanyl)chromenylium-3-yl]oxy-3,4,5-tris(oxidanyl)oxan-2-yl]methoxy]-4-oxidanylidene-butanoic acid

>  <PUBCHEM_IUPAC_TRADITIONAL_NAME>
4-[[(2R,3S,4S,5R,6S)-6-[[5,7-dihydroxy-2-(4-hydroxyphenyl)-1-benzopyrylium-3-yl]oxy]-3,4,5-trihydroxy-tetrahydropyran-2-yl]methoxy]-4-keto-butyric acid

>  <PUBCHEM_IUPAC_INCHI>
InChI=1S/C25H24O13/c26-12-3-1-11(2-4-12)24-17(9-14-15(28)7-13(27)8-16(14)36-24)37-25-23(34)22(33)21(32)18(38-25)10-35-20(31)6-5-19(29)30/h1-4,7-9,18,21-23,25,32-34H,5-6,10H2,(H3-,26,27,28,29,30)/p+1/t18-,21-,22+,23-,25-/m1/s1

>  <PUBCHEM_IUPAC_INCHIKEY>
UBUSYXLSGMWUJJ-WVXUANQFSA-O

>  <PUBCHEM_EXACT_MASS>
533.13

>  <PUBCHEM_MOLECULAR_FORMULA>
C25H25O13+

>  <PUBCHEM_MOLECULAR_WEIGHT>
533.462

>  <PUBCHEM_OPENEYE_CAN_SMILES>
C1=CC(=CC=C1C2=C(C=C3C(=CC(=CC3=[O+]2)O)O)OC4C(C(C(C(O4)COC(=O)CCC(=O)O)O)O)O)O

>  <PUBCHEM_OPENEYE_ISO_SMILES>
C1=CC(=CC=C1C2=C(C=C3C(=CC(=CC3=[O+]2)O)O)O[C@H]4[C@@H]([C@H]([C@@H]([C@H](O4)COC(=O)CCC(=O)O)O)O)O)O

>  <PUBCHEM_CACTVS_TPSA>
204

>  <PUBCHEM_MONOISOTOPIC_WEIGHT>
533.13

>  <PUBCHEM_TOTAL_CHARGE>
1

>  <PUBCHEM_HEAVY_ATOM_COUNT>
38

>  <PUBCHEM_ATOM_DEF_STEREO_COUNT>
5

>  <PUBCHEM_ATOM_UDEF_STEREO_COUNT>
0

>  <PUBCHEM_BOND_DEF_STEREO_COUNT>
0

>  <PUBCHEM_BOND_UDEF_STEREO_COUNT>
0

>  <PUBCHEM_ISOTOPIC_ATOM_COUNT>
0

>  <PUBCHEM_COMPONENT_COUNT>
1

>  <PUBCHEM_CACTVS_TAUTO_COUNT>
212

>  <PUBCHEM_COORDINATE_TYPE>
1
5
255

>  <PUBCHEM_BONDANNOTATIONS>
16  19  5
18  2  5
20  21  8
20  22  8
22  24  8
24  25  8
24  28  8
25  29  8
26  31  8
26  32  8
28  33  8
29  34  8
14  3  6
31  35  8
32  36  8
33  34  8
35  37  8
36  37  8
15  4  5
17  5  6
7  21  8
7  25  8

$$$$
