101280927
 OpenBabel06101807152D

 40 44  0  0  1  0  0  0  0  0999 V2000
    9.3729   -2.7759    0.0000 O   0  0  0  0  0  0  0  0  0  0  0  0
   10.8248   -1.9377    0.0000 O   0  0  0  0  0  0  0  0  0  0  0  0
    4.6874    2.8833    0.0000 O   0  0  0  0  0  0  0  0  0  0  0  0
    2.8680    1.8514    0.0000 O   0  0  0  0  0  0  0  0  0  0  0  0
    7.4070    1.3056    0.0000 N   0  3  0  0  0  0  0  0  0  0  0  0
    8.2730    1.8056    0.0000 C   0  0  0  0  0  0  0  0  0  0  0  0
    7.4070    0.3056    0.0000 C   0  0  0  0  0  0  0  0  0  0  0  0
    9.1390    1.3056    0.0000 C   0  0  0  0  0  0  0  0  0  0  0  0
    8.2730   -0.1944    0.0000 C   0  0  0  0  0  0  0  0  0  0  0  0
    9.1390    0.3056    0.0000 C   0  0  0  0  0  0  0  0  0  0  0  0
    6.5130    1.8403    0.0000 C   0  0  0  0  0  0  0  0  0  0  0  0
    6.5130   -0.2291    0.0000 C   0  0  0  0  0  0  0  0  0  0  0  0
    5.6070    1.3264    0.0000 C   0  0  0  0  0  0  0  0  0  0  0  0
    5.6070    0.2848    0.0000 C   0  0  0  0  0  0  0  0  0  0  0  0
    8.2570   -1.2359    0.0000 C   0  0  0  0  0  0  0  0  0  0  0  0
   10.0490   -0.2012    0.0000 C   0  0  0  0  0  0  0  0  0  0  0  0
    9.1550   -1.7637    0.0000 C   0  0  0  0  0  0  0  0  0  0  0  0
   10.0571   -1.2428    0.0000 C   0  0  0  0  0  0  0  0  0  0  0  0
    4.6758    1.8833    0.0000 C   0  0  0  0  0  0  0  0  0  0  0  0
    4.6758   -0.2721    0.0000 C   0  0  0  0  0  0  0  0  0  0  0  0
    3.7320    1.3481    0.0000 C   0  0  0  0  0  0  0  0  0  0  0  0
    3.7320    0.2631    0.0000 C   0  0  0  0  0  0  0  0  0  0  0  0
   10.4028   -2.8833    0.0000 C   0  0  0  0  0  0  0  0  0  0  0  0
    2.0000    1.3548    0.0000 C   0  0  0  0  0  0  0  0  0  0  0  0
    7.4070    1.9256    0.0000 H   0  0  0  0  0  0  0  0  0  0  0  0
    8.6716    2.2806    0.0000 H   0  0  0  0  0  0  0  0  0  0  0  0
    7.8745    2.2806    0.0000 H   0  0  0  0  0  0  0  0  0  0  0  0
    9.7496    1.1979    0.0000 H   0  0  0  0  0  0  0  0  0  0  0  0
    9.3511    1.8882    0.0000 H   0  0  0  0  0  0  0  0  0  0  0  0
    6.5202    2.4602    0.0000 H   0  0  0  0  0  0  0  0  0  0  0  0
    6.5202   -0.8490    0.0000 H   0  0  0  0  0  0  0  0  0  0  0  0
    7.7165   -1.5397    0.0000 H   0  0  0  0  0  0  0  0  0  0  0  0
   10.5824    0.1149    0.0000 H   0  0  0  0  0  0  0  0  0  0  0  0
    4.6830   -0.8921    0.0000 H   0  0  0  0  0  0  0  0  0  0  0  0
    3.1963   -0.0490    0.0000 H   0  0  0  0  0  0  0  0  0  0  0  0
   10.2741   -3.4898    0.0000 H   0  0  0  0  0  0  0  0  0  0  0  0
   10.9924   -3.0750    0.0000 H   0  0  0  0  0  0  0  0  0  0  0  0
    1.6921    1.8929    0.0000 H   0  0  0  0  0  0  0  0  0  0  0  0
    1.4619    1.0468    0.0000 H   0  0  0  0  0  0  0  0  0  0  0  0
    2.3079    0.8167    0.0000 H   0  0  0  0  0  0  0  0  0  0  0  0
  1 17  1  0  0  0  0
  1 23  1  0  0  0  0
  2 18  1  0  0  0  0
  2 23  1  0  0  0  0
  3 19  2  0  0  0  0
  4 21  1  0  0  0  0
  4 24  1  0  0  0  0
  5  6  1  0  0  0  0
  5  7  1  0  0  0  0
  5 11  1  0  0  0  0
  5 25  1  0  0  0  0
  6  8  1  0  0  0  0
  6 26  1  0  0  0  0
  6 27  1  0  0  0  0
  7  9  1  0  0  0  0
  7 12  2  0  0  0  0
  8 10  1  0  0  0  0
  8 28  1  0  0  0  0
  8 29  1  0  0  0  0
  9 10  1  0  0  0  0
  9 15  2  0  0  0  0
 10 16  2  0  0  0  0
 11 13  2  0  0  0  0
 11 30  1  0  0  0  0
 12 14  1  0  0  0  0
 12 31  1  0  0  0  0
 13 14  1  0  0  0  0
 13 19  1  0  0  0  0
 14 20  2  0  0  0  0
 15 17  1  0  0  0  0
 15 32  1  0  0  0  0
 16 18  1  0  0  0  0
 16 33  1  0  0  0  0
 17 18  2  0  0  0  0
 19 21  1  0  0  0  0
 20 22  1  0  0  0  0
 20 34  1  0  0  0  0
 21 22  2  0  0  0  0
 22 35  1  0  0  0  0
 23 36  1  0  0  0  0
 23 37  1  0  0  0  0
 24 38  1  0  0  0  0
 24 39  1  0  0  0  0
 24 40  1  0  0  0  0
M  CHG  1   5   1
M  END
>  <PUBCHEM_COMPOUND_CID>
101280927

>  <PUBCHEM_COMPOUND_CANONICALIZED>
1

>  <PUBCHEM_CACTVS_COMPLEXITY>
717

>  <PUBCHEM_CACTVS_HBOND_ACCEPTOR>
4

>  <PUBCHEM_CACTVS_HBOND_DONOR>
1

>  <PUBCHEM_CACTVS_ROTATABLE_BOND>
1

>  <PUBCHEM_CACTVS_SUBSKEYS>
AAADceB6OAAAAAAAAAAAAAAAAAAAASAAAAA8QIEAAAAAAEixAAAAHgAQAAAADAzBmAcyDoPABACIAqRWQAKCCAAgIgAAiIFOjMgdJjKEsR+kMCpk0BGOqcew0LIOoAABAAAQQABAAAIAACCAAAAAAAAAAA==

>  <PUBCHEM_IUPAC_INCHI>
InChI=1S/C19H15NO4/c1-22-16-3-2-11-6-15-13-8-18-17(23-10-24-18)7-12(13)4-5-20(15)9-14(11)19(16)21/h2-3,6-9H,4-5,10H2,1H3/p+1

>  <PUBCHEM_IUPAC_INCHIKEY>
GLYPKDKODVRYGP-UHFFFAOYSA-O

>  <PUBCHEM_XLOGP3_AA>
2.8

>  <PUBCHEM_EXACT_MASS>
322.108

>  <PUBCHEM_MOLECULAR_FORMULA>
C19H16NO4+

>  <PUBCHEM_MOLECULAR_WEIGHT>
322.34

>  <PUBCHEM_OPENEYE_CAN_SMILES>
COC1=CC=C2C=C3C4=CC5=C(C=C4CC[NH+]3C=C2C1=O)OCO5

>  <PUBCHEM_OPENEYE_ISO_SMILES>
COC1=CC=C2C=C3C4=CC5=C(C=C4CC[NH+]3C=C2C1=O)OCO5

>  <PUBCHEM_CACTVS_TPSA>
49.2

>  <PUBCHEM_MONOISOTOPIC_WEIGHT>
322.108

>  <PUBCHEM_TOTAL_CHARGE>
1

>  <PUBCHEM_HEAVY_ATOM_COUNT>
24

>  <PUBCHEM_ATOM_DEF_STEREO_COUNT>
0

>  <PUBCHEM_ATOM_UDEF_STEREO_COUNT>
0

>  <PUBCHEM_BOND_DEF_STEREO_COUNT>
0

>  <PUBCHEM_BOND_UDEF_STEREO_COUNT>
0

>  <PUBCHEM_ISOTOPIC_ATOM_COUNT>
0

>  <PUBCHEM_COMPONENT_COUNT>
1

>  <PUBCHEM_CACTVS_TAUTO_COUNT>
24

>  <PUBCHEM_COORDINATE_TYPE>
1
5
255

>  <PUBCHEM_BONDANNOTATIONS>
10  16  8
15  17  8
16  18  8
17  18  8
9  10  8
9  15  8

$$$$
