101417476
 OpenBabel06101807152D

 40 40  0  0  1  0  0  0  0  0999 V2000
    4.5981    3.8450    0.0000 O   0  0  0  0  0  0  0  0  0  0  0  0
    2.8660   -1.1550    0.0000 C   0  0  3  0  0  0  0  0  0  0  0  0
    2.0000   -1.6550    0.0000 C   0  0  0  0  0  0  0  0  0  0  0  0
    3.7320   -1.6550    0.0000 C   0  0  0  0  0  0  0  0  0  0  0  0
    2.0000   -2.6550    0.0000 C   0  0  0  0  0  0  0  0  0  0  0  0
    2.8660   -0.1550    0.0000 C   0  0  0  0  0  0  0  0  0  0  0  0
    2.8660   -3.1550    0.0000 C   0  0  0  0  0  0  0  0  0  0  0  0
    3.7320   -2.6550    0.0000 C   0  0  0  0  0  0  0  0  0  0  0  0
    3.7320    0.3450    0.0000 C   0  0  0  0  0  0  0  0  0  0  0  0
    2.8660   -4.1550    0.0000 C   0  0  0  0  0  0  0  0  0  0  0  0
    2.0000    0.3450    0.0000 C   0  0  0  0  0  0  0  0  0  0  0  0
    3.7320    1.3450    0.0000 C   0  0  0  0  0  0  0  0  0  0  0  0
    4.5981    2.8450    0.0000 C   0  0  0  0  0  0  0  0  0  0  0  0
    4.5981    1.8450    0.0000 C   0  0  0  0  0  0  0  0  0  0  0  0
    5.5981    2.8450    0.0000 C   0  0  0  0  0  0  0  0  0  0  0  0
    3.5981    2.8450    0.0000 C   0  0  0  0  0  0  0  0  0  0  0  0
    3.4030   -0.8450    0.0000 H   0  0  0  0  0  0  0  0  0  0  0  0
    1.7880   -1.0724    0.0000 H   0  0  0  0  0  0  0  0  0  0  0  0
    1.3894   -1.7627    0.0000 H   0  0  0  0  0  0  0  0  0  0  0  0
    4.3426   -1.7627    0.0000 H   0  0  0  0  0  0  0  0  0  0  0  0
    3.9441   -1.0724    0.0000 H   0  0  0  0  0  0  0  0  0  0  0  0
    1.3894   -2.5473    0.0000 H   0  0  0  0  0  0  0  0  0  0  0  0
    1.7880   -3.2376    0.0000 H   0  0  0  0  0  0  0  0  0  0  0  0
    4.2690   -2.9650    0.0000 H   0  0  0  0  0  0  0  0  0  0  0  0
    3.9441   -0.2376    0.0000 H   0  0  0  0  0  0  0  0  0  0  0  0
    4.3426    0.4527    0.0000 H   0  0  0  0  0  0  0  0  0  0  0  0
    2.2460   -4.1550    0.0000 H   0  0  0  0  0  0  0  0  0  0  0  0
    2.8660   -4.7750    0.0000 H   0  0  0  0  0  0  0  0  0  0  0  0
    3.4860   -4.1550    0.0000 H   0  0  0  0  0  0  0  0  0  0  0  0
    3.1951    1.6550    0.0000 H   0  0  0  0  0  0  0  0  0  0  0  0
    2.0000    0.9650    0.0000 H   0  0  0  0  0  0  0  0  0  0  0  0
    1.4631    0.0350    0.0000 H   0  0  0  0  0  0  0  0  0  0  0  0
    5.1350    1.5350    0.0000 H   0  0  0  0  0  0  0  0  0  0  0  0
    5.5981    2.2250    0.0000 H   0  0  0  0  0  0  0  0  0  0  0  0
    6.2181    2.8450    0.0000 H   0  0  0  0  0  0  0  0  0  0  0  0
    5.5981    3.4650    0.0000 H   0  0  0  0  0  0  0  0  0  0  0  0
    3.5981    3.4650    0.0000 H   0  0  0  0  0  0  0  0  0  0  0  0
    2.9781    2.8450    0.0000 H   0  0  0  0  0  0  0  0  0  0  0  0
    3.5981    2.2250    0.0000 H   0  0  0  0  0  0  0  0  0  0  0  0
    5.1350    4.1550    0.0000 H   0  0  0  0  0  0  0  0  0  0  0  0
  1 13  1  0  0  0  0
  1 40  1  0  0  0  0
  2  3  1  0  0  0  0
  2  4  1  0  0  0  0
  2  6  1  0  0  0  0
  2 17  1  0  0  0  0
  3  5  1  0  0  0  0
  3 18  1  0  0  0  0
  3 19  1  0  0  0  0
  4  8  1  0  0  0  0
  4 20  1  0  0  0  0
  4 21  1  0  0  0  0
  5  7  1  0  0  0  0
  5 22  1  0  0  0  0
  5 23  1  0  0  0  0
  6  9  1  0  0  0  0
  6 11  2  0  0  0  0
  7  8  2  0  0  0  0
  7 10  1  0  0  0  0
  8 24  1  0  0  0  0
  9 12  1  0  0  0  0
  9 25  1  0  0  0  0
  9 26  1  0  0  0  0
 10 27  1  0  0  0  0
 10 28  1  0  0  0  0
 10 29  1  0  0  0  0
 11 31  1  0  0  0  0
 11 32  1  0  0  0  0
 12 14  2  0  0  0  0
 12 30  1  0  0  0  0
 13 14  1  0  0  0  0
 13 15  1  0  0  0  0
 13 16  1  0  0  0  0
 14 33  1  0  0  0  0
 15 34  1  0  0  0  0
 15 35  1  0  0  0  0
 15 36  1  0  0  0  0
 16 37  1  0  0  0  0
 16 38  1  0  0  0  0
 16 39  1  0  0  0  0
M  END
>  <PUBCHEM_COMPOUND_CID>
101417476

>  <PUBCHEM_COMPOUND_CANONICALIZED>
1

>  <PUBCHEM_CACTVS_COMPLEXITY>
307

>  <PUBCHEM_CACTVS_HBOND_ACCEPTOR>
1

>  <PUBCHEM_CACTVS_HBOND_DONOR>
1

>  <PUBCHEM_CACTVS_ROTATABLE_BOND>
4

>  <PUBCHEM_CACTVS_SUBSKEYS>
AAADceBwIAAAAAAAAAAAAAAAAAAAAAAAAAAgAAAAAAAAAAAAAAAAGgAACAAADUSAgAACAAAAAgCAAiBCAAAAAAAgAAAICAAAAAgABAIAAQAAEAAAgAAIEAMAgIAOAAAAAAAAAAAAAAAAAAAAAAAAAAAAAA==

>  <PUBCHEM_IUPAC_OPENEYE_NAME>
(3E)-2-methyl-6-(4-methylcyclohex-3-en-1-yl)hepta-3,6-dien-2-ol

>  <PUBCHEM_IUPAC_CAS_NAME>
(3E)-2-methyl-6-(4-methyl-1-cyclohex-3-enyl)-2-hepta-3,6-dienol

>  <PUBCHEM_IUPAC_NAME>
(3E)-2-methyl-6-(4-methylcyclohex-3-en-1-yl)hepta-3,6-dien-2-ol

>  <PUBCHEM_IUPAC_SYSTEMATIC_NAME>
(3E)-2-methyl-6-(4-methylcyclohex-3-en-1-yl)hepta-3,6-dien-2-ol

>  <PUBCHEM_IUPAC_TRADITIONAL_NAME>
(3E)-2-methyl-6-(4-methylcyclohex-3-en-1-yl)hepta-3,6-dien-2-ol

>  <PUBCHEM_IUPAC_INCHI>
InChI=1S/C15H24O/c1-12-7-9-14(10-8-12)13(2)6-5-11-15(3,4)16/h5,7,11,14,16H,2,6,8-10H2,1,3-4H3/b11-5+

>  <PUBCHEM_IUPAC_INCHIKEY>
UMHJVDDWUSONQN-VZUCSPMQSA-N

>  <PUBCHEM_XLOGP3_AA>
3.6

>  <PUBCHEM_EXACT_MASS>
220.183

>  <PUBCHEM_MOLECULAR_FORMULA>
C15H24O

>  <PUBCHEM_MOLECULAR_WEIGHT>
220.356

>  <PUBCHEM_OPENEYE_CAN_SMILES>
CC1=CCC(CC1)C(=C)CC=CC(C)(C)O

>  <PUBCHEM_OPENEYE_ISO_SMILES>
CC1=CCC(CC1)C(=C)C/C=C/C(C)(C)O

>  <PUBCHEM_CACTVS_TPSA>
20.2

>  <PUBCHEM_MONOISOTOPIC_WEIGHT>
220.183

>  <PUBCHEM_TOTAL_CHARGE>
0

>  <PUBCHEM_HEAVY_ATOM_COUNT>
16

>  <PUBCHEM_ATOM_DEF_STEREO_COUNT>
0

>  <PUBCHEM_ATOM_UDEF_STEREO_COUNT>
1

>  <PUBCHEM_BOND_DEF_STEREO_COUNT>
1

>  <PUBCHEM_BOND_UDEF_STEREO_COUNT>
0

>  <PUBCHEM_ISOTOPIC_ATOM_COUNT>
0

>  <PUBCHEM_COMPONENT_COUNT>
1

>  <PUBCHEM_CACTVS_TAUTO_COUNT>
1

>  <PUBCHEM_COORDINATE_TYPE>
1
5
255

>  <PUBCHEM_BONDANNOTATIONS>
2  6  3

$$$$
