101416067
 OpenBabel06101807152D

 35 36  0  0  1  0  0  0  0  0999 V2000
    3.5698   -1.7240    0.0000 O   0  0  0  0  0  0  0  0  0  0  0  0
    2.7441    0.5447    0.0000 O   0  0  0  0  0  0  0  0  0  0  0  0
    2.0000   -0.9920    0.0000 O   0  0  0  0  0  0  0  0  0  0  0  0
    5.3651   -0.2256    0.0000 C   0  0  3  0  0  0  0  0  0  0  0  0
    4.8873    1.7229    0.0000 C   0  0  0  0  0  0  0  0  0  0  0  0
    5.6239    0.7403    0.0000 C   0  0  3  0  0  0  0  0  0  0  0  0
    3.9924   -0.8177    0.0000 C   0  0  3  0  0  0  0  0  0  0  0  0
    3.6504    0.1220    0.0000 C   0  0  3  0  0  0  0  0  0  0  0  0
    6.7640   -0.7345    0.0000 C   0  0  0  0  0  0  0  0  0  0  0  0
    7.0228    0.2315    0.0000 C   0  0  0  0  0  0  0  0  0  0  0  0
    5.1063   -1.1916    0.0000 C   0  0  0  0  0  0  0  0  0  0  0  0
    4.9918    2.7174    0.0000 C   0  0  0  0  0  0  0  0  0  0  0  0
    3.9738    2.1296    0.0000 C   0  0  0  0  0  0  0  0  0  0  0  0
    2.5736   -1.8111    0.0000 C   0  0  0  0  0  0  0  0  0  0  0  0
    2.1510   -2.7174    0.0000 C   0  0  0  0  0  0  0  0  0  0  0  0
    5.6099    0.1204    0.0000 H   0  0  0  0  0  0  0  0  0  0  0  0
    4.4244   -1.2624    0.0000 H   0  0  0  0  0  0  0  0  0  0  0  0
    3.6915    0.7407    0.0000 H   0  0  0  0  0  0  0  0  0  0  0  0
    6.5691   -1.3230    0.0000 H   0  0  0  0  0  0  0  0  0  0  0  0
    7.3580   -0.9122    0.0000 H   0  0  0  0  0  0  0  0  0  0  0  0
    7.6168    0.0537    0.0000 H   0  0  0  0  0  0  0  0  0  0  0  0
    7.2178    0.8200    0.0000 H   0  0  0  0  0  0  0  0  0  0  0  0
    4.5074   -1.0311    0.0000 H   0  0  0  0  0  0  0  0  0  0  0  0
    4.9458   -1.7904    0.0000 H   0  0  0  0  0  0  0  0  0  0  0  0
    5.7052   -1.3520    0.0000 H   0  0  0  0  0  0  0  0  0  0  0  0
    5.6084    2.6526    0.0000 H   0  0  0  0  0  0  0  0  0  0  0  0
    5.0566    3.3340    0.0000 H   0  0  0  0  0  0  0  0  0  0  0  0
    4.3752    2.7822    0.0000 H   0  0  0  0  0  0  0  0  0  0  0  0
    4.2259    2.6960    0.0000 H   0  0  0  0  0  0  0  0  0  0  0  0
    3.4074    2.3818    0.0000 H   0  0  0  0  0  0  0  0  0  0  0  0
    3.7216    1.5632    0.0000 H   0  0  0  0  0  0  0  0  0  0  0  0
    2.2362    0.1890    0.0000 H   0  0  0  0  0  0  0  0  0  0  0  0
    1.5890   -2.4554    0.0000 H   0  0  0  0  0  0  0  0  0  0  0  0
    1.8889   -3.2793    0.0000 H   0  0  0  0  0  0  0  0  0  0  0  0
    2.7129   -2.9794    0.0000 H   0  0  0  0  0  0  0  0  0  0  0  0
  1  7  1  0  0  0  0
  1 14  1  0  0  0  0
  2  8  1  0  0  0  0
  2 32  1  0  0  0  0
  3 14  2  0  0  0  0
  4  5  1  0  0  0  0
  4  7  1  0  0  0  0
  4  9  1  0  0  0  0
  4 11  1  0  0  0  0
  5  6  1  0  0  0  0
  5 12  1  0  0  0  0
  5 13  1  0  0  0  0
  6  8  1  0  0  0  0
  6 10  1  0  0  0  0
  6 16  1  0  0  0  0
  7  8  1  0  0  0  0
  7 17  1  0  0  0  0
  8 18  1  0  0  0  0
  9 10  1  0  0  0  0
  9 19  1  0  0  0  0
  9 20  1  0  0  0  0
 10 21  1  0  0  0  0
 10 22  1  0  0  0  0
 11 23  1  0  0  0  0
 11 24  1  0  0  0  0
 11 25  1  0  0  0  0
 12 26  1  0  0  0  0
 12 27  1  0  0  0  0
 12 28  1  0  0  0  0
 13 29  1  0  0  0  0
 13 30  1  0  0  0  0
 13 31  1  0  0  0  0
 14 15  1  0  0  0  0
 15 33  1  0  0  0  0
 15 34  1  0  0  0  0
 15 35  1  0  0  0  0
M  END
>  <PUBCHEM_COMPOUND_CID>
101416067

>  <PUBCHEM_COMPOUND_CANONICALIZED>
1

>  <PUBCHEM_CACTVS_COMPLEXITY>
297

>  <PUBCHEM_CACTVS_HBOND_ACCEPTOR>
3

>  <PUBCHEM_CACTVS_HBOND_DONOR>
1

>  <PUBCHEM_CACTVS_ROTATABLE_BOND>
2

>  <PUBCHEM_CACTVS_SUBSKEYS>
AAADceBwMAAAAAAAAAAAAAAAAAAAAYMAAAAwAAAAAAAAAAAAAAAAGgAACAAADxSggAICCAAABgAIAACQCAAAAAAAAAAAAAAAAAABEAIAAAACQAAEAAADAAGA4PgPgAAAAAAAAACAAAIAABCAAYAADCAAAA==

>  <PUBCHEM_IUPAC_OPENEYE_NAME>
(3-hydroxy-1,7,7-trimethyl-norbornan-2-yl) acetate

>  <PUBCHEM_IUPAC_CAS_NAME>
acetic acid (2-hydroxy-4,7,7-trimethyl-3-bicyclo[2.2.1]heptanyl) ester

>  <PUBCHEM_IUPAC_NAME>
(2-hydroxy-4,7,7-trimethyl-3-bicyclo[2.2.1]heptanyl) acetate

>  <PUBCHEM_IUPAC_SYSTEMATIC_NAME>
(4,7,7-trimethyl-2-oxidanyl-3-bicyclo[2.2.1]heptanyl) ethanoate

>  <PUBCHEM_IUPAC_TRADITIONAL_NAME>
acetic acid (3-hydroxy-1,7,7-trimethyl-norbornan-2-yl) ester

>  <PUBCHEM_IUPAC_INCHI>
InChI=1S/C12H20O3/c1-7(13)15-10-9(14)8-5-6-12(10,4)11(8,2)3/h8-10,14H,5-6H2,1-4H3

>  <PUBCHEM_IUPAC_INCHIKEY>
QRRSWTCVSAQEPQ-UHFFFAOYSA-N

>  <PUBCHEM_XLOGP3_AA>
1.9

>  <PUBCHEM_EXACT_MASS>
212.141

>  <PUBCHEM_MOLECULAR_FORMULA>
C12H20O3

>  <PUBCHEM_MOLECULAR_WEIGHT>
212.289

>  <PUBCHEM_OPENEYE_CAN_SMILES>
CC(=O)OC1C(C2CCC1(C2(C)C)C)O

>  <PUBCHEM_OPENEYE_ISO_SMILES>
CC(=O)OC1C(C2CCC1(C2(C)C)C)O

>  <PUBCHEM_CACTVS_TPSA>
46.5

>  <PUBCHEM_MONOISOTOPIC_WEIGHT>
212.141

>  <PUBCHEM_TOTAL_CHARGE>
0

>  <PUBCHEM_HEAVY_ATOM_COUNT>
15

>  <PUBCHEM_ATOM_DEF_STEREO_COUNT>
0

>  <PUBCHEM_ATOM_UDEF_STEREO_COUNT>
4

>  <PUBCHEM_BOND_DEF_STEREO_COUNT>
0

>  <PUBCHEM_BOND_UDEF_STEREO_COUNT>
0

>  <PUBCHEM_ISOTOPIC_ATOM_COUNT>
0

>  <PUBCHEM_COMPONENT_COUNT>
1

>  <PUBCHEM_CACTVS_TAUTO_COUNT>
2

>  <PUBCHEM_COORDINATE_TYPE>
1
5
255

>  <PUBCHEM_BONDANNOTATIONS>
7  1  3
8  2  3
4  11  3
6  10  3

$$$$
