101417753
 OpenBabel06101807152D

 34 35  0  0  1  0  0  0  0  0999 V2000
    6.3887   -2.7322    0.0000 O   0  0  0  0  0  0  0  0  0  0  0  0
    2.0000   -2.8718    0.0000 O   0  0  0  0  0  0  0  0  0  0  0  0
    3.0120    2.3233    0.0000 O   0  0  0  0  0  0  0  0  0  0  0  0
    5.2486   -1.2574    0.0000 C   0  0  3  0  0  0  0  0  0  0  0  0
    4.5120   -0.2748    0.0000 C   0  0  3  0  0  0  0  0  0  0  0  0
    4.9898   -2.2234    0.0000 C   0  0  3  0  0  0  0  0  0  0  0  0
    6.6475   -1.7662    0.0000 C   0  0  0  0  0  0  0  0  0  0  0  0
    3.2153   -1.5686    0.0000 C   0  0  0  0  0  0  0  0  0  0  0  0
    3.7687   -3.0890    0.0000 C   0  0  0  0  0  0  0  0  0  0  0  0
    5.5074   -0.2915    0.0000 C   0  0  0  0  0  0  0  0  0  0  0  0
    2.9397   -2.5298    0.0000 C   0  0  0  0  0  0  0  0  0  0  0  0
    4.7309   -3.1893    0.0000 C   0  0  0  0  0  0  0  0  0  0  0  0
    4.0120    0.5912    0.0000 C   0  0  0  0  0  0  0  0  0  0  0  0
    4.5120    1.4572    0.0000 C   0  0  0  0  0  0  0  0  0  0  0  0
    4.0120    2.3233    0.0000 C   0  0  0  0  0  0  0  0  0  0  0  0
    4.5120    3.1893    0.0000 C   0  0  0  0  0  0  0  0  0  0  0  0
    5.0294    0.0667    0.0000 H   0  0  0  0  0  0  0  0  0  0  0  0
    7.2415   -1.9440    0.0000 H   0  0  0  0  0  0  0  0  0  0  0  0
    6.8424   -1.1777    0.0000 H   0  0  0  0  0  0  0  0  0  0  0  0
    3.2103   -0.9486    0.0000 H   0  0  0  0  0  0  0  0  0  0  0  0
    2.6010   -1.4848    0.0000 H   0  0  0  0  0  0  0  0  0  0  0  0
    3.3629   -3.5577    0.0000 H   0  0  0  0  0  0  0  0  0  0  0  0
    4.1854   -3.5482    0.0000 H   0  0  0  0  0  0  0  0  0  0  0  0
    6.1063   -0.4520    0.0000 H   0  0  0  0  0  0  0  0  0  0  0  0
    5.6679    0.3074    0.0000 H   0  0  0  0  0  0  0  0  0  0  0  0
    4.9085   -0.1310    0.0000 H   0  0  0  0  0  0  0  0  0  0  0  0
    4.1321   -3.0288    0.0000 H   0  0  0  0  0  0  0  0  0  0  0  0
    4.5705   -3.7882    0.0000 H   0  0  0  0  0  0  0  0  0  0  0  0
    5.3298   -3.3498    0.0000 H   0  0  0  0  0  0  0  0  0  0  0  0
    3.3920    0.5912    0.0000 H   0  0  0  0  0  0  0  0  0  0  0  0
    5.1320    1.4572    0.0000 H   0  0  0  0  0  0  0  0  0  0  0  0
    5.0489    2.8793    0.0000 H   0  0  0  0  0  0  0  0  0  0  0  0
    4.8220    3.7262    0.0000 H   0  0  0  0  0  0  0  0  0  0  0  0
    3.9750    3.4993    0.0000 H   0  0  0  0  0  0  0  0  0  0  0  0
  1  6  1  0  0  0  0
  1  7  1  0  0  0  0
  2 11  2  0  0  0  0
  3 15  2  0  0  0  0
  4  5  1  0  0  0  0
  4  7  1  0  0  0  0
  4  8  1  0  0  0  0
  4 10  1  0  0  0  0
  5  6  1  0  0  0  0
  5 13  1  0  0  0  0
  5 17  1  0  0  0  0
  6  9  1  0  0  0  0
  6 12  1  0  0  0  0
  7 18  1  0  0  0  0
  7 19  1  0  0  0  0
  8 11  1  0  0  0  0
  8 20  1  0  0  0  0
  8 21  1  0  0  0  0
  9 11  1  0  0  0  0
  9 22  1  0  0  0  0
  9 23  1  0  0  0  0
 10 24  1  0  0  0  0
 10 25  1  0  0  0  0
 10 26  1  0  0  0  0
 12 27  1  0  0  0  0
 12 28  1  0  0  0  0
 12 29  1  0  0  0  0
 13 14  2  0  0  0  0
 13 30  1  0  0  0  0
 14 15  1  0  0  0  0
 14 31  1  0  0  0  0
 15 16  1  0  0  0  0
 16 32  1  0  0  0  0
 16 33  1  0  0  0  0
 16 34  1  0  0  0  0
M  END
>  <PUBCHEM_COMPOUND_CID>
101417753

>  <PUBCHEM_COMPOUND_CANONICALIZED>
1

>  <PUBCHEM_CACTVS_COMPLEXITY>
371

>  <PUBCHEM_CACTVS_HBOND_ACCEPTOR>
3

>  <PUBCHEM_CACTVS_HBOND_DONOR>
0

>  <PUBCHEM_CACTVS_ROTATABLE_BOND>
2

>  <PUBCHEM_CACTVS_SUBSKEYS>
AAADceBwMAAAAAAAAAAAAAAAAAAAASAAAAAwAAAABIAAAAAAAAAAGgAAAAAAD0SggAICAAAABACIAKBSAAAAAAAgAAAICAEAAEgAABYAAQACAAAE4AAIAYOKzPBPgAAAAAAAAAAAAAYAADAAAAAAAAAAAA==

>  <PUBCHEM_IUPAC_OPENEYE_NAME>
1,5-dimethyl-8-[(E)-3-oxobut-1-enyl]-6-oxabicyclo[3.2.1]octan-3-one

>  <PUBCHEM_IUPAC_CAS_NAME>
1,5-dimethyl-8-[(E)-3-oxobut-1-enyl]-6-oxabicyclo[3.2.1]octan-3-one

>  <PUBCHEM_IUPAC_NAME>
1,5-dimethyl-8-[(E)-3-oxobut-1-enyl]-6-oxabicyclo[3.2.1]octan-3-one

>  <PUBCHEM_IUPAC_SYSTEMATIC_NAME>
1,5-dimethyl-8-[(E)-3-oxidanylidenebut-1-enyl]-6-oxabicyclo[3.2.1]octan-3-one

>  <PUBCHEM_IUPAC_TRADITIONAL_NAME>
8-[(E)-3-ketobut-1-enyl]-1,5-dimethyl-6-oxabicyclo[3.2.1]octan-3-one

>  <PUBCHEM_IUPAC_INCHI>
InChI=1S/C13H18O3/c1-9(14)4-5-11-12(2)6-10(15)7-13(11,3)16-8-12/h4-5,11H,6-8H2,1-3H3/b5-4+

>  <PUBCHEM_IUPAC_INCHIKEY>
LYMNQFZEIGCRGT-SNAWJCMRSA-N

>  <PUBCHEM_XLOGP3_AA>
0.4

>  <PUBCHEM_EXACT_MASS>
222.126

>  <PUBCHEM_MOLECULAR_FORMULA>
C13H18O3

>  <PUBCHEM_MOLECULAR_WEIGHT>
222.284

>  <PUBCHEM_OPENEYE_CAN_SMILES>
CC(=O)C=CC1C2(CC(=O)CC1(OC2)C)C

>  <PUBCHEM_OPENEYE_ISO_SMILES>
CC(=O)/C=C/C1C2(CC(=O)CC1(OC2)C)C

>  <PUBCHEM_CACTVS_TPSA>
43.4

>  <PUBCHEM_MONOISOTOPIC_WEIGHT>
222.126

>  <PUBCHEM_TOTAL_CHARGE>
0

>  <PUBCHEM_HEAVY_ATOM_COUNT>
16

>  <PUBCHEM_ATOM_DEF_STEREO_COUNT>
0

>  <PUBCHEM_ATOM_UDEF_STEREO_COUNT>
3

>  <PUBCHEM_BOND_DEF_STEREO_COUNT>
1

>  <PUBCHEM_BOND_UDEF_STEREO_COUNT>
0

>  <PUBCHEM_ISOTOPIC_ATOM_COUNT>
0

>  <PUBCHEM_COMPONENT_COUNT>
1

>  <PUBCHEM_CACTVS_TAUTO_COUNT>
15

>  <PUBCHEM_COORDINATE_TYPE>
1
5
255

>  <PUBCHEM_BONDANNOTATIONS>
4  10  3
5  13  3
6  12  3

$$$$
