101412415
 OpenBabel06101807152D

 51 52  0  0  1  0  0  0  0  0999 V2000
   11.2251    3.6297    0.0000 O   0  0  0  0  0  0  0  0  0  0  0  0
    9.4651    1.5950    0.0000 O   0  0  0  0  0  0  0  0  0  0  0  0
   12.1312    2.0742    0.0000 O   0  0  0  0  0  0  0  0  0  0  0  0
    9.4651    4.5950    0.0000 O   0  0  0  0  0  0  0  0  0  0  0  0
    7.7331    1.5950    0.0000 O   0  0  0  0  0  0  0  0  0  0  0  0
    7.7331    3.5950    0.0000 O   0  0  0  0  0  0  0  0  0  0  0  0
   10.3312    3.0950    0.0000 C   0  0  2  0  0  0  0  0  0  0  0  0
   10.3312    2.0950    0.0000 C   0  0  1  0  0  0  0  0  0  0  0  0
    9.4651    3.5950    0.0000 C   0  0  1  0  0  0  0  0  0  0  0  0
    8.5991    3.0950    0.0000 C   0  0  2  0  0  0  0  0  0  0  0  0
    8.5991    2.0950    0.0000 C   0  0  1  0  0  0  0  0  0  0  0  0
   11.2251    1.5603    0.0000 C   0  0  0  0  0  0  0  0  0  0  0  0
   12.1312    3.1158    0.0000 C   0  0  0  0  0  0  0  0  0  0  0  0
   13.1312    3.1197    0.0000 C   0  0  0  0  0  0  0  0  0  0  0  0
   12.6278    3.9838    0.0000 C   0  0  0  0  0  0  0  0  0  0  0  0
    7.7331    0.5950    0.0000 C   0  0  0  0  0  0  0  0  0  0  0  0
    6.8671    0.0950    0.0000 C   0  0  0  0  0  0  0  0  0  0  0  0
    6.8671   -0.9050    0.0000 C   0  0  0  0  0  0  0  0  0  0  0  0
    6.0010   -1.4050    0.0000 C   0  0  0  0  0  0  0  0  0  0  0  0
    5.1350   -1.9050    0.0000 C   0  0  0  0  0  0  0  0  0  0  0  0
    4.2690   -2.4050    0.0000 C   0  0  0  0  0  0  0  0  0  0  0  0
    3.4030   -2.9050    0.0000 C   0  0  0  0  0  0  0  0  0  0  0  0
    2.5369   -3.4050    0.0000 C   0  0  0  0  0  0  0  0  0  0  0  0
    2.5369   -4.4050    0.0000 C   0  0  0  0  0  0  0  0  0  0  0  0
    3.4030   -4.9050    0.0000 C   0  0  0  0  0  0  0  0  0  0  0  0
   10.3246    3.9450    0.0000 H   0  0  0  0  0  0  0  0  0  0  0  0
   10.3246    1.2450    0.0000 H   0  0  0  0  0  0  0  0  0  0  0  0
    8.9282    3.9050    0.0000 H   0  0  0  0  0  0  0  0  0  0  0  0
    8.0622    2.7850    0.0000 H   0  0  0  0  0  0  0  0  0  0  0  0
    8.5991    1.4750    0.0000 H   0  0  0  0  0  0  0  0  0  0  0  0
   10.8205    1.0905    0.0000 H   0  0  0  0  0  0  0  0  0  0  0  0
   11.6187    1.0813    0.0000 H   0  0  0  0  0  0  0  0  0  0  0  0
   13.1336    2.4997    0.0000 H   0  0  0  0  0  0  0  0  0  0  0  0
   13.7512    3.1221    0.0000 H   0  0  0  0  0  0  0  0  0  0  0  0
   13.1288    3.7397    0.0000 H   0  0  0  0  0  0  0  0  0  0  0  0
   13.1660    3.6758    0.0000 H   0  0  0  0  0  0  0  0  0  0  0  0
   12.9358    4.5219    0.0000 H   0  0  0  0  0  0  0  0  0  0  0  0
   12.0897    4.2917    0.0000 H   0  0  0  0  0  0  0  0  0  0  0  0
    8.9282    4.9050    0.0000 H   0  0  0  0  0  0  0  0  0  0  0  0
    7.1962    3.2850    0.0000 H   0  0  0  0  0  0  0  0  0  0  0  0
    7.9451    0.0124    0.0000 H   0  0  0  0  0  0  0  0  0  0  0  0
    8.3437    0.7027    0.0000 H   0  0  0  0  0  0  0  0  0  0  0  0
    6.6550    0.6776    0.0000 H   0  0  0  0  0  0  0  0  0  0  0  0
    6.2565   -0.0127    0.0000 H   0  0  0  0  0  0  0  0  0  0  0  0
    7.0791   -1.4876    0.0000 H   0  0  0  0  0  0  0  0  0  0  0  0
    7.4776   -0.7973    0.0000 H   0  0  0  0  0  0  0  0  0  0  0  0
    2.0000   -3.0950    0.0000 H   0  0  0  0  0  0  0  0  0  0  0  0
    2.0000   -4.7150    0.0000 H   0  0  0  0  0  0  0  0  0  0  0  0
    3.0930   -5.4419    0.0000 H   0  0  0  0  0  0  0  0  0  0  0  0
    3.9399   -5.2150    0.0000 H   0  0  0  0  0  0  0  0  0  0  0  0
    3.7130   -4.3681    0.0000 H   0  0  0  0  0  0  0  0  0  0  0  0
  1  7  1  0  0  0  0
  1 13  1  0  0  0  0
  2  8  1  0  0  0  0
  2 11  1  0  0  0  0
  3 12  1  0  0  0  0
  3 13  1  0  0  0  0
  4 39  1  0  0  0  0
  5 16  1  0  0  0  0
  6 40  1  0  0  0  0
  7  8  1  1  0  0  0
  7 26  1  0  0  0  0
  8 12  1  0  0  0  0
  8 27  1  6  0  0  0
  9  4  1  0  0  0  0
  9  7  1  6  0  0  0
  9 28  1  0  0  0  0
 10  6  1  0  0  0  0
 10  9  1  1  0  0  0
 10 29  1  0  0  0  0
 11  5  1  0  0  0  0
 11 10  1  6  0  0  0
 11 30  1  0  0  0  0
 12 31  1  0  0  0  0
 12 32  1  0  0  0  0
 13 14  1  0  0  0  0
 13 15  1  0  0  0  0
 14 33  1  0  0  0  0
 14 34  1  0  0  0  0
 14 35  1  0  0  0  0
 15 36  1  0  0  0  0
 15 37  1  0  0  0  0
 15 38  1  0  0  0  0
 16 17  1  0  0  0  0
 16 41  1  0  0  0  0
 16 42  1  0  0  0  0
 17 18  1  0  0  0  0
 17 43  1  0  0  0  0
 17 44  1  0  0  0  0
 18 19  1  0  0  0  0
 18 45  1  0  0  0  0
 18 46  1  0  0  0  0
 19 20  3  0  0  0  0
 20 21  1  0  0  0  0
 21 22  3  0  0  0  0
 22 23  1  0  0  0  0
 23 24  2  0  0  0  0
 23 47  1  0  0  0  0
 24 25  1  0  0  0  0
 24 48  1  0  0  0  0
 25 49  1  0  0  0  0
 25 50  1  0  0  0  0
 25 51  1  0  0  0  0
M  END
>  <PUBCHEM_COMPOUND_CID>
101412415

>  <PUBCHEM_COMPOUND_CANONICALIZED>
1

>  <PUBCHEM_CACTVS_COMPLEXITY>
598

>  <PUBCHEM_CACTVS_HBOND_ACCEPTOR>
6

>  <PUBCHEM_CACTVS_HBOND_DONOR>
2

>  <PUBCHEM_CACTVS_ROTATABLE_BOND>
5

>  <PUBCHEM_CACTVS_SUBSKEYS>
AAADceB4OAAAAAAAAAAAAAAAAAAAAAAAAAAkSAAAAAAAAACQAAAAGgAACAAACBSwgAMCCAAABgDAECBCAAgAAAAAAAAICAAAAAAREAIAAQAiQAAFAAAHAAHAYAwAAAAAAAAAAAAAAAAAAAAAAAAAAAAAAA==

>  <PUBCHEM_IUPAC_OPENEYE_NAME>
(4aR,6R,7R,8R,8aS)-6-[(Z)-dec-8-en-4,6-diynoxy]-2,2-dimethyl-4,4a,6,7,8,8a-hexahydropyrano[3,2-d][1,3]dioxine-7,8-diol

>  <PUBCHEM_IUPAC_CAS_NAME>
(4aR,6R,7R,8R,8aS)-6-[(Z)-dec-8-en-4,6-diynoxy]-2,2-dimethyl-4,4a,6,7,8,8a-hexahydropyrano[3,2-d][1,3]dioxin-7,8-diol

>  <PUBCHEM_IUPAC_NAME>
(4aR,6R,7R,8R,8aS)-6-[(Z)-dec-8-en-4,6-diynoxy]-2,2-dimethyl-4,4a,6,7,8,8a-hexahydropyrano[3,2-d][1,3]dioxine-7,8-diol

>  <PUBCHEM_IUPAC_SYSTEMATIC_NAME>
(4aR,6R,7R,8R,8aS)-6-[(Z)-dec-8-en-4,6-diynoxy]-2,2-dimethyl-4,4a,6,7,8,8a-hexahydropyrano[3,2-d][1,3]dioxine-7,8-diol

>  <PUBCHEM_IUPAC_TRADITIONAL_NAME>
(4aR,6R,7R,8R,8aS)-6-[(Z)-dec-8-en-4,6-diynoxy]-2,2-dimethyl-4,4a,6,7,8,8a-hexahydropyrano[3,2-d][1,3]dioxin-7,8-diol

>  <PUBCHEM_IUPAC_INCHI>
InChI=1S/C19H26O6/c1-4-5-6-7-8-9-10-11-12-22-18-16(21)15(20)17-14(24-18)13-23-19(2,3)25-17/h4-5,14-18,20-21H,10-13H2,1-3H3/b5-4-/t14-,15-,16-,17-,18-/m1/s1

>  <PUBCHEM_IUPAC_INCHIKEY>
DWCYZAGYVGTNEU-PYUPSREBSA-N

>  <PUBCHEM_XLOGP3_AA>
1.4

>  <PUBCHEM_EXACT_MASS>
350.173

>  <PUBCHEM_MOLECULAR_FORMULA>
C19H26O6

>  <PUBCHEM_MOLECULAR_WEIGHT>
350.411

>  <PUBCHEM_OPENEYE_CAN_SMILES>
CC=CC#CC#CCCCOC1C(C(C2C(O1)COC(O2)(C)C)O)O

>  <PUBCHEM_OPENEYE_ISO_SMILES>
C/C=C\C#CC#CCCCO[C@H]1[C@@H]([C@H]([C@H]2[C@H](O1)COC(O2)(C)C)O)O

>  <PUBCHEM_CACTVS_TPSA>
77.4

>  <PUBCHEM_MONOISOTOPIC_WEIGHT>
350.173

>  <PUBCHEM_TOTAL_CHARGE>
0

>  <PUBCHEM_HEAVY_ATOM_COUNT>
25

>  <PUBCHEM_ATOM_DEF_STEREO_COUNT>
5

>  <PUBCHEM_ATOM_UDEF_STEREO_COUNT>
0

>  <PUBCHEM_BOND_DEF_STEREO_COUNT>
1

>  <PUBCHEM_BOND_UDEF_STEREO_COUNT>
0

>  <PUBCHEM_ISOTOPIC_ATOM_COUNT>
0

>  <PUBCHEM_COMPONENT_COUNT>
1

>  <PUBCHEM_CACTVS_TAUTO_COUNT>
1

>  <PUBCHEM_COORDINATE_TYPE>
1
5
255

>  <PUBCHEM_BONDANNOTATIONS>
9  4  5
11  5  5
10  6  6
7  26  5
8  27  6

$$$$
