101408068
 OpenBabel06101807152D

 52 51  0  0  0  0  0  0  0  0999 V2000
    2.5369   -4.0600    0.0000 O   0  0  0  0  0  0  0  0  0  0  0  0
    3.4030   -5.5600    0.0000 O   0  0  0  0  0  0  0  0  0  0  0  0
    5.1350   -4.5600    0.0000 C   0  0  0  0  0  0  0  0  0  0  0  0
    6.0010   -4.0600    0.0000 C   0  0  0  0  0  0  0  0  0  0  0  0
    4.2690   -4.0600    0.0000 C   0  0  0  0  0  0  0  0  0  0  0  0
    6.8671   -4.5600    0.0000 C   0  0  0  0  0  0  0  0  0  0  0  0
    7.7331   -3.0600    0.0000 C   0  0  0  0  0  0  0  0  0  0  0  0
    7.7331   -4.0600    0.0000 C   0  0  0  0  0  0  0  0  0  0  0  0
    8.5991   -2.5600    0.0000 C   0  0  0  0  0  0  0  0  0  0  0  0
    7.7331   -1.0600    0.0000 C   0  0  0  0  0  0  0  0  0  0  0  0
    3.4030   -4.5600    0.0000 C   0  0  0  0  0  0  0  0  0  0  0  0
    8.5991   -1.5600    0.0000 C   0  0  0  0  0  0  0  0  0  0  0  0
    6.8671    1.4400    0.0000 C   0  0  0  0  0  0  0  0  0  0  0  0
    7.7331   -0.0600    0.0000 C   0  0  0  0  0  0  0  0  0  0  0  0
    6.8671    3.4400    0.0000 C   0  0  0  0  0  0  0  0  0  0  0  0
    6.8671    0.4400    0.0000 C   0  0  0  0  0  0  0  0  0  0  0  0
    6.0010    1.9400    0.0000 C   0  0  0  0  0  0  0  0  0  0  0  0
    6.0010    2.9400    0.0000 C   0  0  0  0  0  0  0  0  0  0  0  0
    6.8671    4.4400    0.0000 C   0  0  0  0  0  0  0  0  0  0  0  0
    8.5991    4.4400    0.0000 C   0  0  0  0  0  0  0  0  0  0  0  0
    7.7331    4.9400    0.0000 C   0  0  0  0  0  0  0  0  0  0  0  0
    9.4651    4.9400    0.0000 C   0  0  0  0  0  0  0  0  0  0  0  0
    4.7365   -5.0350    0.0000 H   0  0  0  0  0  0  0  0  0  0  0  0
    5.5335   -5.0350    0.0000 H   0  0  0  0  0  0  0  0  0  0  0  0
    6.3996   -3.5850    0.0000 H   0  0  0  0  0  0  0  0  0  0  0  0
    5.6025   -3.5850    0.0000 H   0  0  0  0  0  0  0  0  0  0  0  0
    4.6675   -3.5850    0.0000 H   0  0  0  0  0  0  0  0  0  0  0  0
    3.8705   -3.5850    0.0000 H   0  0  0  0  0  0  0  0  0  0  0  0
    6.8671   -5.1800    0.0000 H   0  0  0  0  0  0  0  0  0  0  0  0
    7.5210   -2.4774    0.0000 H   0  0  0  0  0  0  0  0  0  0  0  0
    7.1225   -3.1677    0.0000 H   0  0  0  0  0  0  0  0  0  0  0  0
    8.2700   -4.3700    0.0000 H   0  0  0  0  0  0  0  0  0  0  0  0
    9.1360   -2.8700    0.0000 H   0  0  0  0  0  0  0  0  0  0  0  0
    7.1225   -0.9523    0.0000 H   0  0  0  0  0  0  0  0  0  0  0  0
    7.5210   -1.6426    0.0000 H   0  0  0  0  0  0  0  0  0  0  0  0
    9.1360   -1.2500    0.0000 H   0  0  0  0  0  0  0  0  0  0  0  0
    7.4776    1.3323    0.0000 H   0  0  0  0  0  0  0  0  0  0  0  0
    7.0791    2.0226    0.0000 H   0  0  0  0  0  0  0  0  0  0  0  0
    8.2700    0.2500    0.0000 H   0  0  0  0  0  0  0  0  0  0  0  0
    7.0791    2.8574    0.0000 H   0  0  0  0  0  0  0  0  0  0  0  0
    7.4776    3.5477    0.0000 H   0  0  0  0  0  0  0  0  0  0  0  0
    6.3301    0.1300    0.0000 H   0  0  0  0  0  0  0  0  0  0  0  0
    5.4641    1.6300    0.0000 H   0  0  0  0  0  0  0  0  0  0  0  0
    5.4641    3.2500    0.0000 H   0  0  0  0  0  0  0  0  0  0  0  0
    6.3301    4.7500    0.0000 H   0  0  0  0  0  0  0  0  0  0  0  0
    8.2006    3.9650    0.0000 H   0  0  0  0  0  0  0  0  0  0  0  0
    8.9976    3.9650    0.0000 H   0  0  0  0  0  0  0  0  0  0  0  0
    7.7331    5.5600    0.0000 H   0  0  0  0  0  0  0  0  0  0  0  0
    9.7751    4.4031    0.0000 H   0  0  0  0  0  0  0  0  0  0  0  0
   10.0021    5.2500    0.0000 H   0  0  0  0  0  0  0  0  0  0  0  0
    9.1551    5.4769    0.0000 H   0  0  0  0  0  0  0  0  0  0  0  0
    2.0000   -4.3700    0.0000 H   0  0  0  0  0  0  0  0  0  0  0  0
  1 11  1  0  0  0  0
  1 52  1  0  0  0  0
  2 11  2  0  0  0  0
  3  4  1  0  0  0  0
  3  5  1  0  0  0  0
  3 23  1  0  0  0  0
  3 24  1  0  0  0  0
  4  6  1  0  0  0  0
  4 25  1  0  0  0  0
  4 26  1  0  0  0  0
  5 11  1  0  0  0  0
  5 27  1  0  0  0  0
  5 28  1  0  0  0  0
  6  8  2  0  0  0  0
  6 29  1  0  0  0  0
  7  8  1  0  0  0  0
  7  9  1  0  0  0  0
  7 30  1  0  0  0  0
  7 31  1  0  0  0  0
  8 32  1  0  0  0  0
  9 12  2  0  0  0  0
  9 33  1  0  0  0  0
 10 12  1  0  0  0  0
 10 14  1  0  0  0  0
 10 34  1  0  0  0  0
 10 35  1  0  0  0  0
 12 36  1  0  0  0  0
 13 16  1  0  0  0  0
 13 17  1  0  0  0  0
 13 37  1  0  0  0  0
 13 38  1  0  0  0  0
 14 16  2  0  0  0  0
 14 39  1  0  0  0  0
 15 18  1  0  0  0  0
 15 19  1  0  0  0  0
 15 40  1  0  0  0  0
 15 41  1  0  0  0  0
 16 42  1  0  0  0  0
 17 18  2  0  0  0  0
 17 43  1  0  0  0  0
 18 44  1  0  0  0  0
 19 21  2  0  0  0  0
 19 45  1  0  0  0  0
 20 21  1  0  0  0  0
 20 22  1  0  0  0  0
 20 46  1  0  0  0  0
 20 47  1  0  0  0  0
 21 48  1  0  0  0  0
 22 49  1  0  0  0  0
 22 50  1  0  0  0  0
 22 51  1  0  0  0  0
M  END
>  <PUBCHEM_COMPOUND_CID>
101408068

>  <PUBCHEM_COMPOUND_CANONICALIZED>
1

>  <PUBCHEM_CACTVS_COMPLEXITY>
398

>  <PUBCHEM_CACTVS_HBOND_ACCEPTOR>
2

>  <PUBCHEM_CACTVS_HBOND_DONOR>
1

>  <PUBCHEM_CACTVS_ROTATABLE_BOND>
13

>  <PUBCHEM_CACTVS_SUBSKEYS>
AAADceB4MAAAAAAAAAAAAAAAAAAAAAAAAAAAAAAAAAAAAAAAAAAAGgAACAAACACAgAACCAAAAgCIACDSCAAAAAAgAAAICAEAAAgAABIAAQAAQAAEgAAIAAKIAAAAAAAAAAAAAAAAAAAAAAAAAAAAAAAAAA==

>  <PUBCHEM_IUPAC_OPENEYE_NAME>
(5Z,8Z,11E,14Z,17Z)-icosa-5,8,11,14,17-pentaenoic acid

>  <PUBCHEM_IUPAC_CAS_NAME>
(5Z,8Z,11E,14Z,17Z)-eicosa-5,8,11,14,17-pentaenoic acid

>  <PUBCHEM_IUPAC_NAME>
(5Z,8Z,11E,14Z,17Z)-icosa-5,8,11,14,17-pentaenoic acid

>  <PUBCHEM_IUPAC_SYSTEMATIC_NAME>
(5Z,8Z,11E,14Z,17Z)-icosa-5,8,11,14,17-pentaenoic acid

>  <PUBCHEM_IUPAC_TRADITIONAL_NAME>
(5Z,8Z,11E,14Z,17Z)-eicosa-5,8,11,14,17-pentaenoic acid

>  <PUBCHEM_IUPAC_INCHI>
InChI=1S/C20H30O2/c1-2-3-4-5-6-7-8-9-10-11-12-13-14-15-16-17-18-19-20(21)22/h3-4,6-7,9-10,12-13,15-16H,2,5,8,11,14,17-19H2,1H3,(H,21,22)/b4-3-,7-6-,10-9+,13-12-,16-15-

>  <PUBCHEM_IUPAC_INCHIKEY>
JAZBEHYOTPTENJ-IKHGVYGUSA-N

>  <PUBCHEM_XLOGP3_AA>
5.6

>  <PUBCHEM_EXACT_MASS>
302.225

>  <PUBCHEM_MOLECULAR_FORMULA>
C20H30O2

>  <PUBCHEM_MOLECULAR_WEIGHT>
302.458

>  <PUBCHEM_OPENEYE_CAN_SMILES>
CCC=CCC=CCC=CCC=CCC=CCCCC(=O)O

>  <PUBCHEM_OPENEYE_ISO_SMILES>
CC/C=C\C/C=C\C/C=C/C/C=C\C/C=C\CCCC(=O)O

>  <PUBCHEM_CACTVS_TPSA>
37.3

>  <PUBCHEM_MONOISOTOPIC_WEIGHT>
302.225

>  <PUBCHEM_TOTAL_CHARGE>
0

>  <PUBCHEM_HEAVY_ATOM_COUNT>
22

>  <PUBCHEM_ATOM_DEF_STEREO_COUNT>
0

>  <PUBCHEM_ATOM_UDEF_STEREO_COUNT>
0

>  <PUBCHEM_BOND_DEF_STEREO_COUNT>
5

>  <PUBCHEM_BOND_UDEF_STEREO_COUNT>
0

>  <PUBCHEM_ISOTOPIC_ATOM_COUNT>
0

>  <PUBCHEM_COMPONENT_COUNT>
1

>  <PUBCHEM_CACTVS_TAUTO_COUNT>
2

>  <PUBCHEM_COORDINATE_TYPE>
1
5
255

$$$$
