101502553
 OpenBabel06101807152D

 92 97  0  0  1  0  0  0  0  0999 V2000
    6.0010   -3.5950    0.0000 O   0  0  0  0  0  0  0  0  0  0  0  0
    6.0010   -0.5950    0.0000 O   0  0  0  0  0  0  0  0  0  0  0  0
    7.7331   -0.5950    0.0000 O   0  0  0  0  0  0  0  0  0  0  0  0
    4.2690   -3.5950    0.0000 O   0  0  0  0  0  0  0  0  0  0  0  0
    8.5991    1.9050    0.0000 O   0  0  0  0  0  0  0  0  0  0  0  0
    7.7331   -2.5950    0.0000 O   0  0  0  0  0  0  0  0  0  0  0  0
    4.2690   -2.5950    0.0000 O   0  0  0  0  0  0  0  0  0  0  0  0
    6.0010   -5.5950    0.0000 O   0  0  0  0  0  0  0  0  0  0  0  0
    4.2690   -6.5950    0.0000 O   0  0  0  0  0  0  0  0  0  0  0  0
    2.5369   -5.5950    0.0000 O   0  0  0  0  0  0  0  0  0  0  0  0
    9.4651   -0.5950    0.0000 O   0  0  0  0  0  0  0  0  0  0  0  0
   11.1972    0.4050    0.0000 O   0  0  0  0  0  0  0  0  0  0  0  0
    9.4651    3.4050    0.0000 O   0  0  0  0  0  0  0  0  0  0  0  0
   11.1972    2.4050    0.0000 O   0  0  0  0  0  0  0  0  0  0  0  0
    7.7331    5.4050    0.0000 O   0  0  0  0  0  0  0  0  0  0  0  0
    7.7331    2.4050    0.0000 O   0  0  0  0  0  0  0  0  0  0  0  0
    5.9847    2.3704    0.0000 O   0  0  0  0  0  0  0  0  0  0  0  0
    4.2030    5.4292    0.0000 O   0  0  0  0  0  0  0  0  0  0  0  0
   12.0632    6.9050    0.0000 O   0  0  0  0  0  0  0  0  0  0  0  0
    6.0010   -2.5950    0.0000 C   0  0  1  0  0  0  0  0  0  0  0  0
    6.8671   -2.0950    0.0000 C   0  0  2  0  0  0  0  0  0  0  0  0
    5.1350   -2.0950    0.0000 C   0  0  2  0  0  0  0  0  0  0  0  0
    6.8671   -1.0950    0.0000 C   0  0  1  0  0  0  0  0  0  0  0  0
    5.1350   -1.0950    0.0000 C   0  0  2  0  0  0  0  0  0  0  0  0
    5.1350   -4.0950    0.0000 C   0  0  2  0  0  0  0  0  0  0  0  0
    5.1350   -5.0950    0.0000 C   0  0  1  0  0  0  0  0  0  0  0  0
    4.2690   -5.5950    0.0000 C   0  0  1  0  0  0  0  0  0  0  0  0
    8.5991    0.9050    0.0000 C   0  0  1  0  0  0  0  0  0  0  0  0
    3.4030   -5.0950    0.0000 C   0  0  2  0  0  0  0  0  0  0  0  0
    3.4030   -4.0950    0.0000 C   0  0  2  0  0  0  0  0  0  0  0  0
    9.4651    0.4050    0.0000 C   0  0  2  0  0  0  0  0  0  0  0  0
   10.3312    0.9050    0.0000 C   0  0  1  0  0  0  0  0  0  0  0  0
    7.7331    0.4050    0.0000 C   0  0  0  0  0  0  0  0  0  0  0  0
   10.3312    1.9050    0.0000 C   0  0  2  0  0  0  0  0  0  0  0  0
    9.4651    2.4050    0.0000 C   0  0  1  0  0  0  0  0  0  0  0  0
    4.2690   -0.5950    0.0000 C   0  0  0  0  0  0  0  0  0  0  0  0
    2.5369   -3.5950    0.0000 C   0  0  0  0  0  0  0  0  0  0  0  0
    8.5991    3.9050    0.0000 C   0  0  0  0  0  0  0  0  0  0  0  0
    8.5991    4.9050    0.0000 C   0  0  0  0  0  0  0  0  0  0  0  0
    7.7331    3.4050    0.0000 C   0  0  0  0  0  0  0  0  0  0  0  0
    6.8671    3.9050    0.0000 C   0  0  0  0  0  0  0  0  0  0  0  0
    9.4651    5.4050    0.0000 C   0  0  0  0  0  0  0  0  0  0  0  0
    6.8671    4.9050    0.0000 C   0  0  0  0  0  0  0  0  0  0  0  0
    5.9731    3.3703    0.0000 C   0  0  0  0  0  0  0  0  0  0  0  0
    5.9731    5.4397    0.0000 C   0  0  0  0  0  0  0  0  0  0  0  0
    9.4651    6.4050    0.0000 C   0  0  0  0  0  0  0  0  0  0  0  0
   10.3312    4.9050    0.0000 C   0  0  0  0  0  0  0  0  0  0  0  0
    5.0670    3.8842    0.0000 C   0  0  0  0  0  0  0  0  0  0  0  0
    5.0670    4.9258    0.0000 C   0  0  0  0  0  0  0  0  0  0  0  0
   10.3312    6.9050    0.0000 C   0  0  0  0  0  0  0  0  0  0  0  0
   11.1972    5.4050    0.0000 C   0  0  0  0  0  0  0  0  0  0  0  0
   11.1972    6.4050    0.0000 C   0  0  0  0  0  0  0  0  0  0  0  0
    6.5380   -2.9050    0.0000 H   0  0  0  0  0  0  0  0  0  0  0  0
    7.4040   -1.7850    0.0000 H   0  0  0  0  0  0  0  0  0  0  0  0
    4.5981   -1.7850    0.0000 H   0  0  0  0  0  0  0  0  0  0  0  0
    6.8671   -0.4750    0.0000 H   0  0  0  0  0  0  0  0  0  0  0  0
    5.1350   -0.4750    0.0000 H   0  0  0  0  0  0  0  0  0  0  0  0
    5.6720   -4.4050    0.0000 H   0  0  0  0  0  0  0  0  0  0  0  0
    5.1350   -5.7150    0.0000 H   0  0  0  0  0  0  0  0  0  0  0  0
    3.7320   -5.9050    0.0000 H   0  0  0  0  0  0  0  0  0  0  0  0
    8.0622    1.2150    0.0000 H   0  0  0  0  0  0  0  0  0  0  0  0
    2.8660   -4.7850    0.0000 H   0  0  0  0  0  0  0  0  0  0  0  0
    3.4030   -3.4750    0.0000 H   0  0  0  0  0  0  0  0  0  0  0  0
   10.0021    0.0950    0.0000 H   0  0  0  0  0  0  0  0  0  0  0  0
   10.8681    1.2150    0.0000 H   0  0  0  0  0  0  0  0  0  0  0  0
    7.5210    0.9876    0.0000 H   0  0  0  0  0  0  0  0  0  0  0  0
    7.1225    0.2973    0.0000 H   0  0  0  0  0  0  0  0  0  0  0  0
   10.3312    2.5250    0.0000 H   0  0  0  0  0  0  0  0  0  0  0  0
    8.9282    2.7150    0.0000 H   0  0  0  0  0  0  0  0  0  0  0  0
    4.5790   -0.0581    0.0000 H   0  0  0  0  0  0  0  0  0  0  0  0
    3.7320   -0.2850    0.0000 H   0  0  0  0  0  0  0  0  0  0  0  0
    3.9590   -1.1319    0.0000 H   0  0  0  0  0  0  0  0  0  0  0  0
    8.2700   -2.2850    0.0000 H   0  0  0  0  0  0  0  0  0  0  0  0
    3.7320   -2.2850    0.0000 H   0  0  0  0  0  0  0  0  0  0  0  0
    2.8469   -3.0581    0.0000 H   0  0  0  0  0  0  0  0  0  0  0  0
    2.0000   -3.2850    0.0000 H   0  0  0  0  0  0  0  0  0  0  0  0
    2.2269   -4.1319    0.0000 H   0  0  0  0  0  0  0  0  0  0  0  0
    6.0010   -6.2150    0.0000 H   0  0  0  0  0  0  0  0  0  0  0  0
    3.7320   -6.9050    0.0000 H   0  0  0  0  0  0  0  0  0  0  0  0
    2.0000   -5.2850    0.0000 H   0  0  0  0  0  0  0  0  0  0  0  0
   10.0021   -0.9050    0.0000 H   0  0  0  0  0  0  0  0  0  0  0  0
   11.7341    0.7150    0.0000 H   0  0  0  0  0  0  0  0  0  0  0  0
   11.1972    3.0250    0.0000 H   0  0  0  0  0  0  0  0  0  0  0  0
    5.9803    6.0596    0.0000 H   0  0  0  0  0  0  0  0  0  0  0  0
    8.9282    6.7150    0.0000 H   0  0  0  0  0  0  0  0  0  0  0  0
   10.3312    4.2850    0.0000 H   0  0  0  0  0  0  0  0  0  0  0  0
    4.5313    3.5721    0.0000 H   0  0  0  0  0  0  0  0  0  0  0  0
   10.3312    7.5250    0.0000 H   0  0  0  0  0  0  0  0  0  0  0  0
   11.7341    5.0950    0.0000 H   0  0  0  0  0  0  0  0  0  0  0  0
    5.4514    2.0542    0.0000 H   0  0  0  0  0  0  0  0  0  0  0  0
    3.6648    5.1212    0.0000 H   0  0  0  0  0  0  0  0  0  0  0  0
   12.6002    6.5950    0.0000 H   0  0  0  0  0  0  0  0  0  0  0  0
  2 23  1  0  0  0  0
  2 24  1  0  0  0  0
  3 33  1  0  0  0  0
  4 25  1  0  0  0  0
  4 30  1  0  0  0  0
  5 28  1  0  0  0  0
  5 35  1  0  0  0  0
  6 73  1  0  0  0  0
  7 74  1  0  0  0  0
  8 78  1  0  0  0  0
  9 79  1  0  0  0  0
 10 80  1  0  0  0  0
 11 81  1  0  0  0  0
 12 82  1  0  0  0  0
 13 38  1  0  0  0  0
 14 83  1  0  0  0  0
 15 39  1  0  0  0  0
 15 43  1  0  0  0  0
 16 40  2  0  0  0  0
 17 44  1  0  0  0  0
 17 90  1  0  0  0  0
 18 49  1  0  0  0  0
 18 91  1  0  0  0  0
 19 52  1  0  0  0  0
 19 92  1  0  0  0  0
 20  1  1  0  0  0  0
 20 21  1  6  0  0  0
 20 53  1  0  0  0  0
 21  6  1  0  0  0  0
 21 23  1  6  0  0  0
 21 54  1  0  0  0  0
 22  7  1  0  0  0  0
 22 20  1  6  0  0  0
 22 55  1  0  0  0  0
 23  3  1  0  0  0  0
 23 56  1  6  0  0  0
 24 22  1  1  0  0  0
 24 36  1  0  0  0  0
 24 57  1  0  0  0  0
 25  1  1  0  0  0  0
 25 26  1  1  0  0  0
 25 58  1  0  0  0  0
 26  8  1  0  0  0  0
 26 27  1  6  0  0  0
 26 59  1  0  0  0  0
 27  9  1  0  0  0  0
 27 29  1  6  0  0  0
 27 60  1  0  0  0  0
 28 31  1  6  0  0  0
 28 33  1  0  0  0  0
 28 61  1  0  0  0  0
 29 10  1  0  0  0  0
 29 30  1  1  0  0  0
 29 62  1  0  0  0  0
 30 37  1  0  0  0  0
 30 63  1  1  0  0  0
 31 11  1  0  0  0  0
 31 32  1  6  0  0  0
 31 64  1  0  0  0  0
 32 12  1  0  0  0  0
 32 34  1  1  0  0  0
 32 65  1  0  0  0  0
 33 66  1  0  0  0  0
 33 67  1  0  0  0  0
 34 14  1  0  0  0  0
 34 35  1  6  0  0  0
 34 68  1  0  0  0  0
 35 13  1  0  0  0  0
 35 69  1  6  0  0  0
 36 70  1  0  0  0  0
 36 71  1  0  0  0  0
 36 72  1  0  0  0  0
 37 75  1  0  0  0  0
 37 76  1  0  0  0  0
 37 77  1  0  0  0  0
 38 39  2  0  0  0  0
 38 40  1  0  0  0  0
 39 42  1  0  0  0  0
 40 41  1  0  0  0  0
 41 43  1  0  0  0  0
 41 44  2  0  0  0  0
 42 46  2  0  0  0  0
 42 47  1  0  0  0  0
 43 45  2  0  0  0  0
 44 48  1  0  0  0  0
 45 49  1  0  0  0  0
 45 84  1  0  0  0  0
 46 50  1  0  0  0  0
 46 85  1  0  0  0  0
 47 51  2  0  0  0  0
 47 86  1  0  0  0  0
 48 49  2  0  0  0  0
 48 87  1  0  0  0  0
 50 52  2  0  0  0  0
 50 88  1  0  0  0  0
 51 52  1  0  0  0  0
 51 89  1  0  0  0  0
M  END
>  <PUBCHEM_COMPOUND_CID>
101502553

>  <PUBCHEM_COMPOUND_CANONICALIZED>
1

>  <PUBCHEM_CACTVS_COMPLEXITY>
1260

>  <PUBCHEM_CACTVS_HBOND_ACCEPTOR>
19

>  <PUBCHEM_CACTVS_HBOND_DONOR>
11

>  <PUBCHEM_CACTVS_ROTATABLE_BOND>
8

>  <PUBCHEM_CACTVS_SUBSKEYS>
AAADcfB8PgAAAAAAAAAAAAAAAAAAAAAAAAA0aJECAAAAAACBQAAAGgAACAAADBSwmAMyDoAABgCIAqBSAAICCAAkIAAIiAFGCMgdNzaGNR6ieWCl4BUPuQfI7KzOIAAACAAIAABAAAAQABAAAAAAAAAAAA==

>  <PUBCHEM_IUPAC_OPENEYE_NAME>
3-[(2S,3R,4S,5S,6R)-6-[[(2R,3R,4R,5S,6S)-3,5-dihydroxy-6-methyl-4-[(2S,3R,4R,5R,6S)-3,4,5-trihydroxy-6-methyl-tetrahydropyran-2-yl]oxy-tetrahydropyran-2-yl]oxymethyl]-3,4,5-trihydroxy-tetrahydropyran-2-yl]oxy-5,7-dihydroxy-2-(4-hydroxyphenyl)chromen-4-one

>  <PUBCHEM_IUPAC_CAS_NAME>
3-[[(2S,3R,4S,5S,6R)-6-[[(2R,3R,4R,5S,6S)-3,5-dihydroxy-6-methyl-4-[[(2S,3R,4R,5R,6S)-3,4,5-trihydroxy-6-methyl-2-oxanyl]oxy]-2-oxanyl]oxymethyl]-3,4,5-trihydroxy-2-oxanyl]oxy]-5,7-dihydroxy-2-(4-hydroxyphenyl)-1-benzopyran-4-one

>  <PUBCHEM_IUPAC_NAME>
3-[(2S,3R,4S,5S,6R)-6-[[(2R,3R,4R,5S,6S)-3,5-dihydroxy-6-methyl-4-[(2S,3R,4R,5R,6S)-3,4,5-trihydroxy-6-methyloxan-2-yl]oxyoxan-2-yl]oxymethyl]-3,4,5-trihydroxyoxan-2-yl]oxy-5,7-dihydroxy-2-(4-hydroxyphenyl)chromen-4-one

>  <PUBCHEM_IUPAC_SYSTEMATIC_NAME>
2-(4-hydroxyphenyl)-3-[(2S,3R,4S,5S,6R)-6-[[(2R,3R,4R,5S,6S)-6-methyl-4-[(2S,3R,4R,5R,6S)-6-methyl-3,4,5-tris(oxidanyl)oxan-2-yl]oxy-3,5-bis(oxidanyl)oxan-2-yl]oxymethyl]-3,4,5-tris(oxidanyl)oxan-2-yl]oxy-5,7-bis(oxidanyl)chromen-4-one

>  <PUBCHEM_IUPAC_TRADITIONAL_NAME>
3-[(2S,3R,4S,5S,6R)-6-[[(2R,3R,4R,5S,6S)-3,5-dihydroxy-6-methyl-4-[(2S,3R,4R,5R,6S)-3,4,5-trihydroxy-6-methyl-tetrahydropyran-2-yl]oxy-tetrahydropyran-2-yl]oxymethyl]-3,4,5-trihydroxy-tetrahydropyran-2-yl]oxy-5,7-dihydroxy-2-(4-hydroxyphenyl)chromone

>  <PUBCHEM_IUPAC_INCHI>
InChI=1S/C33H40O19/c1-10-19(37)23(41)25(43)32(48-10)51-29-20(38)11(2)47-31(27(29)45)46-9-17-21(39)24(42)26(44)33(50-17)52-30-22(40)18-15(36)7-14(35)8-16(18)49-28(30)12-3-5-13(34)6-4-12/h3-8,10-11,17,19-21,23-27,29,31-39,41-45H,9H2,1-2H3/t10-,11-,17+,19-,20-,21+,23+,24-,25+,26+,27+,29+,31+,32-,33-/m0/s1

>  <PUBCHEM_IUPAC_INCHIKEY>
UYVBMGULWGRDQT-VLYLGZBPSA-N

>  <PUBCHEM_XLOGP3_AA>
-2

>  <PUBCHEM_EXACT_MASS>
740.216

>  <PUBCHEM_MOLECULAR_FORMULA>
C33H40O19

>  <PUBCHEM_MOLECULAR_WEIGHT>
740.664

>  <PUBCHEM_OPENEYE_CAN_SMILES>
CC1C(C(C(C(O1)OC2C(C(OC(C2O)OCC3C(C(C(C(O3)OC4=C(OC5=CC(=CC(=C5C4=O)O)O)C6=CC=C(C=C6)O)O)O)O)C)O)O)O)O

>  <PUBCHEM_OPENEYE_ISO_SMILES>
C[C@H]1[C@@H]([C@H]([C@H]([C@@H](O1)O[C@@H]2[C@H]([C@@H](O[C@H]([C@@H]2O)OC[C@@H]3[C@H]([C@@H]([C@H]([C@@H](O3)OC4=C(OC5=CC(=CC(=C5C4=O)O)O)C6=CC=C(C=C6)O)O)O)O)C)O)O)O)O

>  <PUBCHEM_CACTVS_TPSA>
304

>  <PUBCHEM_MONOISOTOPIC_WEIGHT>
740.216

>  <PUBCHEM_TOTAL_CHARGE>
0

>  <PUBCHEM_HEAVY_ATOM_COUNT>
52

>  <PUBCHEM_ATOM_DEF_STEREO_COUNT>
15

>  <PUBCHEM_ATOM_UDEF_STEREO_COUNT>
0

>  <PUBCHEM_BOND_DEF_STEREO_COUNT>
0

>  <PUBCHEM_BOND_UDEF_STEREO_COUNT>
0

>  <PUBCHEM_ISOTOPIC_ATOM_COUNT>
0

>  <PUBCHEM_COMPONENT_COUNT>
1

>  <PUBCHEM_CACTVS_TAUTO_COUNT>
45

>  <PUBCHEM_COORDINATE_TYPE>
1
5
255

>  <PUBCHEM_BONDANNOTATIONS>
20  1  6
25  1  5
29  10  5
31  11  6
32  12  5
35  13  5
34  14  6
15  39  8
15  43  8
24  36  6
28  33  5
23  3  5
30  37  6
38  39  8
38  40  8
40  41  8
41  43  8
41  44  8
42  46  8
42  47  8
43  45  8
44  48  8
45  49  8
46  50  8
47  51  8
48  49  8
50  52  8
51  52  8
21  6  6
22  7  5
26  8  6
27  9  6

$$$$
