101648403
 OpenBabel06101807152D

 43 42  0  0  1  0  0  0  0  0999 V2000
    4.5981   -0.9050    0.0000 O   0  0  0  0  0  0  0  0  0  0  0  0
   12.3923    0.5950    0.0000 O   0  0  0  0  0  0  0  0  0  0  0  0
    5.4641    0.5950    0.0000 C   0  0  0  0  0  0  0  0  0  0  0  0
    6.3301    0.0950    0.0000 C   0  0  0  0  0  0  0  0  0  0  0  0
    4.5981    0.0950    0.0000 C   0  0  3  0  0  0  0  0  0  0  0  0
    8.0622    0.0950    0.0000 C   0  0  0  0  0  0  0  0  0  0  0  0
    8.9282    0.5950    0.0000 C   0  0  0  0  0  0  0  0  0  0  0  0
    7.1962    0.5950    0.0000 C   0  0  0  0  0  0  0  0  0  0  0  0
    9.7942    0.0950    0.0000 C   0  0  0  0  0  0  0  0  0  0  0  0
    3.7320    0.5950    0.0000 C   0  0  0  0  0  0  0  0  0  0  0  0
    6.3301   -0.9050    0.0000 C   0  0  0  0  0  0  0  0  0  0  0  0
    2.8660    0.0950    0.0000 C   0  0  0  0  0  0  0  0  0  0  0  0
    9.7942   -0.9050    0.0000 C   0  0  0  0  0  0  0  0  0  0  0  0
   10.6603    0.5950    0.0000 C   0  0  0  0  0  0  0  0  0  0  0  0
    2.0000    0.5950    0.0000 C   0  0  0  0  0  0  0  0  0  0  0  0
    2.8660   -0.9050    0.0000 C   0  0  0  0  0  0  0  0  0  0  0  0
   11.5263    0.0950    0.0000 C   0  0  0  0  0  0  0  0  0  0  0  0
    5.8626    1.0700    0.0000 H   0  0  0  0  0  0  0  0  0  0  0  0
    5.0656    1.0700    0.0000 H   0  0  0  0  0  0  0  0  0  0  0  0
    5.1350   -0.2150    0.0000 H   0  0  0  0  0  0  0  0  0  0  0  0
    7.6636   -0.3799    0.0000 H   0  0  0  0  0  0  0  0  0  0  0  0
    8.4607   -0.3799    0.0000 H   0  0  0  0  0  0  0  0  0  0  0  0
    9.3267    1.0700    0.0000 H   0  0  0  0  0  0  0  0  0  0  0  0
    8.5297    1.0700    0.0000 H   0  0  0  0  0  0  0  0  0  0  0  0
    7.1962    1.2150    0.0000 H   0  0  0  0  0  0  0  0  0  0  0  0
    3.7320    1.2150    0.0000 H   0  0  0  0  0  0  0  0  0  0  0  0
    5.7101   -0.9050    0.0000 H   0  0  0  0  0  0  0  0  0  0  0  0
    6.3301   -1.5250    0.0000 H   0  0  0  0  0  0  0  0  0  0  0  0
    6.9501   -0.9050    0.0000 H   0  0  0  0  0  0  0  0  0  0  0  0
    9.1742   -0.9050    0.0000 H   0  0  0  0  0  0  0  0  0  0  0  0
    9.7942   -1.5250    0.0000 H   0  0  0  0  0  0  0  0  0  0  0  0
   10.4142   -0.9050    0.0000 H   0  0  0  0  0  0  0  0  0  0  0  0
   10.6603    1.2150    0.0000 H   0  0  0  0  0  0  0  0  0  0  0  0
    4.0611   -1.2150    0.0000 H   0  0  0  0  0  0  0  0  0  0  0  0
    2.2460   -0.9050    0.0000 H   0  0  0  0  0  0  0  0  0  0  0  0
    2.8660   -1.5250    0.0000 H   0  0  0  0  0  0  0  0  0  0  0  0
    2.3100    1.1319    0.0000 H   0  0  0  0  0  0  0  0  0  0  0  0
    1.4631    0.9050    0.0000 H   0  0  0  0  0  0  0  0  0  0  0  0
    1.6900    0.0581    0.0000 H   0  0  0  0  0  0  0  0  0  0  0  0
    3.4860   -0.9050    0.0000 H   0  0  0  0  0  0  0  0  0  0  0  0
   11.1278   -0.3799    0.0000 H   0  0  0  0  0  0  0  0  0  0  0  0
   11.9248   -0.3799    0.0000 H   0  0  0  0  0  0  0  0  0  0  0  0
   12.9292    0.2850    0.0000 H   0  0  0  0  0  0  0  0  0  0  0  0
  1  5  1  0  0  0  0
  1 34  1  0  0  0  0
  2 17  1  0  0  0  0
  2 43  1  0  0  0  0
  3  4  1  0  0  0  0
  3  5  1  0  0  0  0
  3 18  1  0  0  0  0
  3 19  1  0  0  0  0
  4  8  2  0  0  0  0
  4 11  1  0  0  0  0
  5 10  1  0  0  0  0
  5 20  1  0  0  0  0
  6  7  1  0  0  0  0
  6  8  1  0  0  0  0
  6 21  1  0  0  0  0
  6 22  1  0  0  0  0
  7  9  1  0  0  0  0
  7 23  1  0  0  0  0
  7 24  1  0  0  0  0
  8 25  1  0  0  0  0
  9 13  1  0  0  0  0
  9 14  2  0  0  0  0
 10 12  2  0  0  0  0
 10 26  1  0  0  0  0
 11 27  1  0  0  0  0
 11 28  1  0  0  0  0
 11 29  1  0  0  0  0
 12 15  1  0  0  0  0
 12 16  1  0  0  0  0
 13 30  1  0  0  0  0
 13 31  1  0  0  0  0
 13 32  1  0  0  0  0
 14 17  1  0  0  0  0
 14 33  1  0  0  0  0
 15 37  1  0  0  0  0
 15 38  1  0  0  0  0
 15 39  1  0  0  0  0
 16 35  1  0  0  0  0
 16 36  1  0  0  0  0
 16 40  1  0  0  0  0
 17 41  1  0  0  0  0
 17 42  1  0  0  0  0
M  END
>  <PUBCHEM_COMPOUND_CID>
101648403

>  <PUBCHEM_COMPOUND_CANONICALIZED>
1

>  <PUBCHEM_CACTVS_COMPLEXITY>
294

>  <PUBCHEM_CACTVS_HBOND_ACCEPTOR>
2

>  <PUBCHEM_CACTVS_HBOND_DONOR>
2

>  <PUBCHEM_CACTVS_ROTATABLE_BOND>
7

>  <PUBCHEM_CACTVS_SUBSKEYS>
AAADceBwMAAAAAAAAAAAAAAAAAAAAAAAAAAAAAAAAAAAAAAAAAAAGgAACAAADBSggAICAAAAAgCAAiBCAAAAAAAgAAAACAAAAAgAFAIAAQAAUAAEwAAIEAIAAAAAAAAAAAAAAAAAAAAAAAAAAAAAAAAAAA==

>  <PUBCHEM_IUPAC_OPENEYE_NAME>
(2E,6E)-3,7,11-trimethyldodeca-2,6,10-triene-1,9-diol

>  <PUBCHEM_IUPAC_CAS_NAME>
(2E,6E)-3,7,11-trimethyldodeca-2,6,10-triene-1,9-diol

>  <PUBCHEM_IUPAC_NAME>
(2E,6E)-3,7,11-trimethyldodeca-2,6,10-triene-1,9-diol

>  <PUBCHEM_IUPAC_SYSTEMATIC_NAME>
(2E,6E)-3,7,11-trimethyldodeca-2,6,10-triene-1,9-diol

>  <PUBCHEM_IUPAC_TRADITIONAL_NAME>
(2E,6E)-3,7,11-trimethyldodeca-2,6,10-triene-1,9-diol

>  <PUBCHEM_IUPAC_INCHI>
InChI=1S/C15H26O2/c1-12(2)10-15(17)11-14(4)7-5-6-13(3)8-9-16/h7-8,10,15-17H,5-6,9,11H2,1-4H3/b13-8+,14-7+

>  <PUBCHEM_IUPAC_INCHIKEY>
RAFAKSIGGWRDFJ-CCLLZULESA-N

>  <PUBCHEM_XLOGP3_AA>
3.6

>  <PUBCHEM_EXACT_MASS>
238.193

>  <PUBCHEM_MOLECULAR_FORMULA>
C15H26O2

>  <PUBCHEM_MOLECULAR_WEIGHT>
238.371

>  <PUBCHEM_OPENEYE_CAN_SMILES>
CC(=CC(CC(=CCCC(=CCO)C)C)O)C

>  <PUBCHEM_OPENEYE_ISO_SMILES>
CC(=CC(C/C(=C/CC/C(=C/CO)/C)/C)O)C

>  <PUBCHEM_CACTVS_TPSA>
40.5

>  <PUBCHEM_MONOISOTOPIC_WEIGHT>
238.193

>  <PUBCHEM_TOTAL_CHARGE>
0

>  <PUBCHEM_HEAVY_ATOM_COUNT>
17

>  <PUBCHEM_ATOM_DEF_STEREO_COUNT>
0

>  <PUBCHEM_ATOM_UDEF_STEREO_COUNT>
1

>  <PUBCHEM_BOND_DEF_STEREO_COUNT>
2

>  <PUBCHEM_BOND_UDEF_STEREO_COUNT>
0

>  <PUBCHEM_ISOTOPIC_ATOM_COUNT>
0

>  <PUBCHEM_COMPONENT_COUNT>
1

>  <PUBCHEM_CACTVS_TAUTO_COUNT>
1

>  <PUBCHEM_COORDINATE_TYPE>
1
5
255

>  <PUBCHEM_BONDANNOTATIONS>
5  1  3

$$$$
