101633885
 OpenBabel06101807152D

108113  0  0  1  0  0  0  0  0999 V2000
    8.5991   -0.0901    0.0000 O   0  0  0  0  0  0  0  0  0  0  0  0
   14.6720   -0.6057    0.0000 O   0  0  0  0  0  0  0  0  0  0  0  0
    6.8671   -2.0901    0.0000 O   0  0  0  0  0  0  0  0  0  0  0  0
   10.3312   -0.0901    0.0000 O   0  0  0  0  0  0  0  0  0  0  0  0
    8.5991   -3.0901    0.0000 O   0  0  0  0  0  0  0  0  0  0  0  0
   10.3312   -2.0901    0.0000 O   0  0  0  0  0  0  0  0  0  0  0  0
   13.8233    0.9042    0.0000 O   0  0  0  0  0  0  0  0  0  0  0  0
   13.7771   -3.0955    0.0000 O   0  0  0  0  0  0  0  0  0  0  0  0
   12.0567   -2.0756    0.0000 O   0  0  0  0  0  0  0  0  0  0  0  0
   12.0799   -0.0757    0.0000 O   0  0  0  0  0  0  0  0  0  0  0  0
    6.0010   -0.5901    0.0000 O   0  0  0  0  0  0  0  0  0  0  0  0
   16.3923   -1.6257    0.0000 O   0  0  0  0  0  0  0  0  0  0  0  0
   12.1145    2.9241    0.0000 O   0  3  0  0  0  0  0  0  0  0  0  0
    7.7331   -3.5901    0.0000 O   0  0  0  0  0  0  0  0  0  0  0  0
    8.5849    2.9891    0.0000 O   0  0  0  0  0  0  0  0  0  0  0  0
    5.1350    0.9099    0.0000 O   0  0  0  0  0  0  0  0  0  0  0  0
   17.2410   -3.1356    0.0000 O   0  0  0  0  0  0  0  0  0  0  0  0
    5.1350   -5.0901    0.0000 O   0  0  0  0  0  0  0  0  0  0  0  0
    6.8671   -5.0901    0.0000 O   0  0  0  0  0  0  0  0  0  0  0  0
   14.7414    5.3939    0.0000 O   0  0  0  0  0  0  0  0  0  0  0  0
   16.4386    2.3741    0.0000 O   0  0  0  0  0  0  0  0  0  0  0  0
    2.5369   -0.5901    0.0000 O   0  0  0  0  0  0  0  0  0  0  0  0
   16.4617    4.3739    0.0000 O   0  0  0  0  0  0  0  0  0  0  0  0
    3.4030    0.9099    0.0000 O   0  0  0  0  0  0  0  0  0  0  0  0
   22.4715   -0.1959    0.0000 O   0  0  0  0  0  0  0  0  0  0  0  0
    7.7331   -1.5901    0.0000 C   0  0  1  0  0  0  0  0  0  0  0  0
    8.5991   -2.0901    0.0000 C   0  0  1  0  0  0  0  0  0  0  0  0
    7.7331   -0.5901    0.0000 C   0  0  1  0  0  0  0  0  0  0  0  0
    9.4651   -1.5901    0.0000 C   0  0  2  0  0  0  0  0  0  0  0  0
    9.4651   -0.5901    0.0000 C   0  0  1  0  0  0  0  0  0  0  0  0
   13.7887   -2.0956    0.0000 C   0  0  1  0  0  0  0  0  0  0  0  0
   12.9285   -1.5856    0.0000 C   0  0  1  0  0  0  0  0  0  0  0  0
   14.6604   -1.6056    0.0000 C   0  0  1  0  0  0  0  0  0  0  0  0
   12.9400   -0.5857    0.0000 C   0  0  2  0  0  0  0  0  0  0  0  0
   13.8118   -0.0957    0.0000 C   0  0  1  0  0  0  0  0  0  0  0  0
    6.8671   -0.0901    0.0000 C   0  0  0  0  0  0  0  0  0  0  0  0
   15.5206   -2.1156    0.0000 C   0  0  0  0  0  0  0  0  0  0  0  0
   10.3312    0.9099    0.0000 C   0  0  0  0  0  0  0  0  0  0  0  0
   12.9632    1.4142    0.0000 C   0  0  0  0  0  0  0  0  0  0  0  0
   11.2312    1.4342    0.0000 C   0  0  0  0  0  0  0  0  0  0  0  0
    6.8671   -3.0901    0.0000 C   0  0  0  0  0  0  0  0  0  0  0  0
   12.0914    0.9242    0.0000 C   0  0  0  0  0  0  0  0  0  0  0  0
   11.2428    2.4341    0.0000 C   0  0  0  0  0  0  0  0  0  0  0  0
   12.9747    2.4141    0.0000 C   0  0  0  0  0  0  0  0  0  0  0  0
    9.4311    1.4342    0.0000 C   0  0  0  0  0  0  0  0  0  0  0  0
    6.0010   -3.5901    0.0000 C   0  0  0  0  0  0  0  0  0  0  0  0
   10.3551    2.9791    0.0000 C   0  0  0  0  0  0  0  0  0  0  0  0
    9.4431    2.4758    0.0000 C   0  0  0  0  0  0  0  0  0  0  0  0
    5.1350   -0.0901    0.0000 C   0  0  0  0  0  0  0  0  0  0  0  0
   13.8465    2.9041    0.0000 C   0  0  0  0  0  0  0  0  0  0  0  0
   17.2525   -2.1356    0.0000 C   0  0  0  0  0  0  0  0  0  0  0  0
    4.2690   -0.5901    0.0000 C   0  0  0  0  0  0  0  0  0  0  0  0
    6.0010   -4.5901    0.0000 C   0  0  0  0  0  0  0  0  0  0  0  0
   14.7067    2.3941    0.0000 C   0  0  0  0  0  0  0  0  0  0  0  0
   13.8580    3.9040    0.0000 C   0  0  0  0  0  0  0  0  0  0  0  0
   18.1243   -1.6457    0.0000 C   0  0  0  0  0  0  0  0  0  0  0  0
   14.7298    4.3940    0.0000 C   0  0  0  0  0  0  0  0  0  0  0  0
   15.5784    2.8840    0.0000 C   0  0  0  0  0  0  0  0  0  0  0  0
    3.4030   -0.0901    0.0000 C   0  0  0  0  0  0  0  0  0  0  0  0
   15.5900    3.8840    0.0000 C   0  0  0  0  0  0  0  0  0  0  0  0
   18.9845   -2.1557    0.0000 C   0  0  0  0  0  0  0  0  0  0  0  0
   19.8562   -1.6657    0.0000 C   0  0  0  0  0  0  0  0  0  0  0  0
   20.7164   -2.1757    0.0000 C   0  0  0  0  0  0  0  0  0  0  0  0
   19.8678   -0.6658    0.0000 C   0  0  0  0  0  0  0  0  0  0  0  0
   21.5882   -1.6858    0.0000 C   0  0  0  0  0  0  0  0  0  0  0  0
   20.7395   -0.1758    0.0000 C   0  0  0  0  0  0  0  0  0  0  0  0
   21.5997   -0.6858    0.0000 C   0  0  0  0  0  0  0  0  0  0  0  0
    7.7331   -2.2101    0.0000 H   0  0  0  0  0  0  0  0  0  0  0  0
    9.1360   -2.4001    0.0000 H   0  0  0  0  0  0  0  0  0  0  0  0
    7.7331    0.0299    0.0000 H   0  0  0  0  0  0  0  0  0  0  0  0
   10.0021   -1.2801    0.0000 H   0  0  0  0  0  0  0  0  0  0  0  0
    9.4651    0.0299    0.0000 H   0  0  0  0  0  0  0  0  0  0  0  0
   14.3220   -2.4118    0.0000 H   0  0  0  0  0  0  0  0  0  0  0  0
   12.3952   -1.2694    0.0000 H   0  0  0  0  0  0  0  0  0  0  0  0
   15.2009   -1.3019    0.0000 H   0  0  0  0  0  0  0  0  0  0  0  0
   12.9472    0.0343    0.0000 H   0  0  0  0  0  0  0  0  0  0  0  0
   14.3523    0.2080    0.0000 H   0  0  0  0  0  0  0  0  0  0  0  0
    7.2656    0.3849    0.0000 H   0  0  0  0  0  0  0  0  0  0  0  0
    6.4685    0.3849    0.0000 H   0  0  0  0  0  0  0  0  0  0  0  0
   15.1166   -2.5859    0.0000 H   0  0  0  0  0  0  0  0  0  0  0  0
   15.9136   -2.5952    0.0000 H   0  0  0  0  0  0  0  0  0  0  0  0
    9.1360   -3.4001    0.0000 H   0  0  0  0  0  0  0  0  0  0  0  0
   10.8681   -1.7801    0.0000 H   0  0  0  0  0  0  0  0  0  0  0  0
   14.3104   -3.4117    0.0000 H   0  0  0  0  0  0  0  0  0  0  0  0
   12.0496   -2.6955    0.0000 H   0  0  0  0  0  0  0  0  0  0  0  0
   11.5394   -0.3795    0.0000 H   0  0  0  0  0  0  0  0  0  0  0  0
   12.0842    0.3043    0.0000 H   0  0  0  0  0  0  0  0  0  0  0  0
    8.8918    1.1284    0.0000 H   0  0  0  0  0  0  0  0  0  0  0  0
    5.7890   -3.0075    0.0000 H   0  0  0  0  0  0  0  0  0  0  0  0
    5.3905   -3.6977    0.0000 H   0  0  0  0  0  0  0  0  0  0  0  0
   10.3694    3.5989    0.0000 H   0  0  0  0  0  0  0  0  0  0  0  0
    3.8705   -1.0650    0.0000 H   0  0  0  0  0  0  0  0  0  0  0  0
    4.6675   -1.0650    0.0000 H   0  0  0  0  0  0  0  0  0  0  0  0
   14.6995    1.7741    0.0000 H   0  0  0  0  0  0  0  0  0  0  0  0
   13.3247    4.2202    0.0000 H   0  0  0  0  0  0  0  0  0  0  0  0
    8.5945    3.6090    0.0000 H   0  0  0  0  0  0  0  0  0  0  0  0
   18.1314   -1.0257    0.0000 H   0  0  0  0  0  0  0  0  0  0  0  0
   18.9773   -2.7756    0.0000 H   0  0  0  0  0  0  0  0  0  0  0  0
    5.1350   -5.7101    0.0000 H   0  0  0  0  0  0  0  0  0  0  0  0
   14.2080    5.7101    0.0000 H   0  0  0  0  0  0  0  0  0  0  0  0
   16.9791    2.6778    0.0000 H   0  0  0  0  0  0  0  0  0  0  0  0
    2.0000   -0.2801    0.0000 H   0  0  0  0  0  0  0  0  0  0  0  0
   16.4689    4.9939    0.0000 H   0  0  0  0  0  0  0  0  0  0  0  0
   20.7092   -2.7957    0.0000 H   0  0  0  0  0  0  0  0  0  0  0  0
   19.3345   -0.3496    0.0000 H   0  0  0  0  0  0  0  0  0  0  0  0
   22.1215   -2.0019    0.0000 H   0  0  0  0  0  0  0  0  0  0  0  0
   20.7467    0.4441    0.0000 H   0  0  0  0  0  0  0  0  0  0  0  0
   23.0048   -0.5121    0.0000 H   0  0  0  0  0  0  0  0  0  0  0  0
  1 28  1  0  0  0  0
  1 30  1  0  0  0  0
  2 33  1  0  0  0  0
  2 35  1  0  0  0  0
  3 41  1  0  0  0  0
  4 38  1  0  0  0  0
  5 82  1  0  0  0  0
  6 83  1  0  0  0  0
  7 39  1  0  0  0  0
  8 84  1  0  0  0  0
  9 85  1  0  0  0  0
 10 86  1  0  0  0  0
 11 36  1  0  0  0  0
 11 49  1  0  0  0  0
 12 37  1  0  0  0  0
 12 51  1  0  0  0  0
 13 43  2  0  0  0  0
 13 44  1  0  0  0  0
 14 41  2  0  0  0  0
 15 48  1  0  0  0  0
 15 96  1  0  0  0  0
 16 49  2  0  0  0  0
 17 51  2  0  0  0  0
 18 53  1  0  0  0  0
 18 99  1  0  0  0  0
 19 53  2  0  0  0  0
 20 57  1  0  0  0  0
 20100  1  0  0  0  0
 21 58  1  0  0  0  0
 21101  1  0  0  0  0
 22 59  1  0  0  0  0
 22102  1  0  0  0  0
 23 60  1  0  0  0  0
 23103  1  0  0  0  0
 24 59  2  0  0  0  0
 25 67  1  0  0  0  0
 25108  1  0  0  0  0
 26  3  1  0  0  0  0
 26 27  1  6  0  0  0
 26 68  1  0  0  0  0
 27  5  1  0  0  0  0
 27 29  1  1  0  0  0
 27 69  1  0  0  0  0
 28 26  1  6  0  0  0
 28 36  1  0  0  0  0
 28 70  1  0  0  0  0
 29  6  1  0  0  0  0
 29 30  1  6  0  0  0
 29 71  1  0  0  0  0
 30  4  1  0  0  0  0
 30 72  1  6  0  0  0
 31  8  1  0  0  0  0
 31 32  1  6  0  0  0
 31 73  1  0  0  0  0
 32  9  1  0  0  0  0
 32 34  1  6  0  0  0
 32 74  1  0  0  0  0
 33 31  1  1  0  0  0
 33 37  1  0  0  0  0
 33 75  1  0  0  0  0
 34 10  1  0  0  0  0
 34 35  1  1  0  0  0
 34 76  1  0  0  0  0
 35  7  1  0  0  0  0
 35 77  1  1  0  0  0
 36 78  1  0  0  0  0
 36 79  1  0  0  0  0
 37 80  1  0  0  0  0
 37 81  1  0  0  0  0
 38 40  1  0  0  0  0
 38 45  2  0  0  0  0
 39 42  1  0  0  0  0
 39 44  2  0  0  0  0
 40 42  2  0  0  0  0
 40 43  1  0  0  0  0
 41 46  1  0  0  0  0
 42 87  1  0  0  0  0
 43 47  1  0  0  0  0
 44 50  1  0  0  0  0
 45 48  1  0  0  0  0
 45 88  1  0  0  0  0
 46 53  1  0  0  0  0
 46 89  1  0  0  0  0
 46 90  1  0  0  0  0
 47 48  2  0  0  0  0
 47 91  1  0  0  0  0
 49 52  1  0  0  0  0
 50 54  2  0  0  0  0
 50 55  1  0  0  0  0
 51 56  1  0  0  0  0
 52 59  1  0  0  0  0
 52 92  1  0  0  0  0
 52 93  1  0  0  0  0
 54 58  1  0  0  0  0
 54 94  1  0  0  0  0
 55 57  2  0  0  0  0
 55 95  1  0  0  0  0
 56 61  2  3  0  0  0
 56 97  1  0  0  0  0
 57 60  1  0  0  0  0
 58 60  2  0  0  0  0
 61 62  1  0  0  0  0
 61 98  1  0  0  0  0
 62 63  2  0  0  0  0
 62 64  1  0  0  0  0
 63 65  1  0  0  0  0
 63104  1  0  0  0  0
 64 66  2  0  0  0  0
 64105  1  0  0  0  0
 65 67  2  0  0  0  0
 65106  1  0  0  0  0
 66 67  1  0  0  0  0
 66107  1  0  0  0  0
M  CHG  1  13   1
M  END
>  <PUBCHEM_COMPOUND_CID>
101633885

>  <PUBCHEM_COMPOUND_CANONICALIZED>
1

>  <PUBCHEM_CACTVS_COMPLEXITY>
1710

>  <PUBCHEM_CACTVS_HBOND_ACCEPTOR>
24

>  <PUBCHEM_CACTVS_HBOND_DONOR>
12

>  <PUBCHEM_CACTVS_ROTATABLE_BOND>
19

>  <PUBCHEM_CACTVS_SUBSKEYS>
AAADcfB8PgAAAAAAAAAAAAAAAAAAAAAAAAA0aNECAAAAAACR9AAAGgAACAAADBSwmAMwDsAABkCIAqDSCAICCAAkIAAIiAFGiMgdNzaONR6ieWOl4BUPuYfK7PzOIAABCAAIQABAAAIQABCAAAAAAAAAAA==

>  <PUBCHEM_IUPAC_OPENEYE_NAME>
3-[[(2R,3S,4R,5R,6S)-3-(2-carboxyacetyl)oxy-4,5-dihydroxy-6-[7-hydroxy-3-[(2S,3R,4S,5S,6R)-3,4,5-trihydroxy-6-[3-(4-hydroxyphenyl)prop-2-enoyloxymethyl]tetrahydropyran-2-yl]oxy-2-(3,4,5-trihydroxyphenyl)chromenylium-5-yl]oxy-tetrahydropyran-2-yl]methoxy]-3-oxo-propanoic acid

>  <PUBCHEM_IUPAC_CAS_NAME>
3-[[(2R,3S,4R,5R,6S)-3-(2-carboxy-1-oxoethoxy)-4,5-dihydroxy-6-[[7-hydroxy-3-[[(2S,3R,4S,5S,6R)-3,4,5-trihydroxy-6-[[3-(4-hydroxyphenyl)-1-oxoprop-2-enoxy]methyl]-2-oxanyl]oxy]-2-(3,4,5-trihydroxyphenyl)-1-benzopyrylium-5-yl]oxy]-2-oxanyl]methoxy]-3-oxopropanoic acid

>  <PUBCHEM_IUPAC_NAME>
3-[[(2R,3S,4R,5R,6S)-3-(2-carboxyacetyl)oxy-4,5-dihydroxy-6-[7-hydroxy-3-[(2S,3R,4S,5S,6R)-3,4,5-trihydroxy-6-[3-(4-hydroxyphenyl)prop-2-enoyloxymethyl]oxan-2-yl]oxy-2-(3,4,5-trihydroxyphenyl)chromenylium-5-yl]oxyoxan-2-yl]methoxy]-3-oxopropanoic acid

>  <PUBCHEM_IUPAC_SYSTEMATIC_NAME>
3-[[(2R,3S,4R,5R,6S)-6-[3-[(2S,3R,4S,5S,6R)-6-[3-(4-hydroxyphenyl)prop-2-enoyloxymethyl]-3,4,5-tris(oxidanyl)oxan-2-yl]oxy-7-oxidanyl-2-[3,4,5-tris(oxidanyl)phenyl]chromenylium-5-yl]oxy-4,5-bis(oxidanyl)-3-(3-oxidanyl-3-oxidanylidene-propanoyl)oxy-oxan-2-yl]methoxy]-3-oxidanylidene-propanoic acid

>  <PUBCHEM_IUPAC_TRADITIONAL_NAME>
3-[[(2R,3S,4R,5R,6S)-3-(2-carboxyacetyl)oxy-4,5-dihydroxy-6-[[7-hydroxy-3-[(2S,3R,4S,5S,6R)-3,4,5-trihydroxy-6-[[3-(4-hydroxyphenyl)acryloyl]oxymethyl]tetrahydropyran-2-yl]oxy-2-(3,4,5-trihydroxyphenyl)-1-benzopyrylium-5-yl]oxy]tetrahydropyran-2-yl]methoxy]-3-keto-propionic acid

>  <PUBCHEM_IUPAC_INCHI>
InChI=1S/C42H40O25/c43-18-4-1-16(2-5-18)3-6-30(51)60-14-26-34(55)35(56)37(58)41(65-26)64-25-11-20-23(62-39(25)17-7-21(45)33(54)22(46)8-17)9-19(44)10-24(20)63-42-38(59)36(57)40(67-32(53)13-29(49)50)27(66-42)15-61-31(52)12-28(47)48/h1-11,26-27,34-38,40-42,55-59H,12-15H2,(H6-,43,44,45,46,47,48,49,50,51,54)/p+1/t26-,27-,34-,35+,36-,37-,38-,40-,41-,42-/m1/s1

>  <PUBCHEM_IUPAC_INCHIKEY>
LVWQQRKFDAHVIR-KJEREKKNSA-O

>  <PUBCHEM_EXACT_MASS>
945.194

>  <PUBCHEM_MOLECULAR_FORMULA>
C42H41O25+

>  <PUBCHEM_MOLECULAR_WEIGHT>
945.765

>  <PUBCHEM_OPENEYE_CAN_SMILES>
C1=CC(=CC=C1C=CC(=O)OCC2C(C(C(C(O2)OC3=C([O+]=C4C=C(C=C(C4=C3)OC5C(C(C(C(O5)COC(=O)CC(=O)O)OC(=O)CC(=O)O)O)O)O)C6=CC(=C(C(=C6)O)O)O)O)O)O)O

>  <PUBCHEM_OPENEYE_ISO_SMILES>
C1=CC(=CC=C1C=CC(=O)OC[C@@H]2[C@H]([C@@H]([C@H]([C@@H](O2)OC3=C([O+]=C4C=C(C=C(C4=C3)O[C@H]5[C@@H]([C@H]([C@@H]([C@H](O5)COC(=O)CC(=O)O)OC(=O)CC(=O)O)O)O)O)C6=CC(=C(C(=C6)O)O)O)O)O)O)O

>  <PUBCHEM_CACTVS_TPSA>
394

>  <PUBCHEM_MONOISOTOPIC_WEIGHT>
945.194

>  <PUBCHEM_TOTAL_CHARGE>
1

>  <PUBCHEM_HEAVY_ATOM_COUNT>
67

>  <PUBCHEM_ATOM_DEF_STEREO_COUNT>
10

>  <PUBCHEM_ATOM_UDEF_STEREO_COUNT>
0

>  <PUBCHEM_BOND_DEF_STEREO_COUNT>
0

>  <PUBCHEM_BOND_UDEF_STEREO_COUNT>
1

>  <PUBCHEM_ISOTOPIC_ATOM_COUNT>
0

>  <PUBCHEM_COMPONENT_COUNT>
1

>  <PUBCHEM_CACTVS_TAUTO_COUNT>
999

>  <PUBCHEM_COORDINATE_TYPE>
1
5
255

>  <PUBCHEM_BONDANNOTATIONS>
34  10  5
13  43  8
13  44  8
28  36  5
26  3  6
33  37  6
38  40  8
38  45  8
39  42  8
39  44  8
30  4  5
40  42  8
40  43  8
43  47  8
45  48  8
47  48  8
27  5  5
50  54  8
50  55  8
54  58  8
55  57  8
56  61  1
57  60  8
58  60  8
29  6  6
62  63  8
62  64  8
63  65  8
64  66  8
65  67  8
66  67  8
35  7  6
31  8  5
32  9  6

$$$$
