101618977
 OpenBabel06101807152D

 48 52  0  0  1  0  0  0  0  0999 V2000
    4.9249    1.0406    0.0000 O   0  0  0  0  0  0  0  0  0  0  0  0
    5.6509   -2.3392    0.0000 O   0  0  0  0  0  0  0  0  0  0  0  0
    2.5031    1.5971    0.0000 O   0  0  0  0  0  0  0  0  0  0  0  0
    6.0018    2.2690    0.0000 O   0  0  0  0  0  0  0  0  0  0  0  0
    4.2758    2.1234    0.0000 O   0  0  0  0  0  0  0  0  0  0  0  0
    5.9930    0.1523    0.0000 C   0  0  1  0  0  0  0  0  0  0  0  0
    4.7790   -0.6933    0.0000 C   0  0  2  0  0  0  0  0  0  0  0  0
    5.6911   -0.7149    0.0000 C   0  0  2  0  0  0  0  0  0  0  0  0
    4.5160    0.1807    0.0000 C   0  0  2  0  0  0  0  0  0  0  0  0
    5.2648    0.7015    0.0000 C   0  0  2  0  0  0  0  0  0  0  0  0
    3.5987    0.3967    0.0000 C   0  0  1  0  0  0  0  0  0  0  0  0
    6.6890   -0.6801    0.0000 C   0  0  0  0  0  0  0  0  0  0  0  0
    6.1813   -1.4914    0.0000 C   0  0  2  0  0  0  0  0  0  0  0  0
    6.8599    0.4569    0.0000 C   0  0  0  0  0  0  0  0  0  0  0  0
    7.7419   -0.9427    0.0000 C   0  0  1  0  0  0  0  0  0  0  0  0
    4.1412   -1.4079    0.0000 C   0  0  0  0  0  0  0  0  0  0  0  0
    7.0936   -1.5927    0.0000 C   0  0  0  0  0  0  0  0  0  0  0  0
    2.9536   -0.2895    0.0000 C   0  0  0  0  0  0  0  0  0  0  0  0
    7.6375   -0.0301    0.0000 C   0  0  0  0  0  0  0  0  0  0  0  0
    3.2251   -1.1921    0.0000 C   0  0  0  0  0  0  0  0  0  0  0  0
    3.3339    1.0406    0.0000 C   0  0  0  0  0  0  0  0  0  0  0  0
    5.1808    1.6980    0.0000 C   0  0  0  0  0  0  0  0  0  0  0  0
    2.6153    0.5779    0.0000 C   0  0  0  0  0  0  0  0  0  0  0  0
    8.4411    0.5650    0.0000 C   0  0  0  0  0  0  0  0  0  0  0  0
    5.2719   -1.4544    0.0000 H   0  0  0  0  0  0  0  0  0  0  0  0
    4.0810    0.9109    0.0000 H   0  0  0  0  0  0  0  0  0  0  0  0
    5.8076    1.0011    0.0000 H   0  0  0  0  0  0  0  0  0  0  0  0
    6.7319   -1.2986    0.0000 H   0  0  0  0  0  0  0  0  0  0  0  0
    6.1139   -0.9117    0.0000 H   0  0  0  0  0  0  0  0  0  0  0  0
    6.4513   -2.0496    0.0000 H   0  0  0  0  0  0  0  0  0  0  0  0
    6.5293    0.9815    0.0000 H   0  0  0  0  0  0  0  0  0  0  0  0
    7.2977    0.8960    0.0000 H   0  0  0  0  0  0  0  0  0  0  0  0
    8.5446   -1.2222    0.0000 H   0  0  0  0  0  0  0  0  0  0  0  0
    4.6656   -1.7388    0.0000 H   0  0  0  0  0  0  0  0  0  0  0  0
    3.9015   -1.9796    0.0000 H   0  0  0  0  0  0  0  0  0  0  0  0
    7.6191   -1.9218    0.0000 H   0  0  0  0  0  0  0  0  0  0  0  0
    6.8898   -2.1782    0.0000 H   0  0  0  0  0  0  0  0  0  0  0  0
    2.3999   -0.5685    0.0000 H   0  0  0  0  0  0  0  0  0  0  0  0
    2.5826    0.2073    0.0000 H   0  0  0  0  0  0  0  0  0  0  0  0
    3.1899   -1.8111    0.0000 H   0  0  0  0  0  0  0  0  0  0  0  0
    2.6094   -1.2649    0.0000 H   0  0  0  0  0  0  0  0  0  0  0  0
    2.5030   -0.0319    0.0000 H   0  0  0  0  0  0  0  0  0  0  0  0
    2.0055    0.6902    0.0000 H   0  0  0  0  0  0  0  0  0  0  0  0
    2.7276    1.1876    0.0000 H   0  0  0  0  0  0  0  0  0  0  0  0
    5.9416   -2.8868    0.0000 H   0  0  0  0  0  0  0  0  0  0  0  0
    8.3707    1.1810    0.0000 H   0  0  0  0  0  0  0  0  0  0  0  0
    9.0098    0.3181    0.0000 H   0  0  0  0  0  0  0  0  0  0  0  0
    5.9497    2.8868    0.0000 H   0  0  0  0  0  0  0  0  0  0  0  0
  1 21  1  0  0  0  0
  2 45  1  0  0  0  0
  3 21  2  0  0  0  0
  4 22  1  0  0  0  0
  4 48  1  0  0  0  0
  5 22  2  0  0  0  0
  6  8  1  6  0  0  0
  6 12  1  0  0  0  0
  6 14  1  0  0  0  0
  7  1  1  0  0  0  0
  7  8  1  6  0  0  0
  7 16  1  0  0  0  0
  8 13  1  1  0  0  0
  8 25  1  0  0  0  0
  9  7  1  6  0  0  0
  9 10  1  0  0  0  0
  9 26  1  0  0  0  0
 10  6  1  6  0  0  0
 10 22  1  0  0  0  0
 10 27  1  0  0  0  0
 11  9  1  6  0  0  0
 11 18  1  0  0  0  0
 11 21  1  0  0  0  0
 11 23  1  0  0  0  0
 12 15  1  0  0  0  0
 12 28  1  0  0  0  0
 12 29  1  0  0  0  0
 13  2  1  0  0  0  0
 13 17  1  0  0  0  0
 13 30  1  1  0  0  0
 14 19  1  0  0  0  0
 14 31  1  0  0  0  0
 14 32  1  0  0  0  0
 15 17  1  0  0  0  0
 15 19  1  0  0  0  0
 15 33  1  1  0  0  0
 16 20  1  0  0  0  0
 16 34  1  0  0  0  0
 16 35  1  0  0  0  0
 17 36  1  0  0  0  0
 17 37  1  0  0  0  0
 18 20  1  0  0  0  0
 18 38  1  0  0  0  0
 18 39  1  0  0  0  0
 19 24  2  0  0  0  0
 20 40  1  0  0  0  0
 20 41  1  0  0  0  0
 23 42  1  0  0  0  0
 23 43  1  0  0  0  0
 23 44  1  0  0  0  0
 24 46  1  0  0  0  0
 24 47  1  0  0  0  0
M  END
>  <PUBCHEM_COMPOUND_CID>
101618977

>  <PUBCHEM_COMPOUND_CANONICALIZED>
1

>  <PUBCHEM_CACTVS_COMPLEXITY>
685

>  <PUBCHEM_CACTVS_HBOND_ACCEPTOR>
5

>  <PUBCHEM_CACTVS_HBOND_DONOR>
2

>  <PUBCHEM_CACTVS_ROTATABLE_BOND>
1

>  <PUBCHEM_CACTVS_SUBSKEYS>
AAADceB4OAAAAAAAAAAAAAAAAAAAAaMEAAAwYAAABogSAGDAAAAAGgAACAAAD1SggAICCAAABgCIAgDSCAAAAAAgAAAAAAEAAAgAEBIAAQACQAAFgAAAAAHK7vzPgAAAAAAAAACAAAYAADAAAYAADAAAAA==

>  <PUBCHEM_IUPAC_INCHI>
InChI=1S/C19H24O5/c1-9-7-18-8-10(9)6-11(20)13(18)19-5-3-4-17(2,16(23)24-19)14(19)12(18)15(21)22/h10-14,20H,1,3-8H2,2H3,(H,21,22)/t10-,11+,12-,13-,14-,17-,18-,19-/m1/s1

>  <PUBCHEM_IUPAC_INCHIKEY>
QFNOXIVRVOZOPN-XFEHBKOQSA-N

>  <PUBCHEM_XLOGP3_AA>
1.5

>  <PUBCHEM_EXACT_MASS>
332.162

>  <PUBCHEM_MOLECULAR_FORMULA>
C19H24O5

>  <PUBCHEM_MOLECULAR_WEIGHT>
332.396

>  <PUBCHEM_OPENEYE_CAN_SMILES>
CC12CCCC3(C1C(C45C3C(CC(C4)C(=C)C5)O)C(=O)O)OC2=O

>  <PUBCHEM_OPENEYE_ISO_SMILES>
C[C@@]12CCC[C@@]3([C@@H]1[C@@H]([C@]45[C@H]3[C@H](C[C@H](C4)C(=C)C5)O)C(=O)O)OC2=O

>  <PUBCHEM_CACTVS_TPSA>
83.8

>  <PUBCHEM_MONOISOTOPIC_WEIGHT>
332.162

>  <PUBCHEM_TOTAL_CHARGE>
0

>  <PUBCHEM_HEAVY_ATOM_COUNT>
24

>  <PUBCHEM_ATOM_DEF_STEREO_COUNT>
8

>  <PUBCHEM_ATOM_UDEF_STEREO_COUNT>
0

>  <PUBCHEM_BOND_DEF_STEREO_COUNT>
0

>  <PUBCHEM_BOND_UDEF_STEREO_COUNT>
0

>  <PUBCHEM_ISOTOPIC_ATOM_COUNT>
0

>  <PUBCHEM_COMPONENT_COUNT>
1

>  <PUBCHEM_CACTVS_TAUTO_COUNT>
2

>  <PUBCHEM_COORDINATE_TYPE>
1
5
255

>  <PUBCHEM_BONDANNOTATIONS>
7  1  5
10  22  6
11  23  6
15  33  5
13  2  6
6  12  5
8  25  6
9  26  6

$$$$
