101773473
 OpenBabel06101807152D

 69 73  0  0  1  0  0  0  0  0999 V2000
    7.7806    0.9431    0.0000 O   0  0  0  0  0  0  0  0  0  0  0  0
    4.2690   -0.1501    0.0000 O   0  0  0  0  0  0  0  0  0  0  0  0
    6.0010   -0.1501    0.0000 O   0  0  0  0  0  0  0  0  0  0  0  0
    6.2284    3.0135    0.0000 O   0  0  0  0  0  0  0  0  0  0  0  0
    9.4443    1.5818    0.0000 O   0  0  0  0  0  0  0  0  0  0  0  0
    6.0010   -2.1501    0.0000 O   0  0  0  0  0  0  0  0  0  0  0  0
    8.3565    3.4659    0.0000 O   0  0  0  0  0  0  0  0  0  0  0  0
    4.2690   -3.1501    0.0000 O   0  0  0  0  0  0  0  0  0  0  0  0
    2.5369   -2.1501    0.0000 O   0  0  0  0  0  0  0  0  0  0  0  0
    2.5369    0.8499    0.0000 O   0  0  0  0  0  0  0  0  0  0  0  0
   11.2523   -0.3499    0.0000 O   0  0  0  0  0  0  0  0  0  0  0  0
    8.2687   -0.0363    0.0000 O   0  0  0  0  0  0  0  0  0  0  0  0
    8.0515   -1.7715    0.0000 O   0  0  0  0  0  0  0  0  0  0  0  0
   10.9073   -3.8632    0.0000 O   0  0  0  0  0  0  0  0  0  0  0  0
   13.1967    3.7998    0.0000 O   0  0  0  0  0  0  0  0  0  0  0  0
    6.8671    1.3499    0.0000 C   0  0  1  0  0  0  0  0  0  0  0  0
    6.9716    2.3444    0.0000 C   0  0  1  0  0  0  0  0  0  0  0  0
    5.1350   -1.6501    0.0000 C   0  0  2  0  0  0  0  0  0  0  0  0
    4.2690   -2.1501    0.0000 C   0  0  2  0  0  0  0  0  0  0  0  0
    7.9497    2.5523    0.0000 C   0  0  2  0  0  0  0  0  0  0  0  0
    5.1350   -0.6501    0.0000 C   0  0  1  0  0  0  0  0  0  0  0  0
    3.4030   -1.6501    0.0000 C   0  0  1  0  0  0  0  0  0  0  0  0
    3.4030   -0.6501    0.0000 C   0  0  1  0  0  0  0  0  0  0  0  0
    8.4497    1.6863    0.0000 C   0  0  1  0  0  0  0  0  0  0  0  0
    6.0010    0.8499    0.0000 C   0  0  0  0  0  0  0  0  0  0  0  0
    2.5369   -0.1501    0.0000 C   0  0  0  0  0  0  0  0  0  0  0  0
    9.8510    0.6682    0.0000 C   0  0  0  0  0  0  0  0  0  0  0  0
   10.8455    0.5637    0.0000 C   0  0  0  0  0  0  0  0  0  0  0  0
    9.2632   -0.1408    0.0000 C   0  0  0  0  0  0  0  0  0  0  0  0
    9.6700   -1.0543    0.0000 C   0  0  0  0  0  0  0  0  0  0  0  0
   10.6645   -1.1589    0.0000 C   0  0  0  0  0  0  0  0  0  0  0  0
   11.4333    1.3727    0.0000 C   0  0  0  0  0  0  0  0  0  0  0  0
    9.0448   -1.8875    0.0000 C   0  0  0  0  0  0  0  0  0  0  0  0
   11.1028   -2.1038    0.0000 C   0  0  0  0  0  0  0  0  0  0  0  0
   11.0266    2.2862    0.0000 C   0  0  0  0  0  0  0  0  0  0  0  0
   12.4278    1.2682    0.0000 C   0  0  0  0  0  0  0  0  0  0  0  0
    9.4611   -2.8423    0.0000 C   0  0  0  0  0  0  0  0  0  0  0  0
   10.4970   -2.9512    0.0000 C   0  0  0  0  0  0  0  0  0  0  0  0
   11.6144    3.0953    0.0000 C   0  0  0  0  0  0  0  0  0  0  0  0
   13.0156    2.0772    0.0000 C   0  0  0  0  0  0  0  0  0  0  0  0
   12.6089    2.9907    0.0000 C   0  0  0  0  0  0  0  0  0  0  0  0
    6.8995    0.7307    0.0000 H   0  0  0  0  0  0  0  0  0  0  0  0
    7.1321    2.9433    0.0000 H   0  0  0  0  0  0  0  0  0  0  0  0
    5.1350   -2.2701    0.0000 H   0  0  0  0  0  0  0  0  0  0  0  0
    7.5596    3.0342    0.0000 H   0  0  0  0  0  0  0  0  0  0  0  0
    3.7320   -2.4601    0.0000 H   0  0  0  0  0  0  0  0  0  0  0  0
    5.1350   -0.0301    0.0000 H   0  0  0  0  0  0  0  0  0  0  0  0
    2.8660   -1.3401    0.0000 H   0  0  0  0  0  0  0  0  0  0  0  0
    3.4030   -0.0301    0.0000 H   0  0  0  0  0  0  0  0  0  0  0  0
    8.6719    1.1075    0.0000 H   0  0  0  0  0  0  0  0  0  0  0  0
    5.7890    1.4325    0.0000 H   0  0  0  0  0  0  0  0  0  0  0  0
    5.3905    0.7422    0.0000 H   0  0  0  0  0  0  0  0  0  0  0  0
    1.9264   -0.0425    0.0000 H   0  0  0  0  0  0  0  0  0  0  0  0
    2.3249   -0.7327    0.0000 H   0  0  0  0  0  0  0  0  0  0  0  0
    6.3574    3.6200    0.0000 H   0  0  0  0  0  0  0  0  0  0  0  0
    6.5380   -1.8401    0.0000 H   0  0  0  0  0  0  0  0  0  0  0  0
    7.9920    3.9675    0.0000 H   0  0  0  0  0  0  0  0  0  0  0  0
    3.7320   -3.4601    0.0000 H   0  0  0  0  0  0  0  0  0  0  0  0
    2.0000   -1.8401    0.0000 H   0  0  0  0  0  0  0  0  0  0  0  0
    2.0000    1.1599    0.0000 H   0  0  0  0  0  0  0  0  0  0  0  0
   11.7201   -2.1615    0.0000 H   0  0  0  0  0  0  0  0  0  0  0  0
   10.4100    2.3511    0.0000 H   0  0  0  0  0  0  0  0  0  0  0  0
   12.6800    0.7018    0.0000 H   0  0  0  0  0  0  0  0  0  0  0  0
    9.0947   -3.3425    0.0000 H   0  0  0  0  0  0  0  0  0  0  0  0
   11.3622    3.6617    0.0000 H   0  0  0  0  0  0  0  0  0  0  0  0
   13.6322    2.0124    0.0000 H   0  0  0  0  0  0  0  0  0  0  0  0
    7.6813   -2.2688    0.0000 H   0  0  0  0  0  0  0  0  0  0  0  0
   10.5448   -4.3662    0.0000 H   0  0  0  0  0  0  0  0  0  0  0  0
   12.9445    4.3662    0.0000 H   0  0  0  0  0  0  0  0  0  0  0  0
  1 16  1  0  0  0  0
  1 24  1  0  0  0  0
  2 21  1  0  0  0  0
  2 23  1  0  0  0  0
  3 25  1  0  0  0  0
  4 55  1  0  0  0  0
  5 27  1  0  0  0  0
  6 56  1  0  0  0  0
  7 57  1  0  0  0  0
  8 58  1  0  0  0  0
  9 59  1  0  0  0  0
 10 26  1  0  0  0  0
 10 60  1  0  0  0  0
 11 28  1  0  0  0  0
 11 31  1  0  0  0  0
 12 29  2  0  0  0  0
 13 33  1  0  0  0  0
 13 67  1  0  0  0  0
 14 38  1  0  0  0  0
 14 68  1  0  0  0  0
 15 41  1  0  0  0  0
 15 69  1  0  0  0  0
 16 17  1  1  0  0  0
 16 25  1  0  0  0  0
 16 42  1  0  0  0  0
 17  4  1  0  0  0  0
 17 20  1  6  0  0  0
 17 43  1  0  0  0  0
 18  6  1  0  0  0  0
 18 19  1  6  0  0  0
 18 44  1  0  0  0  0
 19  8  1  0  0  0  0
 19 22  1  1  0  0  0
 19 46  1  0  0  0  0
 20  7  1  0  0  0  0
 20 24  1  6  0  0  0
 20 45  1  0  0  0  0
 21  3  1  0  0  0  0
 21 18  1  6  0  0  0
 21 47  1  0  0  0  0
 22  9  1  0  0  0  0
 22 23  1  6  0  0  0
 22 48  1  0  0  0  0
 23 26  1  0  0  0  0
 23 49  1  6  0  0  0
 24  5  1  0  0  0  0
 24 50  1  1  0  0  0
 25 51  1  0  0  0  0
 25 52  1  0  0  0  0
 26 53  1  0  0  0  0
 26 54  1  0  0  0  0
 27 28  2  0  0  0  0
 27 29  1  0  0  0  0
 28 32  1  0  0  0  0
 29 30  1  0  0  0  0
 30 31  1  0  0  0  0
 30 33  2  0  0  0  0
 31 34  2  0  0  0  0
 32 35  2  0  0  0  0
 32 36  1  0  0  0  0
 33 37  1  0  0  0  0
 34 38  1  0  0  0  0
 34 61  1  0  0  0  0
 35 39  1  0  0  0  0
 35 62  1  0  0  0  0
 36 40  2  0  0  0  0
 36 63  1  0  0  0  0
 37 38  2  0  0  0  0
 37 64  1  0  0  0  0
 39 41  2  0  0  0  0
 39 65  1  0  0  0  0
 40 41  1  0  0  0  0
 40 66  1  0  0  0  0
M  END
>  <PUBCHEM_COMPOUND_CID>
101773473

>  <PUBCHEM_COMPOUND_CANONICALIZED>
1

>  <PUBCHEM_CACTVS_COMPLEXITY>
953

>  <PUBCHEM_CACTVS_HBOND_ACCEPTOR>
15

>  <PUBCHEM_CACTVS_HBOND_DONOR>
9

>  <PUBCHEM_CACTVS_ROTATABLE_BOND>
7

>  <PUBCHEM_CACTVS_SUBSKEYS>
AAADceB4PAAAAAAAAAAAAAAAAAAAASAAAAA0YIEAAAAAAACBQAAAGgAACAAADBSwmAMwDoAABgCIAqBSAAICCAAkIAAIiAFGCMgdNzaGNR6ieWCl4BUPuQfI7KzOIAAACAAIAABAAAAQABAAAAAAAAAAAA==

>  <PUBCHEM_IUPAC_OPENEYE_NAME>
3-[(2S,3R,4R,5R)-3,4-dihydroxy-5-[[(2R,3R,4S,5S,6R)-3,4,5-trihydroxy-6-(hydroxymethyl)tetrahydropyran-2-yl]oxymethyl]tetrahydrofuran-2-yl]oxy-5,7-dihydroxy-2-(4-hydroxyphenyl)chromen-4-one

>  <PUBCHEM_IUPAC_CAS_NAME>
3-[[(2S,3R,4R,5R)-3,4-dihydroxy-5-[[(2R,3R,4S,5S,6R)-3,4,5-trihydroxy-6-(hydroxymethyl)-2-oxanyl]oxymethyl]-2-oxolanyl]oxy]-5,7-dihydroxy-2-(4-hydroxyphenyl)-1-benzopyran-4-one

>  <PUBCHEM_IUPAC_NAME>
3-[(2S,3R,4R,5R)-3,4-dihydroxy-5-[[(2R,3R,4S,5S,6R)-3,4,5-trihydroxy-6-(hydroxymethyl)oxan-2-yl]oxymethyl]oxolan-2-yl]oxy-5,7-dihydroxy-2-(4-hydroxyphenyl)chromen-4-one

>  <PUBCHEM_IUPAC_SYSTEMATIC_NAME>
3-[(2S,3R,4R,5R)-5-[[(2R,3R,4S,5S,6R)-6-(hydroxymethyl)-3,4,5-tris(oxidanyl)oxan-2-yl]oxymethyl]-3,4-bis(oxidanyl)oxolan-2-yl]oxy-2-(4-hydroxyphenyl)-5,7-bis(oxidanyl)chromen-4-one

>  <PUBCHEM_IUPAC_TRADITIONAL_NAME>
3-[(2S,3R,4R,5R)-3,4-dihydroxy-5-[[(2R,3R,4S,5S,6R)-3,4,5-trihydroxy-6-methylol-tetrahydropyran-2-yl]oxymethyl]tetrahydrofuran-2-yl]oxy-5,7-dihydroxy-2-(4-hydroxyphenyl)chromone

>  <PUBCHEM_IUPAC_INCHI>
InChI=1S/C26H28O15/c27-7-14-17(31)20(34)22(36)25(39-14)37-8-15-18(32)21(35)26(40-15)41-24-19(33)16-12(30)5-11(29)6-13(16)38-23(24)9-1-3-10(28)4-2-9/h1-6,14-15,17-18,20-22,25-32,34-36H,7-8H2/t14-,15-,17-,18+,20+,21-,22-,25-,26+/m1/s1

>  <PUBCHEM_IUPAC_INCHIKEY>
ZCSGYFZGLZYNDP-MNMCUWBGSA-N

>  <PUBCHEM_XLOGP3_AA>
-0.8

>  <PUBCHEM_EXACT_MASS>
580.143

>  <PUBCHEM_MOLECULAR_FORMULA>
C26H28O15

>  <PUBCHEM_MOLECULAR_WEIGHT>
580.495

>  <PUBCHEM_OPENEYE_CAN_SMILES>
C1=CC(=CC=C1C2=C(C(=O)C3=C(C=C(C=C3O2)O)O)OC4C(C(C(O4)COC5C(C(C(C(O5)CO)O)O)O)O)O)O

>  <PUBCHEM_OPENEYE_ISO_SMILES>
C1=CC(=CC=C1C2=C(C(=O)C3=C(C=C(C=C3O2)O)O)O[C@H]4[C@@H]([C@H]([C@H](O4)CO[C@H]5[C@@H]([C@H]([C@@H]([C@H](O5)CO)O)O)O)O)O)O

>  <PUBCHEM_CACTVS_TPSA>
245

>  <PUBCHEM_MONOISOTOPIC_WEIGHT>
580.143

>  <PUBCHEM_TOTAL_CHARGE>
0

>  <PUBCHEM_HEAVY_ATOM_COUNT>
41

>  <PUBCHEM_ATOM_DEF_STEREO_COUNT>
9

>  <PUBCHEM_ATOM_UDEF_STEREO_COUNT>
0

>  <PUBCHEM_BOND_DEF_STEREO_COUNT>
0

>  <PUBCHEM_BOND_UDEF_STEREO_COUNT>
0

>  <PUBCHEM_ISOTOPIC_ATOM_COUNT>
0

>  <PUBCHEM_COMPONENT_COUNT>
1

>  <PUBCHEM_CACTVS_TAUTO_COUNT>
45

>  <PUBCHEM_COORDINATE_TYPE>
1
5
255

>  <PUBCHEM_BONDANNOTATIONS>
11  28  8
11  31  8
16  25  6
23  26  5
27  28  8
27  29  8
29  30  8
21  3  5
30  31  8
30  33  8
31  34  8
32  35  8
32  36  8
33  37  8
34  38  8
35  39  8
36  40  8
37  38  8
39  41  8
17  4  6
40  41  8
24  5  6
18  6  6
20  7  5
19  8  5
22  9  6

$$$$
