101757027
 OpenBabel06101807152D

 50 54  0  0  1  0  0  0  0  0999 V2000
    5.3995    3.3731    0.0000 O   0  0  0  0  0  0  0  0  0  0  0  0
    4.5632    1.8563    0.0000 O   0  0  0  0  0  0  0  0  0  0  0  0
    7.9872    3.9242    0.0000 O   0  0  0  0  0  0  0  0  0  0  0  0
    8.0266    1.9246    0.0000 O   0  0  0  0  0  0  0  0  0  0  0  0
    6.3146    0.8906    0.0000 O   0  0  0  0  0  0  0  0  0  0  0  0
    2.8660   -1.1426    0.0000 O   0  0  0  0  0  0  0  0  0  0  0  0
    6.3981   -2.1634    0.0000 O   0  0  0  0  0  0  0  0  0  0  0  0
    2.8611    0.8427    0.0000 O   0  0  0  0  0  0  0  0  0  0  0  0
    6.3038   -4.1957    0.0000 O   0  0  0  0  0  0  0  0  0  0  0  0
    7.2622   -0.6185    0.0000 O   0  0  0  0  0  0  0  0  0  0  0  0
    2.0000   -2.6426    0.0000 O   0  0  0  0  0  0  0  0  0  0  0  0
    4.5632   -5.1416    0.0000 O   0  0  0  0  0  0  0  0  0  0  0  0
    7.0918    5.4068    0.0000 O   0  0  0  0  0  0  0  0  0  0  0  0
    7.1509    2.4074    0.0000 C   0  0  2  0  0  0  0  0  0  0  0  0
    6.2949    1.8904    0.0000 C   0  0  2  0  0  0  0  0  0  0  0  0
    7.1312    3.4072    0.0000 C   0  0  1  0  0  0  0  0  0  0  0  0
    5.4192    2.3733    0.0000 C   0  0  1  0  0  0  0  0  0  0  0  0
    6.2555    3.8901    0.0000 C   0  0  0  0  0  0  0  0  0  0  0  0
    4.5828    0.8565    0.0000 C   0  0  0  0  0  0  0  0  0  0  0  0
    4.5981   -1.1426    0.0000 C   0  0  0  0  0  0  0  0  0  0  0  0
    4.5981   -2.1426    0.0000 C   0  0  0  0  0  0  0  0  0  0  0  0
    5.4920   -0.6079    0.0000 C   0  0  0  0  0  0  0  0  0  0  0  0
    3.7320   -0.6426    0.0000 C   0  0  0  0  0  0  0  0  0  0  0  0
    3.7308    0.3491    0.0000 C   0  0  0  0  0  0  0  0  0  0  0  0
    5.4542    0.3830    0.0000 C   0  0  0  0  0  0  0  0  0  0  0  0
    3.7320   -2.6426    0.0000 C   0  0  0  0  0  0  0  0  0  0  0  0
    5.4920   -2.6773    0.0000 C   0  0  0  0  0  0  0  0  0  0  0  0
    6.3981   -1.1218    0.0000 C   0  0  0  0  0  0  0  0  0  0  0  0
    2.8660   -2.1426    0.0000 C   0  0  0  0  0  0  0  0  0  0  0  0
    7.9675    4.9240    0.0000 C   0  0  0  0  0  0  0  0  0  0  0  0
    5.4542   -3.6682    0.0000 C   0  0  0  0  0  0  0  0  0  0  0  0
    3.7308   -3.6343    0.0000 C   0  0  0  0  0  0  0  0  0  0  0  0
    4.5828   -4.1418    0.0000 C   0  0  0  0  0  0  0  0  0  0  0  0
    8.8235    5.4409    0.0000 C   0  0  0  0  0  0  0  0  0  0  0  0
    7.6816    2.7279    0.0000 H   0  0  0  0  0  0  0  0  0  0  0  0
    5.7642    1.5699    0.0000 H   0  0  0  0  0  0  0  0  0  0  0  0
    7.1190    4.0271    0.0000 H   0  0  0  0  0  0  0  0  0  0  0  0
    4.8762    2.6727    0.0000 H   0  0  0  0  0  0  0  0  0  0  0  0
    6.6446    4.3728    0.0000 H   0  0  0  0  0  0  0  0  0  0  0  0
    5.8477    4.3571    0.0000 H   0  0  0  0  0  0  0  0  0  0  0  0
    8.5573    2.2451    0.0000 H   0  0  0  0  0  0  0  0  0  0  0  0
    6.8575    0.5913    0.0000 H   0  0  0  0  0  0  0  0  0  0  0  0
    5.9810    0.7100    0.0000 H   0  0  0  0  0  0  0  0  0  0  0  0
    3.1916   -3.9403    0.0000 H   0  0  0  0  0  0  0  0  0  0  0  0
    2.8565    1.4627    0.0000 H   0  0  0  0  0  0  0  0  0  0  0  0
    9.1440    4.9102    0.0000 H   0  0  0  0  0  0  0  0  0  0  0  0
    9.3543    5.7614    0.0000 H   0  0  0  0  0  0  0  0  0  0  0  0
    8.5030    5.9716    0.0000 H   0  0  0  0  0  0  0  0  0  0  0  0
    6.2840   -4.8154    0.0000 H   0  0  0  0  0  0  0  0  0  0  0  0
    4.0202   -5.4409    0.0000 H   0  0  0  0  0  0  0  0  0  0  0  0
  1 17  1  0  0  0  0
  1 18  1  0  0  0  0
  2 19  1  0  0  0  0
  3 30  1  0  0  0  0
  4 41  1  0  0  0  0
  5 42  1  0  0  0  0
  6 23  1  0  0  0  0
  6 29  1  0  0  0  0
  7 27  1  0  0  0  0
  7 28  1  0  0  0  0
  8 24  1  0  0  0  0
  8 45  1  0  0  0  0
  9 31  1  0  0  0  0
  9 49  1  0  0  0  0
 10 28  2  0  0  0  0
 11 29  2  0  0  0  0
 12 33  1  0  0  0  0
 12 50  1  0  0  0  0
 13 30  2  0  0  0  0
 14  4  1  0  0  0  0
 14 15  1  1  0  0  0
 14 35  1  0  0  0  0
 15  5  1  0  0  0  0
 15 17  1  1  0  0  0
 15 36  1  0  0  0  0
 16  3  1  0  0  0  0
 16 14  1  6  0  0  0
 16 18  1  0  0  0  0
 16 37  1  0  0  0  0
 17  2  1  0  0  0  0
 17 38  1  1  0  0  0
 18 39  1  0  0  0  0
 18 40  1  0  0  0  0
 19 24  2  0  0  0  0
 19 25  1  0  0  0  0
 20 21  1  0  0  0  0
 20 22  1  0  0  0  0
 20 23  2  0  0  0  0
 21 26  1  0  0  0  0
 21 27  2  0  0  0  0
 22 25  2  0  0  0  0
 22 28  1  0  0  0  0
 23 24  1  0  0  0  0
 25 43  1  0  0  0  0
 26 29  1  0  0  0  0
 26 32  2  0  0  0  0
 27 31  1  0  0  0  0
 30 34  1  0  0  0  0
 31 33  2  0  0  0  0
 32 33  1  0  0  0  0
 32 44  1  0  0  0  0
 34 46  1  0  0  0  0
 34 47  1  0  0  0  0
 34 48  1  0  0  0  0
M  END
>  <PUBCHEM_COMPOUND_CID>
101757027

>  <PUBCHEM_COMPOUND_CANONICALIZED>
1

>  <PUBCHEM_CACTVS_COMPLEXITY>
849

>  <PUBCHEM_CACTVS_HBOND_ACCEPTOR>
13

>  <PUBCHEM_CACTVS_HBOND_DONOR>
5

>  <PUBCHEM_CACTVS_ROTATABLE_BOND>
4

>  <PUBCHEM_CACTVS_SUBSKEYS>
AAADceB4PAAAAAAAAAAAAAAAAAAAAAAAAAA0aJECAAAAAACRQAAAGgAACAAADBSwmAMyDoAABgCIAiDSCAACCAAkIAAAiAEGiMgdNzKGNBqieyOlwBUPuYfK7PzOoAABCAAYQABAAAIQADCAAAAAAAAAAA==

>  <PUBCHEM_IUPAC_INCHI>
InChI=1S/C21H16O13/c1-5(22)31-10-4-30-21(16(27)14(10)25)32-9-3-7-12-11-6(19(28)34-18(12)15(9)26)2-8(23)13(24)17(11)33-20(7)29/h2-3,10,14,16,21,23-27H,4H2,1H3/t10-,14+,16-,21+/m1/s1

>  <PUBCHEM_IUPAC_INCHIKEY>
HRUPKKAITRRGMV-ZMMKYTMGSA-N

>  <PUBCHEM_XLOGP3_AA>
-0.1

>  <PUBCHEM_EXACT_MASS>
476.059

>  <PUBCHEM_MOLECULAR_FORMULA>
C21H16O13

>  <PUBCHEM_MOLECULAR_WEIGHT>
476.346

>  <PUBCHEM_OPENEYE_CAN_SMILES>
CC(=O)OC1COC(C(C1O)O)OC2=C(C3=C4C(=C2)C(=O)OC5=C4C(=CC(=C5O)O)C(=O)O3)O

>  <PUBCHEM_OPENEYE_ISO_SMILES>
CC(=O)O[C@@H]1CO[C@H]([C@@H]([C@H]1O)O)OC2=C(C3=C4C(=C2)C(=O)OC5=C4C(=CC(=C5O)O)C(=O)O3)O

>  <PUBCHEM_CACTVS_TPSA>
199

>  <PUBCHEM_MONOISOTOPIC_WEIGHT>
476.059

>  <PUBCHEM_TOTAL_CHARGE>
0

>  <PUBCHEM_HEAVY_ATOM_COUNT>
34

>  <PUBCHEM_ATOM_DEF_STEREO_COUNT>
4

>  <PUBCHEM_ATOM_UDEF_STEREO_COUNT>
0

>  <PUBCHEM_BOND_DEF_STEREO_COUNT>
0

>  <PUBCHEM_BOND_UDEF_STEREO_COUNT>
0

>  <PUBCHEM_ISOTOPIC_ATOM_COUNT>
0

>  <PUBCHEM_COMPONENT_COUNT>
1

>  <PUBCHEM_CACTVS_TAUTO_COUNT>
50

>  <PUBCHEM_COORDINATE_TYPE>
1
5
255

>  <PUBCHEM_BONDANNOTATIONS>
19  24  8
19  25  8
17  2  6
20  21  8
20  22  8
20  23  8
21  26  8
21  27  8
22  25  8
22  28  8
23  24  8
26  29  8
26  32  8
27  31  8
16  3  5
31  33  8
32  33  8
14  4  6
15  5  5
6  23  8
6  29  8
7  27  8
7  28  8

$$$$
