10174581
 OpenBabel06101807152D

 95 96  0  0  0  0  0  0  0  0999 V2000
    7.9244   -5.3255    0.0000 O   0  0  0  0  0  0  0  0  0  0  0  0
    6.2781   -4.7874    0.0000 N   0  0  0  0  0  0  0  0  0  0  0  0
    4.6783   -8.5041    0.0000 N   0  0  0  0  0  0  0  0  0  0  0  0
   14.0131    2.1530    0.0000 C   0  0  0  0  0  0  0  0  0  0  0  0
   14.9916    2.3592    0.0000 C   0  0  0  0  0  0  0  0  0  0  0  0
   13.7024    1.2025    0.0000 C   0  0  0  0  0  0  0  0  0  0  0  0
   15.3023    3.3098    0.0000 C   0  0  0  0  0  0  0  0  0  0  0  0
   12.7239    0.9963    0.0000 C   0  0  0  0  0  0  0  0  0  0  0  0
   16.2808    3.5160    0.0000 C   0  0  0  0  0  0  0  0  0  0  0  0
   12.4133    0.0458    0.0000 C   0  0  0  0  0  0  0  0  0  0  0  0
   16.5914    4.4665    0.0000 C   0  0  0  0  0  0  0  0  0  0  0  0
   11.4348   -0.1605    0.0000 C   0  0  0  0  0  0  0  0  0  0  0  0
   17.5700    4.6727    0.0000 C   0  0  0  0  0  0  0  0  0  0  0  0
   11.1241   -1.1110    0.0000 C   0  0  0  0  0  0  0  0  0  0  0  0
   17.8806    5.6232    0.0000 C   0  0  0  0  0  0  0  0  0  0  0  0
   10.1456   -1.3172    0.0000 C   0  0  0  0  0  0  0  0  0  0  0  0
   18.8591    5.8295    0.0000 C   0  0  0  0  0  0  0  0  0  0  0  0
    9.8349   -2.2677    0.0000 C   0  0  0  0  0  0  0  0  0  0  0  0
   19.1698    6.7800    0.0000 C   0  0  0  0  0  0  0  0  0  0  0  0
    8.8564   -2.4739    0.0000 C   0  0  0  0  0  0  0  0  0  0  0  0
   20.1483    6.9862    0.0000 C   0  0  0  0  0  0  0  0  0  0  0  0
    8.5458   -3.4244    0.0000 C   0  0  0  0  0  0  0  0  0  0  0  0
   20.4590    7.9367    0.0000 C   0  0  0  0  0  0  0  0  0  0  0  0
    7.5673   -3.6307    0.0000 C   0  0  0  0  0  0  0  0  0  0  0  0
   21.4375    8.1429    0.0000 C   0  0  0  0  0  0  0  0  0  0  0  0
    7.2566   -4.5812    0.0000 C   0  0  0  0  0  0  0  0  0  0  0  0
   21.7481    9.0935    0.0000 C   0  0  0  0  0  0  0  0  0  0  0  0
    5.9674   -5.7379    0.0000 C   0  0  0  0  0  0  0  0  0  0  0  0
    4.9889   -5.9441    0.0000 C   0  0  0  0  0  0  0  0  0  0  0  0
    4.6783   -6.8947    0.0000 C   0  0  0  0  0  0  0  0  0  0  0  0
    3.7320   -7.1994    0.0000 C   0  0  0  0  0  0  0  0  0  0  0  0
    3.7320   -8.1994    0.0000 C   0  0  0  0  0  0  0  0  0  0  0  0
    5.2619   -7.6994    0.0000 C   0  0  0  0  0  0  0  0  0  0  0  0
    2.8660   -6.6994    0.0000 C   0  0  0  0  0  0  0  0  0  0  0  0
    2.8660   -8.6994    0.0000 C   0  0  0  0  0  0  0  0  0  0  0  0
    2.0000   -7.1994    0.0000 C   0  0  0  0  0  0  0  0  0  0  0  0
    2.0000   -8.1994    0.0000 C   0  0  0  0  0  0  0  0  0  0  0  0
   13.9925    2.7727    0.0000 H   0  0  0  0  0  0  0  0  0  0  0  0
   13.3993    2.2404    0.0000 H   0  0  0  0  0  0  0  0  0  0  0  0
   15.0122    1.7396    0.0000 H   0  0  0  0  0  0  0  0  0  0  0  0
   15.6054    2.2719    0.0000 H   0  0  0  0  0  0  0  0  0  0  0  0
   13.7230    0.5828    0.0000 H   0  0  0  0  0  0  0  0  0  0  0  0
   14.3163    1.1152    0.0000 H   0  0  0  0  0  0  0  0  0  0  0  0
   15.2817    3.9294    0.0000 H   0  0  0  0  0  0  0  0  0  0  0  0
   14.6885    3.3971    0.0000 H   0  0  0  0  0  0  0  0  0  0  0  0
   12.7034    1.6159    0.0000 H   0  0  0  0  0  0  0  0  0  0  0  0
   12.1101    1.0836    0.0000 H   0  0  0  0  0  0  0  0  0  0  0  0
   16.3013    2.8963    0.0000 H   0  0  0  0  0  0  0  0  0  0  0  0
   16.8946    3.4286    0.0000 H   0  0  0  0  0  0  0  0  0  0  0  0
   12.4338   -0.5739    0.0000 H   0  0  0  0  0  0  0  0  0  0  0  0
   13.0271   -0.0416    0.0000 H   0  0  0  0  0  0  0  0  0  0  0  0
   16.5709    5.0862    0.0000 H   0  0  0  0  0  0  0  0  0  0  0  0
   15.9776    4.5538    0.0000 H   0  0  0  0  0  0  0  0  0  0  0  0
   11.4142    0.4592    0.0000 H   0  0  0  0  0  0  0  0  0  0  0  0
   10.8210   -0.0731    0.0000 H   0  0  0  0  0  0  0  0  0  0  0  0
   17.5905    4.0531    0.0000 H   0  0  0  0  0  0  0  0  0  0  0  0
   18.1838    4.5854    0.0000 H   0  0  0  0  0  0  0  0  0  0  0  0
   11.1447   -1.7306    0.0000 H   0  0  0  0  0  0  0  0  0  0  0  0
   11.7379   -1.1983    0.0000 H   0  0  0  0  0  0  0  0  0  0  0  0
   17.8601    6.2429    0.0000 H   0  0  0  0  0  0  0  0  0  0  0  0
   17.2668    5.7106    0.0000 H   0  0  0  0  0  0  0  0  0  0  0  0
   10.1250   -0.6975    0.0000 H   0  0  0  0  0  0  0  0  0  0  0  0
    9.5318   -1.2298    0.0000 H   0  0  0  0  0  0  0  0  0  0  0  0
   18.8797    5.2098    0.0000 H   0  0  0  0  0  0  0  0  0  0  0  0
   19.4729    5.7421    0.0000 H   0  0  0  0  0  0  0  0  0  0  0  0
    9.8555   -2.8874    0.0000 H   0  0  0  0  0  0  0  0  0  0  0  0
   10.4488   -2.3551    0.0000 H   0  0  0  0  0  0  0  0  0  0  0  0
   19.1492    7.3996    0.0000 H   0  0  0  0  0  0  0  0  0  0  0  0
   18.5560    6.8673    0.0000 H   0  0  0  0  0  0  0  0  0  0  0  0
    8.8359   -1.8543    0.0000 H   0  0  0  0  0  0  0  0  0  0  0  0
    8.2426   -2.3866    0.0000 H   0  0  0  0  0  0  0  0  0  0  0  0
   20.1689    6.3665    0.0000 H   0  0  0  0  0  0  0  0  0  0  0  0
   20.7621    6.8988    0.0000 H   0  0  0  0  0  0  0  0  0  0  0  0
    8.5663   -4.0441    0.0000 H   0  0  0  0  0  0  0  0  0  0  0  0
    9.1596   -3.5118    0.0000 H   0  0  0  0  0  0  0  0  0  0  0  0
   20.4384    8.5564    0.0000 H   0  0  0  0  0  0  0  0  0  0  0  0
   19.8451    8.0241    0.0000 H   0  0  0  0  0  0  0  0  0  0  0  0
    7.5467   -3.0110    0.0000 H   0  0  0  0  0  0  0  0  0  0  0  0
    6.9534   -3.5433    0.0000 H   0  0  0  0  0  0  0  0  0  0  0  0
   21.4580    7.5233    0.0000 H   0  0  0  0  0  0  0  0  0  0  0  0
   22.0513    8.0556    0.0000 H   0  0  0  0  0  0  0  0  0  0  0  0
   22.3374    8.9008    0.0000 H   0  0  0  0  0  0  0  0  0  0  0  0
   21.9407    9.6828    0.0000 H   0  0  0  0  0  0  0  0  0  0  0  0
   21.1588    9.2861    0.0000 H   0  0  0  0  0  0  0  0  0  0  0  0
    5.9880   -6.3576    0.0000 H   0  0  0  0  0  0  0  0  0  0  0  0
    6.5812   -5.8253    0.0000 H   0  0  0  0  0  0  0  0  0  0  0  0
    4.9684   -5.3245    0.0000 H   0  0  0  0  0  0  0  0  0  0  0  0
    4.3751   -5.8568    0.0000 H   0  0  0  0  0  0  0  0  0  0  0  0
    5.8640   -4.3259    0.0000 H   0  0  0  0  0  0  0  0  0  0  0  0
    5.8819   -7.6994    0.0000 H   0  0  0  0  0  0  0  0  0  0  0  0
    4.8709   -9.0935    0.0000 H   0  0  0  0  0  0  0  0  0  0  0  0
    2.8660   -6.0794    0.0000 H   0  0  0  0  0  0  0  0  0  0  0  0
    2.8660   -9.3194    0.0000 H   0  0  0  0  0  0  0  0  0  0  0  0
    1.4631   -6.8894    0.0000 H   0  0  0  0  0  0  0  0  0  0  0  0
    1.4631   -8.5094    0.0000 H   0  0  0  0  0  0  0  0  0  0  0  0
  1 26  2  0  0  0  0
  2 26  1  0  0  0  0
  2 28  1  0  0  0  0
  2 89  1  0  0  0  0
  3 32  1  0  0  0  0
  3 33  1  0  0  0  0
  3 91  1  0  0  0  0
  4  5  1  0  0  0  0
  4  6  1  0  0  0  0
  4 38  1  0  0  0  0
  4 39  1  0  0  0  0
  5  7  1  0  0  0  0
  5 40  1  0  0  0  0
  5 41  1  0  0  0  0
  6  8  1  0  0  0  0
  6 42  1  0  0  0  0
  6 43  1  0  0  0  0
  7  9  1  0  0  0  0
  7 44  1  0  0  0  0
  7 45  1  0  0  0  0
  8 10  1  0  0  0  0
  8 46  1  0  0  0  0
  8 47  1  0  0  0  0
  9 11  1  0  0  0  0
  9 48  1  0  0  0  0
  9 49  1  0  0  0  0
 10 12  1  0  0  0  0
 10 50  1  0  0  0  0
 10 51  1  0  0  0  0
 11 13  1  0  0  0  0
 11 52  1  0  0  0  0
 11 53  1  0  0  0  0
 12 14  1  0  0  0  0
 12 54  1  0  0  0  0
 12 55  1  0  0  0  0
 13 15  1  0  0  0  0
 13 56  1  0  0  0  0
 13 57  1  0  0  0  0
 14 16  1  0  0  0  0
 14 58  1  0  0  0  0
 14 59  1  0  0  0  0
 15 17  1  0  0  0  0
 15 60  1  0  0  0  0
 15 61  1  0  0  0  0
 16 18  1  0  0  0  0
 16 62  1  0  0  0  0
 16 63  1  0  0  0  0
 17 19  1  0  0  0  0
 17 64  1  0  0  0  0
 17 65  1  0  0  0  0
 18 20  1  0  0  0  0
 18 66  1  0  0  0  0
 18 67  1  0  0  0  0
 19 21  1  0  0  0  0
 19 68  1  0  0  0  0
 19 69  1  0  0  0  0
 20 22  1  0  0  0  0
 20 70  1  0  0  0  0
 20 71  1  0  0  0  0
 21 23  1  0  0  0  0
 21 72  1  0  0  0  0
 21 73  1  0  0  0  0
 22 24  1  0  0  0  0
 22 74  1  0  0  0  0
 22 75  1  0  0  0  0
 23 25  1  0  0  0  0
 23 76  1  0  0  0  0
 23 77  1  0  0  0  0
 24 26  1  0  0  0  0
 24 78  1  0  0  0  0
 24 79  1  0  0  0  0
 25 27  1  0  0  0  0
 25 80  1  0  0  0  0
 25 81  1  0  0  0  0
 27 82  1  0  0  0  0
 27 83  1  0  0  0  0
 27 84  1  0  0  0  0
 28 29  1  0  0  0  0
 28 85  1  0  0  0  0
 28 86  1  0  0  0  0
 29 30  1  0  0  0  0
 29 87  1  0  0  0  0
 29 88  1  0  0  0  0
 30 31  1  0  0  0  0
 30 33  2  0  0  0  0
 31 32  1  0  0  0  0
 31 34  2  0  0  0  0
 32 35  2  0  0  0  0
 33 90  1  0  0  0  0
 34 36  1  0  0  0  0
 34 92  1  0  0  0  0
 35 37  1  0  0  0  0
 35 93  1  0  0  0  0
 36 37  2  0  0  0  0
 36 94  1  0  0  0  0
 37 95  1  0  0  0  0
M  END
>  <PUBCHEM_COMPOUND_CID>
10174581

>  <PUBCHEM_COMPOUND_CANONICALIZED>
1

>  <PUBCHEM_CACTVS_COMPLEXITY>
522

>  <PUBCHEM_CACTVS_HBOND_ACCEPTOR>
1

>  <PUBCHEM_CACTVS_HBOND_DONOR>
2

>  <PUBCHEM_CACTVS_ROTATABLE_BOND>
25

>  <PUBCHEM_CACTVS_SUBSKEYS>
AAADcfB/IAAAAAAAAAAAAAAAAAAAAWAAAAAwAAAAAAAAAFgB8AAAHgAQAAAADAjBngQ+wPLJkACoAzV3VACCgCAxAiAI2aE4ZJgIIPLAkZGEIAhglgDIyAcYiMCOgAAAAAACAAAAAAAAAAQAAAAAAAAAAA==

>  <PUBCHEM_IUPAC_OPENEYE_NAME>
N-[2-(1H-indol-3-yl)ethyl]tetracosanamide

>  <PUBCHEM_IUPAC_CAS_NAME>
N-[2-(1H-indol-3-yl)ethyl]tetracosanamide

>  <PUBCHEM_IUPAC_NAME>
N-[2-(1H-indol-3-yl)ethyl]tetracosanamide

>  <PUBCHEM_IUPAC_SYSTEMATIC_NAME>
N-[2-(1H-indol-3-yl)ethyl]tetracosanamide

>  <PUBCHEM_IUPAC_TRADITIONAL_NAME>
N-[2-(1H-indol-3-yl)ethyl]lignoceramide

>  <PUBCHEM_IUPAC_INCHI>
InChI=1S/C34H58N2O/c1-2-3-4-5-6-7-8-9-10-11-12-13-14-15-16-17-18-19-20-21-22-27-34(37)35-29-28-31-30-36-33-26-24-23-25-32(31)33/h23-26,30,36H,2-22,27-29H2,1H3,(H,35,37)

>  <PUBCHEM_IUPAC_INCHIKEY>
LQPINJBBNVSTDE-UHFFFAOYSA-N

>  <PUBCHEM_XLOGP3>
13.5

>  <PUBCHEM_EXACT_MASS>
510.455

>  <PUBCHEM_MOLECULAR_FORMULA>
C34H58N2O

>  <PUBCHEM_MOLECULAR_WEIGHT>
510.851

>  <PUBCHEM_OPENEYE_CAN_SMILES>
CCCCCCCCCCCCCCCCCCCCCCCC(=O)NCCC1=CNC2=CC=CC=C21

>  <PUBCHEM_OPENEYE_ISO_SMILES>
CCCCCCCCCCCCCCCCCCCCCCCC(=O)NCCC1=CNC2=CC=CC=C21

>  <PUBCHEM_CACTVS_TPSA>
44.9

>  <PUBCHEM_MONOISOTOPIC_WEIGHT>
510.455

>  <PUBCHEM_TOTAL_CHARGE>
0

>  <PUBCHEM_HEAVY_ATOM_COUNT>
37

>  <PUBCHEM_ATOM_DEF_STEREO_COUNT>
0

>  <PUBCHEM_ATOM_UDEF_STEREO_COUNT>
0

>  <PUBCHEM_BOND_DEF_STEREO_COUNT>
0

>  <PUBCHEM_BOND_UDEF_STEREO_COUNT>
0

>  <PUBCHEM_ISOTOPIC_ATOM_COUNT>
0

>  <PUBCHEM_COMPONENT_COUNT>
1

>  <PUBCHEM_CACTVS_TAUTO_COUNT>
2

>  <PUBCHEM_COORDINATE_TYPE>
1
5
255

>  <PUBCHEM_BONDANNOTATIONS>
3  32  8
3  33  8
30  31  8
30  33  8
31  32  8
31  34  8
32  35  8
34  36  8
35  37  8
36  37  8

$$$$
