101717
 OpenBabel06101807152D

 26 27  0  0  1  0  0  0  0  0999 V2000
    4.2473   -0.1874    0.0000 C   0  0  3  0  0  0  0  0  0  0  0  0
    2.8746   -0.7795    0.0000 C   0  0  0  0  0  0  0  0  0  0  0  0
    4.5061    0.7785    0.0000 C   0  0  3  0  0  0  0  0  0  0  0  0
    3.7695    1.7611    0.0000 C   0  0  0  0  0  0  0  0  0  0  0  0
    2.5326    0.1602    0.0000 C   0  0  0  0  0  0  0  0  0  0  0  0
    5.6463   -0.6963    0.0000 C   0  0  0  0  0  0  0  0  0  0  0  0
    5.9051    0.2697    0.0000 C   0  0  0  0  0  0  0  0  0  0  0  0
    2.0000   -1.2643    0.0000 C   0  0  0  0  0  0  0  0  0  0  0  0
    3.0654   -1.7611    0.0000 C   0  0  0  0  0  0  0  0  0  0  0  0
    6.7711    0.7697    0.0000 C   0  0  0  0  0  0  0  0  0  0  0  0
    4.2654   -0.8072    0.0000 H   0  0  0  0  0  0  0  0  0  0  0  0
    4.4921    0.1586    0.0000 H   0  0  0  0  0  0  0  0  0  0  0  0
    4.0873    2.2934    0.0000 H   0  0  0  0  0  0  0  0  0  0  0  0
    3.1564    1.8530    0.0000 H   0  0  0  0  0  0  0  0  0  0  0  0
    2.3383    0.7490    0.0000 H   0  0  0  0  0  0  0  0  0  0  0  0
    1.9468   -0.0430    0.0000 H   0  0  0  0  0  0  0  0  0  0  0  0
    5.4513   -1.2848    0.0000 H   0  0  0  0  0  0  0  0  0  0  0  0
    6.2402   -0.8740    0.0000 H   0  0  0  0  0  0  0  0  0  0  0  0
    2.4568   -1.8794    0.0000 H   0  0  0  0  0  0  0  0  0  0  0  0
    3.1837   -2.3697    0.0000 H   0  0  0  0  0  0  0  0  0  0  0  0
    3.6740   -1.6428    0.0000 H   0  0  0  0  0  0  0  0  0  0  0  0
    1.6994   -0.7220    0.0000 H   0  0  0  0  0  0  0  0  0  0  0  0
    1.4577   -1.5649    0.0000 H   0  0  0  0  0  0  0  0  0  0  0  0
    2.3006   -1.8065    0.0000 H   0  0  0  0  0  0  0  0  0  0  0  0
    7.3080    0.4597    0.0000 H   0  0  0  0  0  0  0  0  0  0  0  0
    6.7711    1.3897    0.0000 H   0  0  0  0  0  0  0  0  0  0  0  0
  1  2  1  0  0  0  0
  1  4  1  0  0  0  0
  1  6  1  0  0  0  0
  1 11  1  0  0  0  0
  2  5  1  0  0  0  0
  2  8  1  0  0  0  0
  2  9  1  0  0  0  0
  3  4  1  0  0  0  0
  3  5  1  0  0  0  0
  3  7  1  0  0  0  0
  3 12  1  0  0  0  0
  4 13  1  0  0  0  0
  4 14  1  0  0  0  0
  5 15  1  0  0  0  0
  5 16  1  0  0  0  0
  6  7  1  0  0  0  0
  6 17  1  0  0  0  0
  6 18  1  0  0  0  0
  7 10  2  0  0  0  0
  8 22  1  0  0  0  0
  8 23  1  0  0  0  0
  8 24  1  0  0  0  0
  9 19  1  0  0  0  0
  9 20  1  0  0  0  0
  9 21  1  0  0  0  0
 10 25  1  0  0  0  0
 10 26  1  0  0  0  0
M  END
>  <PUBCHEM_COMPOUND_CID>
101717

>  <PUBCHEM_COMPOUND_CANONICALIZED>
1

>  <PUBCHEM_CACTVS_COMPLEXITY>
177

>  <PUBCHEM_CACTVS_HBOND_ACCEPTOR>
0

>  <PUBCHEM_CACTVS_HBOND_DONOR>
0

>  <PUBCHEM_CACTVS_ROTATABLE_BOND>
0

>  <PUBCHEM_CACTVS_SUBSKEYS>
AAADceBwAAAAAAAAAAAAAAAAAAAAAYMAAAAwAAAAAAAAAAAAAAAAGAAAAAAADwCAAAACAAAAAACAAgBCAAAAAAAgAAAAAAAAAAgAAAIAAQAAAAAAgAAAAAEAgMAPgAAAAAAAAAAAAAQAACAAAQAACAAAAA==

>  <PUBCHEM_IUPAC_OPENEYE_NAME>
2,2-dimethyl-5-methylene-norbornane

>  <PUBCHEM_IUPAC_CAS_NAME>
2,2-dimethyl-5-methylenebicyclo[2.2.1]heptane

>  <PUBCHEM_IUPAC_NAME>
2,2-dimethyl-5-methylidenebicyclo[2.2.1]heptane

>  <PUBCHEM_IUPAC_SYSTEMATIC_NAME>
2,2-dimethyl-5-methylidene-bicyclo[2.2.1]heptane

>  <PUBCHEM_IUPAC_TRADITIONAL_NAME>
2,2-dimethyl-5-methylene-norbornane

>  <PUBCHEM_IUPAC_INCHI>
InChI=1S/C10H16/c1-7-4-9-5-8(7)6-10(9,2)3/h8-9H,1,4-6H2,2-3H3

>  <PUBCHEM_IUPAC_INCHIKEY>
NJZUUYADLXBQPA-UHFFFAOYSA-N

>  <PUBCHEM_XLOGP3_AA>
3.1

>  <PUBCHEM_EXACT_MASS>
136.125

>  <PUBCHEM_MOLECULAR_FORMULA>
C10H16

>  <PUBCHEM_MOLECULAR_WEIGHT>
136.238

>  <PUBCHEM_OPENEYE_CAN_SMILES>
CC1(CC2CC1CC2=C)C

>  <PUBCHEM_OPENEYE_ISO_SMILES>
CC1(CC2CC1CC2=C)C

>  <PUBCHEM_CACTVS_TPSA>
0

>  <PUBCHEM_MONOISOTOPIC_WEIGHT>
136.125

>  <PUBCHEM_TOTAL_CHARGE>
0

>  <PUBCHEM_HEAVY_ATOM_COUNT>
10

>  <PUBCHEM_ATOM_DEF_STEREO_COUNT>
0

>  <PUBCHEM_ATOM_UDEF_STEREO_COUNT>
2

>  <PUBCHEM_BOND_DEF_STEREO_COUNT>
0

>  <PUBCHEM_BOND_UDEF_STEREO_COUNT>
0

>  <PUBCHEM_ISOTOPIC_ATOM_COUNT>
0

>  <PUBCHEM_COMPONENT_COUNT>
1

>  <PUBCHEM_CACTVS_TAUTO_COUNT>
1

>  <PUBCHEM_COORDINATE_TYPE>
1
5
255

>  <PUBCHEM_BONDANNOTATIONS>
1  2  3
3  5  3

$$$$
