101762593
 OpenBabel06101807152D

 95 97  0  0  0  0  0  0  0  0999 V2000
   14.1903   -1.0000    0.0000 O   0  0  0  0  0  0  0  0  0  0  0  0
   17.7204    1.0241    0.0000 O   0  0  0  0  0  0  0  0  0  0  0  0
   10.6602    1.0241    0.0000 O   0  0  0  0  0  0  0  0  0  0  0  0
   15.9387   -2.0346    0.0000 O   0  0  0  0  0  0  0  0  0  0  0  0
   12.4419   -2.0346    0.0000 O   0  0  0  0  0  0  0  0  0  0  0  0
   15.9387    2.0346    0.0000 O   0  0  0  0  0  0  0  0  0  0  0  0
   12.4419    2.0346    0.0000 O   0  0  0  0  0  0  0  0  0  0  0  0
   14.1903    1.0000    0.0000 C   0  0  3  0  0  0  0  0  0  0  0  0
   13.3243    0.5000    0.0000 C   0  0  0  0  0  0  0  0  0  0  0  0
   15.0563    0.5000    0.0000 C   0  0  0  0  0  0  0  0  0  0  0  0
   19.4525   -1.0308    0.0000 C   0  0  0  0  0  0  0  0  0  0  0  0
    8.9282   -1.0308    0.0000 C   0  0  0  0  0  0  0  0  0  0  0  0
    9.7922   -0.5275    0.0000 C   0  0  0  0  0  0  0  0  0  0  0  0
   18.5884   -0.5275    0.0000 C   0  0  0  0  0  0  0  0  0  0  0  0
   20.3204   -0.5342    0.0000 C   0  0  0  0  0  0  0  0  0  0  0  0
    8.0602   -0.5342    0.0000 C   0  0  0  0  0  0  0  0  0  0  0  0
   15.0563   -0.5000    0.0000 C   0  0  0  0  0  0  0  0  0  0  0  0
   13.3243   -0.5000    0.0000 C   0  0  0  0  0  0  0  0  0  0  0  0
   10.6602   -1.0241    0.0000 C   0  0  0  0  0  0  0  0  0  0  0  0
   17.7204   -1.0241    0.0000 C   0  0  0  0  0  0  0  0  0  0  0  0
    7.1961   -1.0375    0.0000 C   0  0  0  0  0  0  0  0  0  0  0  0
   21.1845   -1.0375    0.0000 C   0  0  0  0  0  0  0  0  0  0  0  0
   11.5243   -0.5208    0.0000 C   0  0  0  0  0  0  0  0  0  0  0  0
   16.8563   -0.5208    0.0000 C   0  0  0  0  0  0  0  0  0  0  0  0
    6.3282   -0.5408    0.0000 C   0  0  0  0  0  0  0  0  0  0  0  0
   22.0525   -0.5408    0.0000 C   0  0  0  0  0  0  0  0  0  0  0  0
   15.9503   -1.0347    0.0000 C   0  0  0  0  0  0  0  0  0  0  0  0
   12.4303   -1.0347    0.0000 C   0  0  0  0  0  0  0  0  0  0  0  0
   14.1903    2.0000    0.0000 C   0  0  0  0  0  0  0  0  0  0  0  0
   15.9503    1.0347    0.0000 C   0  0  0  0  0  0  0  0  0  0  0  0
   12.4303    1.0347    0.0000 C   0  0  0  0  0  0  0  0  0  0  0  0
   22.9166   -1.0442    0.0000 C   0  0  0  0  0  0  0  0  0  0  0  0
    5.4641   -1.0442    0.0000 C   0  0  0  0  0  0  0  0  0  0  0  0
   11.5243    0.5208    0.0000 C   0  0  0  0  0  0  0  0  0  0  0  0
   16.8563    0.5208    0.0000 C   0  0  0  0  0  0  0  0  0  0  0  0
    4.5961   -0.5475    0.0000 C   0  0  0  0  0  0  0  0  0  0  0  0
   23.7845   -0.5475    0.0000 C   0  0  0  0  0  0  0  0  0  0  0  0
   24.6486   -1.0508    0.0000 C   0  0  0  0  0  0  0  0  0  0  0  0
    3.7320   -1.0508    0.0000 C   0  0  0  0  0  0  0  0  0  0  0  0
    2.8641   -0.5542    0.0000 C   0  0  0  0  0  0  0  0  0  0  0  0
   25.5165   -0.5542    0.0000 C   0  0  0  0  0  0  0  0  0  0  0  0
    2.0000   -1.0575    0.0000 C   0  0  0  0  0  0  0  0  0  0  0  0
   26.3806   -1.0575    0.0000 C   0  0  0  0  0  0  0  0  0  0  0  0
   13.6534    1.3100    0.0000 H   0  0  0  0  0  0  0  0  0  0  0  0
   19.0521   -1.5042    0.0000 H   0  0  0  0  0  0  0  0  0  0  0  0
   19.8492   -1.5073    0.0000 H   0  0  0  0  0  0  0  0  0  0  0  0
    8.5315   -1.5073    0.0000 H   0  0  0  0  0  0  0  0  0  0  0  0
    9.3285   -1.5042    0.0000 H   0  0  0  0  0  0  0  0  0  0  0  0
   10.1889   -0.0510    0.0000 H   0  0  0  0  0  0  0  0  0  0  0  0
   18.9887   -0.0541    0.0000 H   0  0  0  0  0  0  0  0  0  0  0  0
   18.1917   -0.0510    0.0000 H   0  0  0  0  0  0  0  0  0  0  0  0
    9.3919   -0.0541    0.0000 H   0  0  0  0  0  0  0  0  0  0  0  0
   20.7208   -0.0608    0.0000 H   0  0  0  0  0  0  0  0  0  0  0  0
   19.9237   -0.0577    0.0000 H   0  0  0  0  0  0  0  0  0  0  0  0
    8.4569   -0.0577    0.0000 H   0  0  0  0  0  0  0  0  0  0  0  0
    7.6598   -0.0608    0.0000 H   0  0  0  0  0  0  0  0  0  0  0  0
   17.3201   -1.4976    0.0000 H   0  0  0  0  0  0  0  0  0  0  0  0
   18.1171   -1.5006    0.0000 H   0  0  0  0  0  0  0  0  0  0  0  0
   10.2635   -1.5006    0.0000 H   0  0  0  0  0  0  0  0  0  0  0  0
   11.0605   -1.4976    0.0000 H   0  0  0  0  0  0  0  0  0  0  0  0
    6.7994   -1.5140    0.0000 H   0  0  0  0  0  0  0  0  0  0  0  0
    7.5965   -1.5109    0.0000 H   0  0  0  0  0  0  0  0  0  0  0  0
   20.7842   -1.5109    0.0000 H   0  0  0  0  0  0  0  0  0  0  0  0
   21.5812   -1.5140    0.0000 H   0  0  0  0  0  0  0  0  0  0  0  0
    6.7249   -0.0644    0.0000 H   0  0  0  0  0  0  0  0  0  0  0  0
    5.9278   -0.0674    0.0000 H   0  0  0  0  0  0  0  0  0  0  0  0
   22.4528   -0.0674    0.0000 H   0  0  0  0  0  0  0  0  0  0  0  0
   21.6558   -0.0644    0.0000 H   0  0  0  0  0  0  0  0  0  0  0  0
   22.5162   -1.5176    0.0000 H   0  0  0  0  0  0  0  0  0  0  0  0
   23.3132   -1.5207    0.0000 H   0  0  0  0  0  0  0  0  0  0  0  0
    5.0674   -1.5207    0.0000 H   0  0  0  0  0  0  0  0  0  0  0  0
    5.8644   -1.5176    0.0000 H   0  0  0  0  0  0  0  0  0  0  0  0
   14.8103    2.0000    0.0000 H   0  0  0  0  0  0  0  0  0  0  0  0
   14.1903    2.6200    0.0000 H   0  0  0  0  0  0  0  0  0  0  0  0
   13.5703    2.0000    0.0000 H   0  0  0  0  0  0  0  0  0  0  0  0
   24.1849   -0.0741    0.0000 H   0  0  0  0  0  0  0  0  0  0  0  0
    4.9928   -0.0710    0.0000 H   0  0  0  0  0  0  0  0  0  0  0  0
    4.1958   -0.0741    0.0000 H   0  0  0  0  0  0  0  0  0  0  0  0
   23.3878   -0.0710    0.0000 H   0  0  0  0  0  0  0  0  0  0  0  0
    3.3353   -1.5273    0.0000 H   0  0  0  0  0  0  0  0  0  0  0  0
    4.1324   -1.5243    0.0000 H   0  0  0  0  0  0  0  0  0  0  0  0
   24.2482   -1.5243    0.0000 H   0  0  0  0  0  0  0  0  0  0  0  0
   25.0453   -1.5273    0.0000 H   0  0  0  0  0  0  0  0  0  0  0  0
    3.2608   -0.0777    0.0000 H   0  0  0  0  0  0  0  0  0  0  0  0
    2.4637   -0.0808    0.0000 H   0  0  0  0  0  0  0  0  0  0  0  0
   25.9169   -0.0808    0.0000 H   0  0  0  0  0  0  0  0  0  0  0  0
   25.1198   -0.0777    0.0000 H   0  0  0  0  0  0  0  0  0  0  0  0
   10.6626    1.6442    0.0000 H   0  0  0  0  0  0  0  0  0  0  0  0
   17.7181    1.6442    0.0000 H   0  0  0  0  0  0  0  0  0  0  0  0
   26.0686   -1.5933    0.0000 H   0  0  0  0  0  0  0  0  0  0  0  0
   26.9164   -1.3696    0.0000 H   0  0  0  0  0  0  0  0  0  0  0  0
   26.6927   -0.5218    0.0000 H   0  0  0  0  0  0  0  0  0  0  0  0
    1.6879   -0.5218    0.0000 H   0  0  0  0  0  0  0  0  0  0  0  0
    1.4643   -1.3696    0.0000 H   0  0  0  0  0  0  0  0  0  0  0  0
    2.3121   -1.5933    0.0000 H   0  0  0  0  0  0  0  0  0  0  0  0
  1 17  1  0  0  0  0
  1 18  1  0  0  0  0
  2 35  1  0  0  0  0
  2 89  1  0  0  0  0
  3 34  1  0  0  0  0
  3 88  1  0  0  0  0
  4 27  2  0  0  0  0
  5 28  2  0  0  0  0
  6 30  2  0  0  0  0
  7 31  2  0  0  0  0
  8  9  1  0  0  0  0
  8 10  1  0  0  0  0
  8 29  1  0  0  0  0
  8 44  1  0  0  0  0
  9 18  2  0  0  0  0
  9 31  1  0  0  0  0
 10 17  2  0  0  0  0
 10 30  1  0  0  0  0
 11 14  1  0  0  0  0
 11 15  1  0  0  0  0
 11 45  1  0  0  0  0
 11 46  1  0  0  0  0
 12 13  1  0  0  0  0
 12 16  1  0  0  0  0
 12 47  1  0  0  0  0
 12 48  1  0  0  0  0
 13 19  1  0  0  0  0
 13 49  1  0  0  0  0
 13 52  1  0  0  0  0
 14 20  1  0  0  0  0
 14 50  1  0  0  0  0
 14 51  1  0  0  0  0
 15 22  1  0  0  0  0
 15 53  1  0  0  0  0
 15 54  1  0  0  0  0
 16 21  1  0  0  0  0
 16 55  1  0  0  0  0
 16 56  1  0  0  0  0
 17 27  1  0  0  0  0
 18 28  1  0  0  0  0
 19 23  1  0  0  0  0
 19 59  1  0  0  0  0
 19 60  1  0  0  0  0
 20 24  1  0  0  0  0
 20 57  1  0  0  0  0
 20 58  1  0  0  0  0
 21 25  1  0  0  0  0
 21 61  1  0  0  0  0
 21 62  1  0  0  0  0
 22 26  1  0  0  0  0
 22 63  1  0  0  0  0
 22 64  1  0  0  0  0
 23 28  1  0  0  0  0
 23 34  2  0  0  0  0
 24 27  1  0  0  0  0
 24 35  2  0  0  0  0
 25 33  1  0  0  0  0
 25 65  1  0  0  0  0
 25 66  1  0  0  0  0
 26 32  1  0  0  0  0
 26 67  1  0  0  0  0
 26 68  1  0  0  0  0
 29 73  1  0  0  0  0
 29 74  1  0  0  0  0
 29 75  1  0  0  0  0
 30 35  1  0  0  0  0
 31 34  1  0  0  0  0
 32 37  1  0  0  0  0
 32 69  1  0  0  0  0
 32 70  1  0  0  0  0
 33 36  1  0  0  0  0
 33 71  1  0  0  0  0
 33 72  1  0  0  0  0
 36 39  1  0  0  0  0
 36 77  1  0  0  0  0
 36 78  1  0  0  0  0
 37 38  1  0  0  0  0
 37 76  1  0  0  0  0
 37 79  1  0  0  0  0
 38 41  1  0  0  0  0
 38 82  1  0  0  0  0
 38 83  1  0  0  0  0
 39 40  1  0  0  0  0
 39 80  1  0  0  0  0
 39 81  1  0  0  0  0
 40 42  1  0  0  0  0
 40 84  1  0  0  0  0
 40 85  1  0  0  0  0
 41 43  1  0  0  0  0
 41 86  1  0  0  0  0
 41 87  1  0  0  0  0
 42 93  1  0  0  0  0
 42 94  1  0  0  0  0
 42 95  1  0  0  0  0
 43 90  1  0  0  0  0
 43 91  1  0  0  0  0
 43 92  1  0  0  0  0
M  END
>  <PUBCHEM_COMPOUND_CID>
101762593

>  <PUBCHEM_COMPOUND_CANONICALIZED>
1

>  <PUBCHEM_CACTVS_COMPLEXITY>
1090

>  <PUBCHEM_CACTVS_HBOND_ACCEPTOR>
7

>  <PUBCHEM_CACTVS_HBOND_DONOR>
2

>  <PUBCHEM_CACTVS_ROTATABLE_BOND>
20

>  <PUBCHEM_CACTVS_SUBSKEYS>
AAADcfB8OAAAAAAAAAAAAAAAAAAAAAAAAAAgQIAAAAAAAACAAAAAGgAACAAADQSAgAACAAAABgCIAoBQAAIACAAgIAAACAFAAEgAABIAAAQCQAAEwAAIAQOIyqCuAAAAAAAAAAAAAAAAAAAAAAAAAAAAAA==

>  <PUBCHEM_IUPAC_OPENEYE_NAME>
2,7-dihydroxy-9-methyl-3,6-di(undecyl)-9H-xanthene-1,4,5,8-tetrone

>  <PUBCHEM_IUPAC_CAS_NAME>
2,7-dihydroxy-9-methyl-3,6-di(undecyl)-9H-xanthene-1,4,5,8-tetrone

>  <PUBCHEM_IUPAC_NAME>
2,7-dihydroxy-9-methyl-3,6-di(undecyl)-9H-xanthene-1,4,5,8-tetrone

>  <PUBCHEM_IUPAC_SYSTEMATIC_NAME>
9-methyl-2,7-bis(oxidanyl)-3,6-di(undecyl)-9H-xanthene-1,4,5,8-tetrone

>  <PUBCHEM_IUPAC_TRADITIONAL_NAME>
2,7-dihydroxy-9-methyl-3,6-di(undecyl)-9H-xanthene-1,4,5,8-diquinone

>  <PUBCHEM_IUPAC_INCHI>
InChI=1S/C36H52O7/c1-4-6-8-10-12-14-16-18-20-22-25-29(37)33(41)27-24(3)28-34(42)30(38)26(32(40)36(28)43-35(27)31(25)39)23-21-19-17-15-13-11-9-7-5-2/h24,37-38H,4-23H2,1-3H3

>  <PUBCHEM_IUPAC_INCHIKEY>
PSIOYNVYDPZURD-UHFFFAOYSA-N

>  <PUBCHEM_XLOGP3_AA>
11.5

>  <PUBCHEM_EXACT_MASS>
596.371

>  <PUBCHEM_MOLECULAR_FORMULA>
C36H52O7

>  <PUBCHEM_MOLECULAR_WEIGHT>
596.805

>  <PUBCHEM_OPENEYE_CAN_SMILES>
CCCCCCCCCCCC1=C(C(=O)C2=C(C1=O)OC3=C(C2C)C(=O)C(=C(C3=O)CCCCCCCCCCC)O)O

>  <PUBCHEM_OPENEYE_ISO_SMILES>
CCCCCCCCCCCC1=C(C(=O)C2=C(C1=O)OC3=C(C2C)C(=O)C(=C(C3=O)CCCCCCCCCCC)O)O

>  <PUBCHEM_CACTVS_TPSA>
118

>  <PUBCHEM_MONOISOTOPIC_WEIGHT>
596.371

>  <PUBCHEM_TOTAL_CHARGE>
0

>  <PUBCHEM_HEAVY_ATOM_COUNT>
43

>  <PUBCHEM_ATOM_DEF_STEREO_COUNT>
0

>  <PUBCHEM_ATOM_UDEF_STEREO_COUNT>
0

>  <PUBCHEM_BOND_DEF_STEREO_COUNT>
0

>  <PUBCHEM_BOND_UDEF_STEREO_COUNT>
0

>  <PUBCHEM_ISOTOPIC_ATOM_COUNT>
0

>  <PUBCHEM_COMPONENT_COUNT>
1

>  <PUBCHEM_CACTVS_TAUTO_COUNT>
979

>  <PUBCHEM_COORDINATE_TYPE>
1
5
255

$$$$
