101753350
 OpenBabel06101807152D

 77 81  0  0  1  0  0  0  0  0999 V2000
   11.1972   -1.1296    0.0000 O   0  0  0  0  0  0  0  0  0  0  0  0
   12.9292   -1.1296    0.0000 O   0  0  0  0  0  0  0  0  0  0  0  0
    9.4651   -3.1296    0.0000 O   0  0  0  0  0  0  0  0  0  0  0  0
   11.1972   -4.1296    0.0000 O   0  0  0  0  0  0  0  0  0  0  0  0
   12.9292   -3.1296    0.0000 O   0  0  0  0  0  0  0  0  0  0  0  0
    8.5991   -1.6296    0.0000 O   0  0  0  0  0  0  0  0  0  0  0  0
   13.7953    1.3704    0.0000 O   0  0  0  0  0  0  0  0  0  0  0  0
    7.7331   -0.1296    0.0000 O   0  3  0  0  0  0  0  0  0  0  0  0
   10.2930    1.3672    0.0000 O   0  0  0  0  0  0  0  0  0  0  0  0
   17.2594    0.3704    0.0000 O   0  0  0  0  0  0  0  0  0  0  0  0
   15.5273   -2.6296    0.0000 O   0  0  0  0  0  0  0  0  0  0  0  0
   12.0511    4.4396    0.0000 O   0  0  0  0  0  0  0  0  0  0  0  0
   17.2594   -1.6296    0.0000 O   0  0  0  0  0  0  0  0  0  0  0  0
    2.5369   -3.1296    0.0000 O   0  0  0  0  0  0  0  0  0  0  0  0
   10.3312   -2.6296    0.0000 C   0  0  1  0  0  0  0  0  0  0  0  0
   11.1972   -3.1296    0.0000 C   0  0  1  0  0  0  0  0  0  0  0  0
   10.3312   -1.6296    0.0000 C   0  0  1  0  0  0  0  0  0  0  0  0
   12.0632   -2.6296    0.0000 C   0  0  2  0  0  0  0  0  0  0  0  0
   12.0632   -1.6296    0.0000 C   0  0  1  0  0  0  0  0  0  0  0  0
    9.4651   -1.1296    0.0000 C   0  0  0  0  0  0  0  0  0  0  0  0
   12.9292   -0.1296    0.0000 C   0  0  0  0  0  0  0  0  0  0  0  0
   13.7953    0.3704    0.0000 C   0  0  0  0  0  0  0  0  0  0  0  0
   12.0632    0.3704    0.0000 C   0  0  0  0  0  0  0  0  0  0  0  0
   12.0632    1.3704    0.0000 C   0  0  0  0  0  0  0  0  0  0  0  0
    7.7331   -1.1296    0.0000 C   0  0  0  0  0  0  0  0  0  0  0  0
   14.6613   -0.1296    0.0000 C   0  0  0  0  0  0  0  0  0  0  0  0
   12.9292    1.8704    0.0000 C   0  0  0  0  0  0  0  0  0  0  0  0
   11.1532    1.8772    0.0000 C   0  0  0  0  0  0  0  0  0  0  0  0
   14.6613   -1.1296    0.0000 C   0  0  0  0  0  0  0  0  0  0  0  0
   15.5273    0.3704    0.0000 C   0  0  0  0  0  0  0  0  0  0  0  0
    6.8671   -1.6296    0.0000 C   0  0  0  0  0  0  0  0  0  0  0  0
   12.9453    2.9119    0.0000 C   0  0  0  0  0  0  0  0  0  0  0  0
   11.1452    2.9188    0.0000 C   0  0  0  0  0  0  0  0  0  0  0  0
   12.0473    3.4396    0.0000 C   0  0  0  0  0  0  0  0  0  0  0  0
   16.3933   -0.1296    0.0000 C   0  0  0  0  0  0  0  0  0  0  0  0
   15.5273   -1.6296    0.0000 C   0  0  0  0  0  0  0  0  0  0  0  0
   16.3933   -1.1296    0.0000 C   0  0  0  0  0  0  0  0  0  0  0  0
    6.0010   -1.1296    0.0000 C   0  0  0  0  0  0  0  0  0  0  0  0
    5.1350   -1.6296    0.0000 C   0  0  0  0  0  0  0  0  0  0  0  0
    4.2690   -1.1296    0.0000 C   0  0  0  0  0  0  0  0  0  0  0  0
    5.1350   -2.6296    0.0000 C   0  0  0  0  0  0  0  0  0  0  0  0
   17.2594    1.3704    0.0000 C   0  0  0  0  0  0  0  0  0  0  0  0
   16.3933   -3.1296    0.0000 C   0  0  0  0  0  0  0  0  0  0  0  0
    3.4030   -1.6296    0.0000 C   0  0  0  0  0  0  0  0  0  0  0  0
    4.2690   -3.1296    0.0000 C   0  0  0  0  0  0  0  0  0  0  0  0
    3.4030   -2.6296    0.0000 C   0  0  0  0  0  0  0  0  0  0  0  0
    9.7942   -2.3196    0.0000 H   0  0  0  0  0  0  0  0  0  0  0  0
   11.7341   -3.4396    0.0000 H   0  0  0  0  0  0  0  0  0  0  0  0
   10.3312   -1.0096    0.0000 H   0  0  0  0  0  0  0  0  0  0  0  0
   12.6002   -2.3196    0.0000 H   0  0  0  0  0  0  0  0  0  0  0  0
   12.0632   -1.0096    0.0000 H   0  0  0  0  0  0  0  0  0  0  0  0
    9.8637   -0.6547    0.0000 H   0  0  0  0  0  0  0  0  0  0  0  0
    9.0666   -0.6547    0.0000 H   0  0  0  0  0  0  0  0  0  0  0  0
    9.4651   -3.7496    0.0000 H   0  0  0  0  0  0  0  0  0  0  0  0
   10.6603   -4.4396    0.0000 H   0  0  0  0  0  0  0  0  0  0  0  0
   12.9292   -3.7496    0.0000 H   0  0  0  0  0  0  0  0  0  0  0  0
   11.5263    0.0604    0.0000 H   0  0  0  0  0  0  0  0  0  0  0  0
   14.1244   -1.4396    0.0000 H   0  0  0  0  0  0  0  0  0  0  0  0
   15.5273    0.9904    0.0000 H   0  0  0  0  0  0  0  0  0  0  0  0
    6.8671   -2.2496    0.0000 H   0  0  0  0  0  0  0  0  0  0  0  0
   13.4858    3.2156    0.0000 H   0  0  0  0  0  0  0  0  0  0  0  0
   10.6071    3.2268    0.0000 H   0  0  0  0  0  0  0  0  0  0  0  0
    7.1962    0.1804    0.0000 H   0  0  0  0  0  0  0  0  0  0  0  0
    6.0010   -0.5096    0.0000 H   0  0  0  0  0  0  0  0  0  0  0  0
    9.7525    1.6710    0.0000 H   0  0  0  0  0  0  0  0  0  0  0  0
   17.7963   -1.3196    0.0000 H   0  0  0  0  0  0  0  0  0  0  0  0
    4.2690   -0.5096    0.0000 H   0  0  0  0  0  0  0  0  0  0  0  0
    5.6720   -2.9396    0.0000 H   0  0  0  0  0  0  0  0  0  0  0  0
   17.8794    1.3704    0.0000 H   0  0  0  0  0  0  0  0  0  0  0  0
   17.2594    1.9904    0.0000 H   0  0  0  0  0  0  0  0  0  0  0  0
   16.6394    1.3704    0.0000 H   0  0  0  0  0  0  0  0  0  0  0  0
   16.0833   -3.6666    0.0000 H   0  0  0  0  0  0  0  0  0  0  0  0
   16.9303   -3.4396    0.0000 H   0  0  0  0  0  0  0  0  0  0  0  0
   16.7033   -2.5927    0.0000 H   0  0  0  0  0  0  0  0  0  0  0  0
    2.8660   -1.3196    0.0000 H   0  0  0  0  0  0  0  0  0  0  0  0
    4.2690   -3.7496    0.0000 H   0  0  0  0  0  0  0  0  0  0  0  0
    2.0000   -2.8196    0.0000 H   0  0  0  0  0  0  0  0  0  0  0  0
  1 17  1  0  0  0  0
  1 19  1  0  0  0  0
  2 21  1  0  0  0  0
  3 54  1  0  0  0  0
  4 55  1  0  0  0  0
  5 56  1  0  0  0  0
  6 20  1  0  0  0  0
  6 25  1  0  0  0  0
  7 22  1  0  0  0  0
  7 27  1  0  0  0  0
  8 25  2  0  0  0  0
  8 63  1  0  0  0  0
  9 28  1  0  0  0  0
  9 65  1  0  0  0  0
 10 35  1  0  0  0  0
 10 42  1  0  0  0  0
 11 36  1  0  0  0  0
 11 43  1  0  0  0  0
 12 34  2  0  0  0  0
 13 37  1  0  0  0  0
 13 66  1  0  0  0  0
 14 46  1  0  0  0  0
 14 77  1  0  0  0  0
 15  3  1  0  0  0  0
 15 16  1  1  0  0  0
 15 47  1  0  0  0  0
 16  4  1  0  0  0  0
 16 18  1  1  0  0  0
 16 48  1  0  0  0  0
 17 15  1  6  0  0  0
 17 20  1  0  0  0  0
 17 49  1  0  0  0  0
 18  5  1  0  0  0  0
 18 19  1  6  0  0  0
 18 50  1  0  0  0  0
 19  2  1  0  0  0  0
 19 51  1  6  0  0  0
 20 52  1  0  0  0  0
 20 53  1  0  0  0  0
 21 22  2  0  0  0  0
 21 23  1  0  0  0  0
 22 26  1  0  0  0  0
 23 24  2  0  0  0  0
 23 57  1  0  0  0  0
 24 27  1  0  0  0  0
 24 28  1  0  0  0  0
 25 31  1  0  0  0  0
 26 29  2  0  0  0  0
 26 30  1  0  0  0  0
 27 32  2  0  0  0  0
 28 33  2  0  0  0  0
 29 36  1  0  0  0  0
 29 58  1  0  0  0  0
 30 35  2  0  0  0  0
 30 59  1  0  0  0  0
 31 38  2  3  0  0  0
 31 60  1  0  0  0  0
 32 34  1  0  0  0  0
 32 61  1  0  0  0  0
 33 34  1  0  0  0  0
 33 62  1  0  0  0  0
 35 37  1  0  0  0  0
 36 37  2  0  0  0  0
 38 39  1  0  0  0  0
 38 64  1  0  0  0  0
 39 40  2  0  0  0  0
 39 41  1  0  0  0  0
 40 44  1  0  0  0  0
 40 67  1  0  0  0  0
 41 45  2  0  0  0  0
 41 68  1  0  0  0  0
 42 69  1  0  0  0  0
 42 70  1  0  0  0  0
 42 71  1  0  0  0  0
 43 72  1  0  0  0  0
 43 73  1  0  0  0  0
 43 74  1  0  0  0  0
 44 46  2  0  0  0  0
 44 75  1  0  0  0  0
 45 46  1  0  0  0  0
 45 76  1  0  0  0  0
M  CHG  1   8   1
M  END
>  <PUBCHEM_COMPOUND_CID>
101753350

>  <PUBCHEM_COMPOUND_CANONICALIZED>
1

>  <PUBCHEM_CACTVS_COMPLEXITY>
1280

>  <PUBCHEM_CACTVS_HBOND_ACCEPTOR>
13

>  <PUBCHEM_CACTVS_HBOND_DONOR>
7

>  <PUBCHEM_CACTVS_ROTATABLE_BOND>
10

>  <PUBCHEM_CACTVS_SUBSKEYS>
AAADceB8PAAAAAAAAAAAAAAAAAAAAAAAAAA0YIECAAAAAACBQAAAGgAACAAADBSwmAMyDoAABgCIAqDSCAACCAAgIAAIiAAGiMgdNyKGMRqicCMlwBUPuYfA4DwOIAABCAAAQABAAAIQAACAAAAAAAAAAA==

>  <PUBCHEM_IUPAC_OPENEYE_NAME>
[3-(4-hydroxyphenyl)-1-[[(2R,3S,4S,5R,6S)-3,4,5-trihydroxy-6-[5-hydroxy-2-(4-hydroxy-3,5-dimethoxy-phenyl)-7-oxo-chromen-3-yl]oxy-tetrahydropyran-2-yl]methoxy]prop-2-enylidene]oxonium

>  <PUBCHEM_IUPAC_CAS_NAME>
[3-(4-hydroxyphenyl)-1-[[(2R,3S,4S,5R,6S)-3,4,5-trihydroxy-6-[[5-hydroxy-2-(4-hydroxy-3,5-dimethoxyphenyl)-7-oxo-1-benzopyran-3-yl]oxy]-2-oxanyl]methoxy]prop-2-enylidene]oxonium

>  <PUBCHEM_IUPAC_NAME>
[3-(4-hydroxyphenyl)-1-[[(2R,3S,4S,5R,6S)-3,4,5-trihydroxy-6-[5-hydroxy-2-(4-hydroxy-3,5-dimethoxyphenyl)-7-oxochromen-3-yl]oxyoxan-2-yl]methoxy]prop-2-enylidene]oxidanium

>  <PUBCHEM_IUPAC_SYSTEMATIC_NAME>
[1-[[(2R,3S,4S,5R,6S)-6-[2-(3,5-dimethoxy-4-oxidanyl-phenyl)-5-oxidanyl-7-oxidanylidene-chromen-3-yl]oxy-3,4,5-tris(oxidanyl)oxan-2-yl]methoxy]-3-(4-hydroxyphenyl)prop-2-enylidene]oxidanium

>  <PUBCHEM_IUPAC_TRADITIONAL_NAME>
[3-(4-hydroxyphenyl)-1-[[(2R,3S,4S,5R,6S)-3,4,5-trihydroxy-6-[5-hydroxy-2-(4-hydroxy-3,5-dimethoxy-phenyl)-7-keto-chromen-3-yl]oxy-tetrahydropyran-2-yl]methoxy]prop-2-enylidene]oxonium

>  <PUBCHEM_IUPAC_INCHI>
InChI=1S/C32H30O14/c1-41-22-9-16(10-23(42-2)27(22)37)31-24(13-19-20(35)11-18(34)12-21(19)44-31)45-32-30(40)29(39)28(38)25(46-32)14-43-26(36)8-5-15-3-6-17(33)7-4-15/h3-13,25,28-30,32-33,35,37-40H,14H2,1-2H3/p+1/t25-,28-,29+,30-,32-/m1/s1

>  <PUBCHEM_IUPAC_INCHIKEY>
LYJRJWHFIUOTHZ-KWNZYCHBSA-O

>  <PUBCHEM_XLOGP3_AA>
0.9

>  <PUBCHEM_EXACT_MASS>
639.171

>  <PUBCHEM_MOLECULAR_FORMULA>
C32H31O14+

>  <PUBCHEM_MOLECULAR_WEIGHT>
639.586

>  <PUBCHEM_OPENEYE_CAN_SMILES>
COC1=CC(=CC(=C1O)OC)C2=C(C=C3C(=CC(=O)C=C3O2)O)OC4C(C(C(C(O4)COC(=[OH+])C=CC5=CC=C(C=C5)O)O)O)O

>  <PUBCHEM_OPENEYE_ISO_SMILES>
COC1=CC(=CC(=C1O)OC)C2=C(C=C3C(=CC(=O)C=C3O2)O)O[C@H]4[C@@H]([C@H]([C@@H]([C@H](O4)COC(=[OH+])C=CC5=CC=C(C=C5)O)O)O)O

>  <PUBCHEM_CACTVS_TPSA>
195

>  <PUBCHEM_MONOISOTOPIC_WEIGHT>
639.171

>  <PUBCHEM_TOTAL_CHARGE>
1

>  <PUBCHEM_HEAVY_ATOM_COUNT>
46

>  <PUBCHEM_ATOM_DEF_STEREO_COUNT>
5

>  <PUBCHEM_ATOM_UDEF_STEREO_COUNT>
0

>  <PUBCHEM_BOND_DEF_STEREO_COUNT>
0

>  <PUBCHEM_BOND_UDEF_STEREO_COUNT>
1

>  <PUBCHEM_ISOTOPIC_ATOM_COUNT>
0

>  <PUBCHEM_COMPONENT_COUNT>
1

>  <PUBCHEM_CACTVS_TAUTO_COUNT>
60

>  <PUBCHEM_COORDINATE_TYPE>
1
5
255

>  <PUBCHEM_BONDANNOTATIONS>
17  20  5
19  2  5
21  22  8
21  23  8
23  24  8
24  28  8
26  29  8
26  30  8
27  32  8
28  33  8
29  36  8
15  3  6
30  35  8
31  38  1
32  34  8
33  34  8
35  37  8
36  37  8
39  40  8
39  41  8
16  4  5
40  44  8
41  45  8
44  46  8
45  46  8
18  5  6
7  22  8
7  27  8

$$$$
