101922117
 OpenBabel06101807152D

 78 82  0  0  1  0  0  0  0  0999 V2000
   10.6603   -1.1296    0.0000 O   0  0  0  0  0  0  0  0  0  0  0  0
   12.3923   -1.1296    0.0000 O   0  0  0  0  0  0  0  0  0  0  0  0
    8.9282   -3.1296    0.0000 O   0  0  0  0  0  0  0  0  0  0  0  0
   10.6603   -4.1296    0.0000 O   0  0  0  0  0  0  0  0  0  0  0  0
   12.3923   -3.1296    0.0000 O   0  0  0  0  0  0  0  0  0  0  0  0
    8.0622   -1.6296    0.0000 O   0  0  0  0  0  0  0  0  0  0  0  0
   13.2583    1.3704    0.0000 O   0  0  0  0  0  0  0  0  0  0  0  0
    7.1962   -0.1296    0.0000 O   0  3  0  0  0  0  0  0  0  0  0  0
    9.7561    1.3672    0.0000 O   0  0  0  0  0  0  0  0  0  0  0  0
   16.7224    0.3704    0.0000 O   0  0  0  0  0  0  0  0  0  0  0  0
   14.9904   -2.6296    0.0000 O   0  0  0  0  0  0  0  0  0  0  0  0
   11.5142    4.4396    0.0000 O   0  0  0  0  0  0  0  0  0  0  0  0
   16.7224   -1.6296    0.0000 O   0  0  0  0  0  0  0  0  0  0  0  0
    2.0000   -1.1296    0.0000 O   0  0  0  0  0  0  0  0  0  0  0  0
    2.0000   -3.1296    0.0000 O   0  0  0  0  0  0  0  0  0  0  0  0
    9.7942   -2.6296    0.0000 C   0  0  1  0  0  0  0  0  0  0  0  0
   10.6603   -3.1296    0.0000 C   0  0  1  0  0  0  0  0  0  0  0  0
    9.7942   -1.6296    0.0000 C   0  0  1  0  0  0  0  0  0  0  0  0
   11.5263   -2.6296    0.0000 C   0  0  2  0  0  0  0  0  0  0  0  0
   11.5263   -1.6296    0.0000 C   0  0  1  0  0  0  0  0  0  0  0  0
    8.9282   -1.1296    0.0000 C   0  0  0  0  0  0  0  0  0  0  0  0
   12.3923   -0.1296    0.0000 C   0  0  0  0  0  0  0  0  0  0  0  0
   13.2583    0.3704    0.0000 C   0  0  0  0  0  0  0  0  0  0  0  0
   11.5263    0.3704    0.0000 C   0  0  0  0  0  0  0  0  0  0  0  0
    7.1962   -1.1296    0.0000 C   0  0  0  0  0  0  0  0  0  0  0  0
   11.5263    1.3704    0.0000 C   0  0  0  0  0  0  0  0  0  0  0  0
   14.1244   -0.1296    0.0000 C   0  0  0  0  0  0  0  0  0  0  0  0
   12.3923    1.8704    0.0000 C   0  0  0  0  0  0  0  0  0  0  0  0
   10.6163    1.8772    0.0000 C   0  0  0  0  0  0  0  0  0  0  0  0
    6.3301   -1.6296    0.0000 C   0  0  0  0  0  0  0  0  0  0  0  0
   14.1244   -1.1296    0.0000 C   0  0  0  0  0  0  0  0  0  0  0  0
   14.9904    0.3704    0.0000 C   0  0  0  0  0  0  0  0  0  0  0  0
   12.4084    2.9119    0.0000 C   0  0  0  0  0  0  0  0  0  0  0  0
   10.6082    2.9188    0.0000 C   0  0  0  0  0  0  0  0  0  0  0  0
   11.5103    3.4396    0.0000 C   0  0  0  0  0  0  0  0  0  0  0  0
   15.8564   -0.1296    0.0000 C   0  0  0  0  0  0  0  0  0  0  0  0
   14.9904   -1.6296    0.0000 C   0  0  0  0  0  0  0  0  0  0  0  0
   15.8564   -1.1296    0.0000 C   0  0  0  0  0  0  0  0  0  0  0  0
    5.4641   -1.1296    0.0000 C   0  0  0  0  0  0  0  0  0  0  0  0
    4.5981   -1.6296    0.0000 C   0  0  0  0  0  0  0  0  0  0  0  0
    3.7320   -1.1296    0.0000 C   0  0  0  0  0  0  0  0  0  0  0  0
    4.5981   -2.6296    0.0000 C   0  0  0  0  0  0  0  0  0  0  0  0
   16.7224    1.3704    0.0000 C   0  0  0  0  0  0  0  0  0  0  0  0
   15.8564   -3.1296    0.0000 C   0  0  0  0  0  0  0  0  0  0  0  0
    2.8660   -1.6296    0.0000 C   0  0  0  0  0  0  0  0  0  0  0  0
    3.7320   -3.1296    0.0000 C   0  0  0  0  0  0  0  0  0  0  0  0
    2.8660   -2.6296    0.0000 C   0  0  0  0  0  0  0  0  0  0  0  0
    9.2573   -2.3196    0.0000 H   0  0  0  0  0  0  0  0  0  0  0  0
   11.1972   -3.4396    0.0000 H   0  0  0  0  0  0  0  0  0  0  0  0
    9.7942   -1.0096    0.0000 H   0  0  0  0  0  0  0  0  0  0  0  0
   12.0632   -2.3196    0.0000 H   0  0  0  0  0  0  0  0  0  0  0  0
   11.5263   -1.0096    0.0000 H   0  0  0  0  0  0  0  0  0  0  0  0
    9.3267   -0.6547    0.0000 H   0  0  0  0  0  0  0  0  0  0  0  0
    8.5297   -0.6547    0.0000 H   0  0  0  0  0  0  0  0  0  0  0  0
    8.9282   -3.7496    0.0000 H   0  0  0  0  0  0  0  0  0  0  0  0
   10.1233   -4.4396    0.0000 H   0  0  0  0  0  0  0  0  0  0  0  0
   12.3923   -3.7496    0.0000 H   0  0  0  0  0  0  0  0  0  0  0  0
   10.9893    0.0604    0.0000 H   0  0  0  0  0  0  0  0  0  0  0  0
    6.3301   -2.2496    0.0000 H   0  0  0  0  0  0  0  0  0  0  0  0
   13.5874   -1.4396    0.0000 H   0  0  0  0  0  0  0  0  0  0  0  0
   14.9904    0.9904    0.0000 H   0  0  0  0  0  0  0  0  0  0  0  0
   12.9488    3.2156    0.0000 H   0  0  0  0  0  0  0  0  0  0  0  0
   10.0701    3.2268    0.0000 H   0  0  0  0  0  0  0  0  0  0  0  0
    6.6592    0.1804    0.0000 H   0  0  0  0  0  0  0  0  0  0  0  0
    5.4641   -0.5096    0.0000 H   0  0  0  0  0  0  0  0  0  0  0  0
    9.2156    1.6710    0.0000 H   0  0  0  0  0  0  0  0  0  0  0  0
   17.2594   -1.3196    0.0000 H   0  0  0  0  0  0  0  0  0  0  0  0
    3.7320   -0.5096    0.0000 H   0  0  0  0  0  0  0  0  0  0  0  0
    5.1350   -2.9396    0.0000 H   0  0  0  0  0  0  0  0  0  0  0  0
   17.3424    1.3704    0.0000 H   0  0  0  0  0  0  0  0  0  0  0  0
   16.7224    1.9904    0.0000 H   0  0  0  0  0  0  0  0  0  0  0  0
   16.1024    1.3704    0.0000 H   0  0  0  0  0  0  0  0  0  0  0  0
   15.5464   -3.6666    0.0000 H   0  0  0  0  0  0  0  0  0  0  0  0
   16.3933   -3.4396    0.0000 H   0  0  0  0  0  0  0  0  0  0  0  0
   16.1664   -2.5927    0.0000 H   0  0  0  0  0  0  0  0  0  0  0  0
    3.7320   -3.7496    0.0000 H   0  0  0  0  0  0  0  0  0  0  0  0
    2.0000   -0.5096    0.0000 H   0  0  0  0  0  0  0  0  0  0  0  0
    2.0000   -3.7496    0.0000 H   0  0  0  0  0  0  0  0  0  0  0  0
  1 18  1  0  0  0  0
  1 20  1  0  0  0  0
  2 22  1  0  0  0  0
  3 55  1  0  0  0  0
  4 56  1  0  0  0  0
  5 57  1  0  0  0  0
  6 21  1  0  0  0  0
  6 25  1  0  0  0  0
  7 23  1  0  0  0  0
  7 28  1  0  0  0  0
  8 25  2  0  0  0  0
  8 64  1  0  0  0  0
  9 29  1  0  0  0  0
  9 66  1  0  0  0  0
 10 36  1  0  0  0  0
 10 43  1  0  0  0  0
 11 37  1  0  0  0  0
 11 44  1  0  0  0  0
 12 35  2  0  0  0  0
 13 38  1  0  0  0  0
 13 67  1  0  0  0  0
 14 45  1  0  0  0  0
 14 77  1  0  0  0  0
 15 47  1  0  0  0  0
 15 78  1  0  0  0  0
 16  3  1  0  0  0  0
 16 17  1  1  0  0  0
 16 48  1  0  0  0  0
 17  4  1  0  0  0  0
 17 19  1  1  0  0  0
 17 49  1  0  0  0  0
 18 16  1  6  0  0  0
 18 21  1  0  0  0  0
 18 50  1  0  0  0  0
 19  5  1  0  0  0  0
 19 20  1  6  0  0  0
 19 51  1  0  0  0  0
 20  2  1  0  0  0  0
 20 52  1  6  0  0  0
 21 53  1  0  0  0  0
 21 54  1  0  0  0  0
 22 23  2  0  0  0  0
 22 24  1  0  0  0  0
 23 27  1  0  0  0  0
 24 26  2  0  0  0  0
 24 58  1  0  0  0  0
 25 30  1  0  0  0  0
 26 28  1  0  0  0  0
 26 29  1  0  0  0  0
 27 31  2  0  0  0  0
 27 32  1  0  0  0  0
 28 33  2  0  0  0  0
 29 34  2  0  0  0  0
 30 39  2  3  0  0  0
 30 59  1  0  0  0  0
 31 37  1  0  0  0  0
 31 60  1  0  0  0  0
 32 36  2  0  0  0  0
 32 61  1  0  0  0  0
 33 35  1  0  0  0  0
 33 62  1  0  0  0  0
 34 35  1  0  0  0  0
 34 63  1  0  0  0  0
 36 38  1  0  0  0  0
 37 38  2  0  0  0  0
 39 40  1  0  0  0  0
 39 65  1  0  0  0  0
 40 41  2  0  0  0  0
 40 42  1  0  0  0  0
 41 45  1  0  0  0  0
 41 68  1  0  0  0  0
 42 46  2  0  0  0  0
 42 69  1  0  0  0  0
 43 70  1  0  0  0  0
 43 71  1  0  0  0  0
 43 72  1  0  0  0  0
 44 73  1  0  0  0  0
 44 74  1  0  0  0  0
 44 75  1  0  0  0  0
 45 47  2  0  0  0  0
 46 47  1  0  0  0  0
 46 76  1  0  0  0  0
M  CHG  1   8   1
M  END
>  <PUBCHEM_COMPOUND_CID>
101922117

>  <PUBCHEM_COMPOUND_CANONICALIZED>
1

>  <PUBCHEM_CACTVS_COMPLEXITY>
1320

>  <PUBCHEM_CACTVS_HBOND_ACCEPTOR>
14

>  <PUBCHEM_CACTVS_HBOND_DONOR>
8

>  <PUBCHEM_CACTVS_ROTATABLE_BOND>
10

>  <PUBCHEM_CACTVS_SUBSKEYS>
AAADceB8PAAAAAAAAAAAAAAAAAAAAAAAAAA0YIECAAAAAACBQAAAGgAACAAADBSwmAMyDoAABgCIAqDSCAACCAAgIAAIiAAGiMgdNyKGMRqicCMlwBUPuYfA4DwOIAABCAAAQABAAAIQAACAAAAAAAAAAA==

>  <PUBCHEM_IUPAC_OPENEYE_NAME>
[3-(3,4-dihydroxyphenyl)-1-[[(2R,3S,4S,5R,6S)-3,4,5-trihydroxy-6-[5-hydroxy-2-(4-hydroxy-3,5-dimethoxy-phenyl)-7-oxo-chromen-3-yl]oxy-tetrahydropyran-2-yl]methoxy]prop-2-enylidene]oxonium

>  <PUBCHEM_IUPAC_CAS_NAME>
[3-(3,4-dihydroxyphenyl)-1-[[(2R,3S,4S,5R,6S)-3,4,5-trihydroxy-6-[[5-hydroxy-2-(4-hydroxy-3,5-dimethoxyphenyl)-7-oxo-1-benzopyran-3-yl]oxy]-2-oxanyl]methoxy]prop-2-enylidene]oxonium

>  <PUBCHEM_IUPAC_NAME>
[3-(3,4-dihydroxyphenyl)-1-[[(2R,3S,4S,5R,6S)-3,4,5-trihydroxy-6-[5-hydroxy-2-(4-hydroxy-3,5-dimethoxyphenyl)-7-oxochromen-3-yl]oxyoxan-2-yl]methoxy]prop-2-enylidene]oxidanium

>  <PUBCHEM_IUPAC_SYSTEMATIC_NAME>
[3-[3,4-bis(oxidanyl)phenyl]-1-[[(2R,3S,4S,5R,6S)-6-[2-(3,5-dimethoxy-4-oxidanyl-phenyl)-5-oxidanyl-7-oxidanylidene-chromen-3-yl]oxy-3,4,5-tris(oxidanyl)oxan-2-yl]methoxy]prop-2-enylidene]oxidanium

>  <PUBCHEM_IUPAC_TRADITIONAL_NAME>
[3-(3,4-dihydroxyphenyl)-1-[[(2R,3S,4S,5R,6S)-3,4,5-trihydroxy-6-[5-hydroxy-2-(4-hydroxy-3,5-dimethoxy-phenyl)-7-keto-chromen-3-yl]oxy-tetrahydropyran-2-yl]methoxy]prop-2-enylidene]oxonium

>  <PUBCHEM_IUPAC_INCHI>
InChI=1S/C32H30O15/c1-42-22-8-15(9-23(43-2)27(22)38)31-24(12-17-19(35)10-16(33)11-21(17)45-31)46-32-30(41)29(40)28(39)25(47-32)13-44-26(37)6-4-14-3-5-18(34)20(36)7-14/h3-12,25,28-30,32,34-36,38-41H,13H2,1-2H3/p+1/t25-,28-,29+,30-,32-/m1/s1

>  <PUBCHEM_IUPAC_INCHIKEY>
TUFRXEMKYIRZME-KWNZYCHBSA-O

>  <PUBCHEM_XLOGP3_AA>
0.5

>  <PUBCHEM_EXACT_MASS>
655.166

>  <PUBCHEM_MOLECULAR_FORMULA>
C32H31O15+

>  <PUBCHEM_MOLECULAR_WEIGHT>
655.585

>  <PUBCHEM_OPENEYE_CAN_SMILES>
COC1=CC(=CC(=C1O)OC)C2=C(C=C3C(=CC(=O)C=C3O2)O)OC4C(C(C(C(O4)COC(=[OH+])C=CC5=CC(=C(C=C5)O)O)O)O)O

>  <PUBCHEM_OPENEYE_ISO_SMILES>
COC1=CC(=CC(=C1O)OC)C2=C(C=C3C(=CC(=O)C=C3O2)O)O[C@H]4[C@@H]([C@H]([C@@H]([C@H](O4)COC(=[OH+])C=CC5=CC(=C(C=C5)O)O)O)O)O

>  <PUBCHEM_CACTVS_TPSA>
215

>  <PUBCHEM_MONOISOTOPIC_WEIGHT>
655.166

>  <PUBCHEM_TOTAL_CHARGE>
1

>  <PUBCHEM_HEAVY_ATOM_COUNT>
47

>  <PUBCHEM_ATOM_DEF_STEREO_COUNT>
5

>  <PUBCHEM_ATOM_UDEF_STEREO_COUNT>
0

>  <PUBCHEM_BOND_DEF_STEREO_COUNT>
0

>  <PUBCHEM_BOND_UDEF_STEREO_COUNT>
1

>  <PUBCHEM_ISOTOPIC_ATOM_COUNT>
0

>  <PUBCHEM_COMPONENT_COUNT>
1

>  <PUBCHEM_CACTVS_TAUTO_COUNT>
210

>  <PUBCHEM_COORDINATE_TYPE>
1
5
255

>  <PUBCHEM_BONDANNOTATIONS>
18  21  5
20  2  5
22  23  8
22  24  8
24  26  8
26  29  8
27  31  8
27  32  8
28  33  8
29  34  8
16  3  6
30  39  1
31  37  8
32  36  8
33  35  8
34  35  8
36  38  8
37  38  8
17  4  5
40  41  8
40  42  8
41  45  8
42  46  8
45  47  8
46  47  8
19  5  6
7  23  8
7  28  8

$$$$
