101995280
 OpenBabel06101807152D

 28 30  0  0  0  0  0  0  0  0999 V2000
    8.7460   -1.5374    0.0000 O   0  0  0  0  0  0  0  0  0  0  0  0
    4.2678   -0.2119    0.0000 O   0  0  0  0  0  0  0  0  0  0  0  0
    6.9338    1.2673    0.0000 O   0  0  0  0  0  0  0  0  0  0  0  0
    5.1854    1.3019    0.0000 O   0  0  0  0  0  0  0  0  0  0  0  0
    2.5357   -1.2602    0.0000 O   0  0  0  0  0  0  0  0  0  0  0  0
    6.0678   -0.2327    0.0000 C   0  0  0  0  0  0  0  0  0  0  0  0
    6.0678   -1.2327    0.0000 C   0  0  0  0  0  0  0  0  0  0  0  0
    7.7998   -0.2327    0.0000 C   0  0  0  0  0  0  0  0  0  0  0  0
    6.9338    0.2673    0.0000 C   0  0  0  0  0  0  0  0  0  0  0  0
    7.7998   -1.2327    0.0000 C   0  0  0  0  0  0  0  0  0  0  0  0
    6.9338   -1.7327    0.0000 C   0  0  0  0  0  0  0  0  0  0  0  0
    5.1738   -1.7673    0.0000 C   0  0  0  0  0  0  0  0  0  0  0  0
    5.1738    0.3020    0.0000 C   0  0  0  0  0  0  0  0  0  0  0  0
    4.2678   -1.2535    0.0000 C   0  0  0  0  0  0  0  0  0  0  0  0
    8.7460    0.0721    0.0000 C   0  0  0  0  0  0  0  0  0  0  0  0
    9.3297   -0.7327    0.0000 C   0  0  0  0  0  0  0  0  0  0  0  0
    3.4037   -1.7568    0.0000 C   0  0  0  0  0  0  0  0  0  0  0  0
    7.7998    1.7673    0.0000 C   0  0  0  0  0  0  0  0  0  0  0  0
    6.9338   -2.3527    0.0000 H   0  0  0  0  0  0  0  0  0  0  0  0
    5.1810   -2.3873    0.0000 H   0  0  0  0  0  0  0  0  0  0  0  0
    8.9387    0.6614    0.0000 H   0  0  0  0  0  0  0  0  0  0  0  0
    9.9497   -0.7327    0.0000 H   0  0  0  0  0  0  0  0  0  0  0  0
    3.0070   -2.2333    0.0000 H   0  0  0  0  0  0  0  0  0  0  0  0
    3.8040   -2.2302    0.0000 H   0  0  0  0  0  0  0  0  0  0  0  0
    8.1098    1.2304    0.0000 H   0  0  0  0  0  0  0  0  0  0  0  0
    8.3368    2.0773    0.0000 H   0  0  0  0  0  0  0  0  0  0  0  0
    7.4898    2.3043    0.0000 H   0  0  0  0  0  0  0  0  0  0  0  0
    2.0000   -1.5722    0.0000 H   0  0  0  0  0  0  0  0  0  0  0  0
  1 10  1  0  0  0  0
  1 16  1  0  0  0  0
  2 13  1  0  0  0  0
  2 14  1  0  0  0  0
  3  9  1  0  0  0  0
  3 18  1  0  0  0  0
  4 13  2  0  0  0  0
  5 17  1  0  0  0  0
  5 28  1  0  0  0  0
  6  7  1  0  0  0  0
  6  9  2  0  0  0  0
  6 13  1  0  0  0  0
  7 11  2  0  0  0  0
  7 12  1  0  0  0  0
  8  9  1  0  0  0  0
  8 10  2  0  0  0  0
  8 15  1  0  0  0  0
 10 11  1  0  0  0  0
 11 19  1  0  0  0  0
 12 14  2  0  0  0  0
 12 20  1  0  0  0  0
 14 17  1  0  0  0  0
 15 16  2  0  0  0  0
 15 21  1  0  0  0  0
 16 22  1  0  0  0  0
 17 23  1  0  0  0  0
 17 24  1  0  0  0  0
 18 25  1  0  0  0  0
 18 26  1  0  0  0  0
 18 27  1  0  0  0  0
M  END
>  <PUBCHEM_COMPOUND_CID>
101995280

>  <PUBCHEM_COMPOUND_CANONICALIZED>
1

>  <PUBCHEM_CACTVS_COMPLEXITY>
378

>  <PUBCHEM_CACTVS_HBOND_ACCEPTOR>
5

>  <PUBCHEM_CACTVS_HBOND_DONOR>
1

>  <PUBCHEM_CACTVS_ROTATABLE_BOND>
2

>  <PUBCHEM_CACTVS_SUBSKEYS>
AAADccBwOAAAAAAAAAAAAAAAAAAAASAAAAAwQAAAAAAAAEiB8AAAGgAACAAADASgmAIyDsAABkCIAqjSiAACCAAkIAAIiAEGCMgNNzaENRqCOWCl4BULuYfK7vzu4AADCAAYAADAAAYQADAAAAAAAAAAAA==

>  <PUBCHEM_IUPAC_OPENEYE_NAME>
7-(hydroxymethyl)-4-methoxy-furo[2,3-g]isochromen-5-one

>  <PUBCHEM_IUPAC_CAS_NAME>
7-(hydroxymethyl)-4-methoxy-5-furo[2,3-g][2]benzopyranone

>  <PUBCHEM_IUPAC_NAME>
7-(hydroxymethyl)-4-methoxyfuro[2,3-g]isochromen-5-one

>  <PUBCHEM_IUPAC_SYSTEMATIC_NAME>
7-(hydroxymethyl)-4-methoxy-furo[2,3-g]isochromen-5-one

>  <PUBCHEM_IUPAC_TRADITIONAL_NAME>
4-methoxy-7-methylol-fur[2,3-g]isochromen-5-one

>  <PUBCHEM_IUPAC_INCHI>
InChI=1S/C13H10O5/c1-16-12-9-2-3-17-10(9)5-7-4-8(6-14)18-13(15)11(7)12/h2-5,14H,6H2,1H3

>  <PUBCHEM_IUPAC_INCHIKEY>
KFOFBVHBCDBMPK-UHFFFAOYSA-N

>  <PUBCHEM_XLOGP3_AA>
1.4

>  <PUBCHEM_EXACT_MASS>
246.053

>  <PUBCHEM_MOLECULAR_FORMULA>
C13H10O5

>  <PUBCHEM_MOLECULAR_WEIGHT>
246.218

>  <PUBCHEM_OPENEYE_CAN_SMILES>
COC1=C2C(=CC3=C1C=CO3)C=C(OC2=O)CO

>  <PUBCHEM_OPENEYE_ISO_SMILES>
COC1=C2C(=CC3=C1C=CO3)C=C(OC2=O)CO

>  <PUBCHEM_CACTVS_TPSA>
68.9

>  <PUBCHEM_MONOISOTOPIC_WEIGHT>
246.053

>  <PUBCHEM_TOTAL_CHARGE>
0

>  <PUBCHEM_HEAVY_ATOM_COUNT>
18

>  <PUBCHEM_ATOM_DEF_STEREO_COUNT>
0

>  <PUBCHEM_ATOM_UDEF_STEREO_COUNT>
0

>  <PUBCHEM_BOND_DEF_STEREO_COUNT>
0

>  <PUBCHEM_BOND_UDEF_STEREO_COUNT>
0

>  <PUBCHEM_ISOTOPIC_ATOM_COUNT>
0

>  <PUBCHEM_COMPONENT_COUNT>
1

>  <PUBCHEM_CACTVS_TAUTO_COUNT>
1

>  <PUBCHEM_COORDINATE_TYPE>
1
5
255

>  <PUBCHEM_BONDANNOTATIONS>
1  10  8
1  16  8
10  11  8
12  14  8
15  16  8
2  13  8
2  14  8
6  13  8
6  7  8
6  9  8
7  11  8
7  12  8
8  10  8
8  15  8
8  9  8

$$$$
