102115497
 OpenBabel06101807152D

 61 66  0  0  0  0  0  0  0  0999 V2000
   10.4205    0.4653    0.0000 O   0  0  0  0  0  0  0  0  0  0  0  0
    6.9006   -0.4653    0.0000 O   0  0  0  0  0  0  0  0  0  0  0  0
    6.9285    0.5000    0.0000 O   0  0  0  0  0  0  0  0  0  0  0  0
   10.3926   -0.5000    0.0000 O   0  0  0  0  0  0  0  0  0  0  0  0
    8.6605    3.5000    0.0000 O   0  0  0  0  0  0  0  0  0  0  0  0
    8.6605   -3.5000    0.0000 O   0  0  0  0  0  0  0  0  0  0  0  0
   10.4089    3.5346    0.0000 O   0  0  0  0  0  0  0  0  0  0  0  0
    6.9121   -3.5346    0.0000 O   0  0  0  0  0  0  0  0  0  0  0  0
   14.7829   -1.0341    0.0000 O   0  0  0  0  0  0  0  0  0  0  0  0
    2.5381    1.0341    0.0000 O   0  0  0  0  0  0  0  0  0  0  0  0
    8.6605    0.5000    0.0000 C   0  0  0  0  0  0  0  0  0  0  0  0
    8.6605   -0.5000    0.0000 C   0  0  0  0  0  0  0  0  0  0  0  0
    9.5266    1.0000    0.0000 C   0  0  0  0  0  0  0  0  0  0  0  0
    7.7945   -1.0000    0.0000 C   0  0  0  0  0  0  0  0  0  0  0  0
    9.5266    2.0000    0.0000 C   0  0  0  0  0  0  0  0  0  0  0  0
    7.7945   -2.0000    0.0000 C   0  0  0  0  0  0  0  0  0  0  0  0
    7.7945    1.0000    0.0000 C   0  0  0  0  0  0  0  0  0  0  0  0
    9.5266   -1.0000    0.0000 C   0  0  0  0  0  0  0  0  0  0  0  0
    8.6605    2.5000    0.0000 C   0  0  0  0  0  0  0  0  0  0  0  0
    8.6605   -2.5000    0.0000 C   0  0  0  0  0  0  0  0  0  0  0  0
    7.7945    2.0000    0.0000 C   0  0  0  0  0  0  0  0  0  0  0  0
    9.5266   -2.0000    0.0000 C   0  0  0  0  0  0  0  0  0  0  0  0
   10.4205    2.5347    0.0000 C   0  0  0  0  0  0  0  0  0  0  0  0
   11.3266    0.9792    0.0000 C   0  0  0  0  0  0  0  0  0  0  0  0
    6.9006   -2.5347    0.0000 C   0  0  0  0  0  0  0  0  0  0  0  0
    5.9945   -0.9792    0.0000 C   0  0  0  0  0  0  0  0  0  0  0  0
   11.3266    2.0208    0.0000 C   0  0  0  0  0  0  0  0  0  0  0  0
    5.9945   -2.0208    0.0000 C   0  0  0  0  0  0  0  0  0  0  0  0
   12.1907    0.4758    0.0000 C   0  0  0  0  0  0  0  0  0  0  0  0
    5.1304   -0.4758    0.0000 C   0  0  0  0  0  0  0  0  0  0  0  0
   12.1868   -0.5241    0.0000 C   0  0  0  0  0  0  0  0  0  0  0  0
   13.0586    0.9725    0.0000 C   0  0  0  0  0  0  0  0  0  0  0  0
    5.1343    0.5241    0.0000 C   0  0  0  0  0  0  0  0  0  0  0  0
    4.2625   -0.9725    0.0000 C   0  0  0  0  0  0  0  0  0  0  0  0
    6.0624    1.0000    0.0000 C   0  0  0  0  0  0  0  0  0  0  0  0
   13.0509   -1.0275    0.0000 C   0  0  0  0  0  0  0  0  0  0  0  0
   13.9227    0.4692    0.0000 C   0  0  0  0  0  0  0  0  0  0  0  0
    4.2702    1.0275    0.0000 C   0  0  0  0  0  0  0  0  0  0  0  0
    3.3984   -0.4692    0.0000 C   0  0  0  0  0  0  0  0  0  0  0  0
   13.9188   -0.5308    0.0000 C   0  0  0  0  0  0  0  0  0  0  0  0
    3.4022    0.5308    0.0000 C   0  0  0  0  0  0  0  0  0  0  0  0
    7.2576    2.3100    0.0000 H   0  0  0  0  0  0  0  0  0  0  0  0
   10.0635   -2.3100    0.0000 H   0  0  0  0  0  0  0  0  0  0  0  0
   11.8623    2.3329    0.0000 H   0  0  0  0  0  0  0  0  0  0  0  0
    5.4588   -2.3329    0.0000 H   0  0  0  0  0  0  0  0  0  0  0  0
   10.9295   -0.8100    0.0000 H   0  0  0  0  0  0  0  0  0  0  0  0
   11.6487   -0.8321    0.0000 H   0  0  0  0  0  0  0  0  0  0  0  0
   13.0610    1.5925    0.0000 H   0  0  0  0  0  0  0  0  0  0  0  0
    8.1236    3.8100    0.0000 H   0  0  0  0  0  0  0  0  0  0  0  0
    5.6724    0.8321    0.0000 H   0  0  0  0  0  0  0  0  0  0  0  0
    4.2601   -1.5925    0.0000 H   0  0  0  0  0  0  0  0  0  0  0  0
    9.1975   -3.8100    0.0000 H   0  0  0  0  0  0  0  0  0  0  0  0
    6.3724    1.5369    0.0000 H   0  0  0  0  0  0  0  0  0  0  0  0
    5.5255    1.3100    0.0000 H   0  0  0  0  0  0  0  0  0  0  0  0
    5.7524    0.4631    0.0000 H   0  0  0  0  0  0  0  0  0  0  0  0
   13.0485   -1.6475    0.0000 H   0  0  0  0  0  0  0  0  0  0  0  0
   14.4608    0.7771    0.0000 H   0  0  0  0  0  0  0  0  0  0  0  0
    4.2726    1.6475    0.0000 H   0  0  0  0  0  0  0  0  0  0  0  0
    2.8602   -0.7771    0.0000 H   0  0  0  0  0  0  0  0  0  0  0  0
   15.3211   -0.7262    0.0000 H   0  0  0  0  0  0  0  0  0  0  0  0
    2.0000    0.7262    0.0000 H   0  0  0  0  0  0  0  0  0  0  0  0
  1 13  1  0  0  0  0
  1 24  1  0  0  0  0
  2 14  1  0  0  0  0
  2 26  1  0  0  0  0
  3 17  1  0  0  0  0
  3 35  1  0  0  0  0
  4 18  1  0  0  0  0
  4 46  1  0  0  0  0
  5 19  1  0  0  0  0
  5 49  1  0  0  0  0
  6 20  1  0  0  0  0
  6 52  1  0  0  0  0
  7 23  2  0  0  0  0
  8 25  2  0  0  0  0
  9 40  1  0  0  0  0
  9 60  1  0  0  0  0
 10 41  1  0  0  0  0
 10 61  1  0  0  0  0
 11 12  1  0  0  0  0
 11 13  1  0  0  0  0
 11 17  2  0  0  0  0
 12 14  1  0  0  0  0
 12 18  2  0  0  0  0
 13 15  2  0  0  0  0
 14 16  2  0  0  0  0
 15 19  1  0  0  0  0
 15 23  1  0  0  0  0
 16 20  1  0  0  0  0
 16 25  1  0  0  0  0
 17 21  1  0  0  0  0
 18 22  1  0  0  0  0
 19 21  2  0  0  0  0
 20 22  2  0  0  0  0
 21 42  1  0  0  0  0
 22 43  1  0  0  0  0
 23 27  1  0  0  0  0
 24 27  2  0  0  0  0
 24 29  1  0  0  0  0
 25 28  1  0  0  0  0
 26 28  2  0  0  0  0
 26 30  1  0  0  0  0
 27 44  1  0  0  0  0
 28 45  1  0  0  0  0
 29 31  2  0  0  0  0
 29 32  1  0  0  0  0
 30 33  2  0  0  0  0
 30 34  1  0  0  0  0
 31 36  1  0  0  0  0
 31 47  1  0  0  0  0
 32 37  2  0  0  0  0
 32 48  1  0  0  0  0
 33 38  1  0  0  0  0
 33 50  1  0  0  0  0
 34 39  2  0  0  0  0
 34 51  1  0  0  0  0
 35 53  1  0  0  0  0
 35 54  1  0  0  0  0
 35 55  1  0  0  0  0
 36 40  2  0  0  0  0
 36 56  1  0  0  0  0
 37 40  1  0  0  0  0
 37 57  1  0  0  0  0
 38 41  2  0  0  0  0
 38 58  1  0  0  0  0
 39 41  1  0  0  0  0
 39 59  1  0  0  0  0
M  END
>  <PUBCHEM_COMPOUND_CID>
102115497

>  <PUBCHEM_COMPOUND_CANONICALIZED>
1

>  <PUBCHEM_CACTVS_COMPLEXITY>
1060

>  <PUBCHEM_CACTVS_HBOND_ACCEPTOR>
10

>  <PUBCHEM_CACTVS_HBOND_DONOR>
5

>  <PUBCHEM_CACTVS_ROTATABLE_BOND>
4

>  <PUBCHEM_CACTVS_SUBSKEYS>
AAADceB4PAAAAAAAAAAAAAAAAAAAAAAAAAAwYMGCAAAAAACBVAAAGgAACAAADASAmAIyBoAABgCIAqBSAAACCAAkIAAIiAEGCMgMJzaGNRqCeWCl4BUIuQfI7PzOoAACCAAIAABAAAQQABAAAAAAAAAAAA==

>  <PUBCHEM_IUPAC_OPENEYE_NAME>
5,7-dihydroxy-8-[5-hydroxy-2-(4-hydroxyphenyl)-7-methoxy-4-oxo-chromen-8-yl]-2-(4-hydroxyphenyl)chromen-4-one

>  <PUBCHEM_IUPAC_CAS_NAME>
5,7-dihydroxy-8-[5-hydroxy-2-(4-hydroxyphenyl)-7-methoxy-4-oxo-1-benzopyran-8-yl]-2-(4-hydroxyphenyl)-1-benzopyran-4-one

>  <PUBCHEM_IUPAC_NAME>
5,7-dihydroxy-8-[5-hydroxy-2-(4-hydroxyphenyl)-7-methoxy-4-oxochromen-8-yl]-2-(4-hydroxyphenyl)chromen-4-one

>  <PUBCHEM_IUPAC_SYSTEMATIC_NAME>
2-(4-hydroxyphenyl)-8-[2-(4-hydroxyphenyl)-7-methoxy-5-oxidanyl-4-oxidanylidene-chromen-8-yl]-5,7-bis(oxidanyl)chromen-4-one

>  <PUBCHEM_IUPAC_TRADITIONAL_NAME>
5,7-dihydroxy-8-[5-hydroxy-2-(4-hydroxyphenyl)-4-keto-7-methoxy-chromen-8-yl]-2-(4-hydroxyphenyl)chromone

>  <PUBCHEM_IUPAC_INCHI>
InChI=1S/C31H20O10/c1-39-25-13-22(38)27-21(37)12-24(15-4-8-17(33)9-5-15)41-31(27)29(25)28-19(35)10-18(34)26-20(36)11-23(40-30(26)28)14-2-6-16(32)7-3-14/h2-13,32-35,38H,1H3

>  <PUBCHEM_IUPAC_INCHIKEY>
TXGMSHTWMBVGQZ-UHFFFAOYSA-N

>  <PUBCHEM_XLOGP3_AA>
5.4

>  <PUBCHEM_EXACT_MASS>
552.106

>  <PUBCHEM_MOLECULAR_FORMULA>
C31H20O10

>  <PUBCHEM_MOLECULAR_WEIGHT>
552.491

>  <PUBCHEM_OPENEYE_CAN_SMILES>
COC1=C(C2=C(C(=C1)O)C(=O)C=C(O2)C3=CC=C(C=C3)O)C4=C(C=C(C5=C4OC(=CC5=O)C6=CC=C(C=C6)O)O)O

>  <PUBCHEM_OPENEYE_ISO_SMILES>
COC1=C(C2=C(C(=C1)O)C(=O)C=C(O2)C3=CC=C(C=C3)O)C4=C(C=C(C5=C4OC(=CC5=O)C6=CC=C(C=C6)O)O)O

>  <PUBCHEM_CACTVS_TPSA>
163

>  <PUBCHEM_MONOISOTOPIC_WEIGHT>
552.106

>  <PUBCHEM_TOTAL_CHARGE>
0

>  <PUBCHEM_HEAVY_ATOM_COUNT>
41

>  <PUBCHEM_ATOM_DEF_STEREO_COUNT>
0

>  <PUBCHEM_ATOM_UDEF_STEREO_COUNT>
0

>  <PUBCHEM_BOND_DEF_STEREO_COUNT>
0

>  <PUBCHEM_BOND_UDEF_STEREO_COUNT>
0

>  <PUBCHEM_ISOTOPIC_ATOM_COUNT>
0

>  <PUBCHEM_COMPONENT_COUNT>
1

>  <PUBCHEM_CACTVS_TAUTO_COUNT>
998

>  <PUBCHEM_COORDINATE_TYPE>
1
5
255

>  <PUBCHEM_BONDANNOTATIONS>
1  13  8
1  24  8
11  13  8
11  17  8
12  14  8
12  18  8
13  15  8
14  16  8
15  19  8
15  23  8
16  20  8
16  25  8
17  21  8
18  22  8
19  21  8
2  14  8
2  26  8
20  22  8
23  27  8
24  27  8
25  28  8
26  28  8
29  31  8
29  32  8
30  33  8
30  34  8
31  36  8
32  37  8
33  38  8
34  39  8
36  40  8
37  40  8
38  41  8
39  41  8

$$$$
