10215903
 OpenBabel06101807152D

 62 62  0  0  1  0  0  0  0  0999 V2000
    4.8479   -3.8655    0.0000 O   0  0  0  0  0  0  0  0  0  0  0  0
    3.9411    0.2049    0.0000 O   0  0  0  0  0  0  0  0  0  0  0  0
   15.4240    4.2228    0.0000 O   0  0  0  0  0  0  0  0  0  0  0  0
    2.9511   -2.1054    0.0000 C   0  0  0  0  0  0  0  0  0  0  0  0
    3.7601   -1.5176    0.0000 C   0  0  2  0  0  0  0  0  0  0  0  0
    3.2601   -3.0565    0.0000 C   0  0  0  0  0  0  0  0  0  0  0  0
    4.5691   -2.1054    0.0000 C   0  0  0  0  0  0  0  0  0  0  0  0
    4.2601   -3.0565    0.0000 C   0  0  1  0  0  0  0  0  0  0  0  0
    2.0000   -2.4144    0.0000 C   0  0  0  0  0  0  0  0  0  0  0  0
    2.3633   -1.2964    0.0000 C   0  0  0  0  0  0  0  0  0  0  0  0
    3.1723   -0.7086    0.0000 C   0  0  0  0  0  0  0  0  0  0  0  0
    4.3479   -0.7086    0.0000 C   0  0  0  0  0  0  0  0  0  0  0  0
    5.3424   -0.8131    0.0000 C   0  0  0  0  0  0  0  0  0  0  0  0
    5.9302   -0.0041    0.0000 C   0  0  0  0  0  0  0  0  0  0  0  0
    6.9247   -0.1086    0.0000 C   0  0  0  0  0  0  0  0  0  0  0  0
    7.3314   -1.0222    0.0000 C   0  0  0  0  0  0  0  0  0  0  0  0
    7.5125    0.7004    0.0000 C   0  0  0  0  0  0  0  0  0  0  0  0
    8.5070    0.5958    0.0000 C   0  0  0  0  0  0  0  0  0  0  0  0
    9.0948    1.4049    0.0000 C   0  0  0  0  0  0  0  0  0  0  0  0
   10.0893    1.3003    0.0000 C   0  0  0  0  0  0  0  0  0  0  0  0
   10.4960    0.3868    0.0000 C   0  0  0  0  0  0  0  0  0  0  0  0
   10.6771    2.1094    0.0000 C   0  0  0  0  0  0  0  0  0  0  0  0
   11.6716    2.0048    0.0000 C   0  0  0  0  0  0  0  0  0  0  0  0
   12.2594    2.8138    0.0000 C   0  0  0  0  0  0  0  0  0  0  0  0
   13.2539    2.7093    0.0000 C   0  0  0  0  0  0  0  0  0  0  0  0
   13.8417    3.5183    0.0000 C   0  0  0  0  0  0  0  0  0  0  0  0
   13.4350    4.4319    0.0000 C   0  0  0  0  0  0  0  0  0  0  0  0
   14.8362    3.4138    0.0000 C   0  0  0  0  0  0  0  0  0  0  0  0
    2.6536   -3.1854    0.0000 H   0  0  0  0  0  0  0  0  0  0  0  0
    3.3249   -3.6731    0.0000 H   0  0  0  0  0  0  0  0  0  0  0  0
    5.1355   -2.3576    0.0000 H   0  0  0  0  0  0  0  0  0  0  0  0
    4.8791   -1.5685    0.0000 H   0  0  0  0  0  0  0  0  0  0  0  0
    4.8724   -2.9595    0.0000 H   0  0  0  0  0  0  0  0  0  0  0  0
    1.8084   -1.8248    0.0000 H   0  0  0  0  0  0  0  0  0  0  0  0
    1.4103   -2.6060    0.0000 H   0  0  0  0  0  0  0  0  0  0  0  0
    2.1916   -3.0041    0.0000 H   0  0  0  0  0  0  0  0  0  0  0  0
    2.8649   -0.9320    0.0000 H   0  0  0  0  0  0  0  0  0  0  0  0
    1.9988   -0.7948    0.0000 H   0  0  0  0  0  0  0  0  0  0  0  0
    1.8617   -1.6608    0.0000 H   0  0  0  0  0  0  0  0  0  0  0  0
    3.6739   -0.3442    0.0000 H   0  0  0  0  0  0  0  0  0  0  0  0
    2.8079   -0.2070    0.0000 H   0  0  0  0  0  0  0  0  0  0  0  0
    2.6707   -1.0730    0.0000 H   0  0  0  0  0  0  0  0  0  0  0  0
    4.5957   -4.4319    0.0000 H   0  0  0  0  0  0  0  0  0  0  0  0
    5.5946   -1.3795    0.0000 H   0  0  0  0  0  0  0  0  0  0  0  0
    5.6780    0.5623    0.0000 H   0  0  0  0  0  0  0  0  0  0  0  0
    6.7650   -1.2744    0.0000 H   0  0  0  0  0  0  0  0  0  0  0  0
    7.5836   -1.5886    0.0000 H   0  0  0  0  0  0  0  0  0  0  0  0
    7.8978   -0.7700    0.0000 H   0  0  0  0  0  0  0  0  0  0  0  0
    7.2603    1.2668    0.0000 H   0  0  0  0  0  0  0  0  0  0  0  0
    8.7592    0.0294    0.0000 H   0  0  0  0  0  0  0  0  0  0  0  0
    8.8426    1.9713    0.0000 H   0  0  0  0  0  0  0  0  0  0  0  0
    9.9296    0.1346    0.0000 H   0  0  0  0  0  0  0  0  0  0  0  0
   10.7482   -0.1796    0.0000 H   0  0  0  0  0  0  0  0  0  0  0  0
   11.0624    0.6390    0.0000 H   0  0  0  0  0  0  0  0  0  0  0  0
   10.4249    2.6758    0.0000 H   0  0  0  0  0  0  0  0  0  0  0  0
   11.9238    1.4384    0.0000 H   0  0  0  0  0  0  0  0  0  0  0  0
   12.0072    3.3802    0.0000 H   0  0  0  0  0  0  0  0  0  0  0  0
   13.5061    2.1429    0.0000 H   0  0  0  0  0  0  0  0  0  0  0  0
   14.0014    4.6840    0.0000 H   0  0  0  0  0  0  0  0  0  0  0  0
   13.1828    4.9983    0.0000 H   0  0  0  0  0  0  0  0  0  0  0  0
   12.8686    4.1797    0.0000 H   0  0  0  0  0  0  0  0  0  0  0  0
   15.0884    2.8474    0.0000 H   0  0  0  0  0  0  0  0  0  0  0  0
  1 43  1  0  0  0  0
  2 12  2  0  0  0  0
  3 28  2  0  0  0  0
  4  5  1  0  0  0  0
  4  6  1  0  0  0  0
  4  9  1  0  0  0  0
  4 10  1  0  0  0  0
  5  7  1  0  0  0  0
  5 11  1  0  0  0  0
  5 12  1  6  0  0  0
  6  8  1  0  0  0  0
  6 29  1  0  0  0  0
  6 30  1  0  0  0  0
  7  8  1  0  0  0  0
  7 31  1  0  0  0  0
  7 32  1  0  0  0  0
  8  1  1  0  0  0  0
  8 33  1  6  0  0  0
  9 34  1  0  0  0  0
  9 35  1  0  0  0  0
  9 36  1  0  0  0  0
 10 37  1  0  0  0  0
 10 38  1  0  0  0  0
 10 39  1  0  0  0  0
 11 40  1  0  0  0  0
 11 41  1  0  0  0  0
 11 42  1  0  0  0  0
 12 13  1  0  0  0  0
 13 14  2  0  0  0  0
 13 44  1  0  0  0  0
 14 15  1  0  0  0  0
 14 45  1  0  0  0  0
 15 16  1  0  0  0  0
 15 17  2  0  0  0  0
 16 46  1  0  0  0  0
 16 47  1  0  0  0  0
 16 48  1  0  0  0  0
 17 18  1  0  0  0  0
 17 49  1  0  0  0  0
 18 19  2  0  0  0  0
 18 50  1  0  0  0  0
 19 20  1  0  0  0  0
 19 51  1  0  0  0  0
 20 21  1  0  0  0  0
 20 22  2  0  0  0  0
 21 52  1  0  0  0  0
 21 53  1  0  0  0  0
 21 54  1  0  0  0  0
 22 23  1  0  0  0  0
 22 55  1  0  0  0  0
 23 24  2  0  0  0  0
 23 56  1  0  0  0  0
 24 25  1  0  0  0  0
 24 57  1  0  0  0  0
 25 26  2  0  0  0  0
 25 58  1  0  0  0  0
 26 27  1  0  0  0  0
 26 28  1  0  0  0  0
 27 59  1  0  0  0  0
 27 60  1  0  0  0  0
 27 61  1  0  0  0  0
 28 62  1  0  0  0  0
M  END
>  <PUBCHEM_COMPOUND_CID>
10215903

>  <PUBCHEM_COMPOUND_CANONICALIZED>
1

>  <PUBCHEM_CACTVS_COMPLEXITY>
757

>  <PUBCHEM_CACTVS_HBOND_ACCEPTOR>
3

>  <PUBCHEM_CACTVS_HBOND_DONOR>
1

>  <PUBCHEM_CACTVS_ROTATABLE_BOND>
8

>  <PUBCHEM_CACTVS_SUBSKEYS>
AAADcfB4MAAAAAAAAAAAAAAAAAAAAYAAAAAAAAAAAAAAAAAAAAAAGgAACAAADhSggAICAAAAAgCIAqhSgAAAAAAgAAAICAEAAEgIEBIAAQAAQAAEgAAIgYOKzMDPgAAAAAAAAAAAAAAAAAAAAIAACAAAAA==

>  <PUBCHEM_IUPAC_OPENEYE_NAME>
(2E,4E,6E,8E,10E,12E)-14-[(1R,4S)-4-hydroxy-1,2,2-trimethyl-cyclopentyl]-2,7,11-trimethyl-14-oxo-tetradeca-2,4,6,8,10,12-hexaenal

>  <PUBCHEM_IUPAC_CAS_NAME>
(2E,4E,6E,8E,10E,12E)-14-[(1R,4S)-4-hydroxy-1,2,2-trimethylcyclopentyl]-2,7,11-trimethyl-14-oxotetradeca-2,4,6,8,10,12-hexaenal

>  <PUBCHEM_IUPAC_NAME>
(2E,4E,6E,8E,10E,12E)-14-[(1R,4S)-4-hydroxy-1,2,2-trimethylcyclopentyl]-2,7,11-trimethyl-14-oxotetradeca-2,4,6,8,10,12-hexaenal

>  <PUBCHEM_IUPAC_SYSTEMATIC_NAME>
(2E,4E,6E,8E,10E,12E)-2,7,11-trimethyl-14-oxidanylidene-14-[(1R,4S)-1,2,2-trimethyl-4-oxidanyl-cyclopentyl]tetradeca-2,4,6,8,10,12-hexaenal

>  <PUBCHEM_IUPAC_TRADITIONAL_NAME>
(2E,4E,6E,8E,10E,12E)-14-[(1R,4S)-4-hydroxy-1,2,2-trimethyl-cyclopentyl]-14-keto-2,7,11-trimethyl-tetradeca-2,4,6,8,10,12-hexaenal

>  <PUBCHEM_IUPAC_INCHI>
InChI=1S/C25H34O3/c1-19(10-7-8-11-21(3)18-26)12-9-13-20(2)14-15-23(28)25(6)17-22(27)16-24(25,4)5/h7-15,18,22,27H,16-17H2,1-6H3/b8-7+,12-9+,15-14+,19-10+,20-13+,21-11+/t22-,25-/m0/s1

>  <PUBCHEM_IUPAC_INCHIKEY>
MWEPRWWNHJVNMU-KNWYRSANSA-N

>  <PUBCHEM_XLOGP3_AA>
5.9

>  <PUBCHEM_EXACT_MASS>
382.251

>  <PUBCHEM_MOLECULAR_FORMULA>
C25H34O3

>  <PUBCHEM_MOLECULAR_WEIGHT>
382.544

>  <PUBCHEM_OPENEYE_CAN_SMILES>
CC(=CC=CC=C(C)C=O)C=CC=C(C)C=CC(=O)C1(CC(CC1(C)C)O)C

>  <PUBCHEM_OPENEYE_ISO_SMILES>
C/C(=C\C=C\C=C(/C)\C=O)/C=C/C=C(\C)/C=C/C(=O)[C@@]1(C[C@H](CC1(C)C)O)C

>  <PUBCHEM_CACTVS_TPSA>
54.4

>  <PUBCHEM_MONOISOTOPIC_WEIGHT>
382.251

>  <PUBCHEM_TOTAL_CHARGE>
0

>  <PUBCHEM_HEAVY_ATOM_COUNT>
28

>  <PUBCHEM_ATOM_DEF_STEREO_COUNT>
2

>  <PUBCHEM_ATOM_UDEF_STEREO_COUNT>
0

>  <PUBCHEM_BOND_DEF_STEREO_COUNT>
6

>  <PUBCHEM_BOND_UDEF_STEREO_COUNT>
0

>  <PUBCHEM_ISOTOPIC_ATOM_COUNT>
0

>  <PUBCHEM_COMPONENT_COUNT>
1

>  <PUBCHEM_CACTVS_TAUTO_COUNT>
1

>  <PUBCHEM_COORDINATE_TYPE>
1
5
255

>  <PUBCHEM_BONDANNOTATIONS>
8  1  5
5  11  5

$$$$
