102252771
 OpenBabel06101807152D

 48 49  0  0  1  0  0  0  0  0999 V2000
    4.3748   -5.0126    0.0000 O   0  0  0  0  0  0  0  0  0  0  0  0
    2.6428   -5.0126    0.0000 O   0  0  0  0  0  0  0  0  0  0  0  0
    4.6756   -0.3069    0.0000 O   0  0  0  0  0  0  0  0  0  0  0  0
    6.9729   -3.5126    0.0000 O   0  0  0  0  0  0  0  0  0  0  0  0
    3.0481   -0.8992    0.0000 O   0  0  0  0  0  0  0  0  0  0  0  0
    6.1069   -2.0126    0.0000 O   0  0  0  0  0  0  0  0  0  0  0  0
    3.6083    5.1576    0.0000 O   0  0  0  0  0  0  0  0  0  0  0  0
    4.3748   -3.0126    0.0000 C   0  0  2  0  0  0  0  0  0  0  0  0
    3.5088   -3.5126    0.0000 C   0  0  0  0  0  0  0  0  0  0  0  0
    4.3748   -2.0126    0.0000 C   0  0  0  0  0  0  0  0  0  0  0  0
    5.2409   -3.5126    0.0000 C   0  0  0  0  0  0  0  0  0  0  0  0
    3.5088   -4.5126    0.0000 C   0  0  1  0  0  0  0  0  0  0  0  0
    5.2409   -4.5126    0.0000 C   0  0  0  0  0  0  0  0  0  0  0  0
    2.6428   -3.0126    0.0000 C   0  0  0  0  0  0  0  0  0  0  0  0
    4.0328   -1.0729    0.0000 C   0  0  0  0  0  0  0  0  0  0  0  0
    6.1069   -3.0126    0.0000 C   0  0  0  0  0  0  0  0  0  0  0  0
    2.0000   -2.2466    0.0000 C   0  0  0  0  0  0  0  0  0  0  0  0
    4.3336    0.6328    0.0000 C   0  0  0  0  0  0  0  0  0  0  0  0
    4.9764    1.3989    0.0000 C   0  0  0  0  0  0  0  0  0  0  0  0
    4.6344    2.3386    0.0000 C   0  0  0  0  0  0  0  0  0  0  0  0
    3.6496    2.5122    0.0000 C   0  0  0  0  0  0  0  0  0  0  0  0
    5.2771    3.1046    0.0000 C   0  0  0  0  0  0  0  0  0  0  0  0
    7.8389   -3.0126    0.0000 C   0  0  0  0  0  0  0  0  0  0  0  0
    3.3075    3.4519    0.0000 C   0  0  0  0  0  0  0  0  0  0  0  0
    4.9351    4.0443    0.0000 C   0  0  0  0  0  0  0  0  0  0  0  0
    3.9503    4.2180    0.0000 C   0  0  0  0  0  0  0  0  0  0  0  0
    4.9118   -2.7026    0.0000 H   0  0  0  0  0  0  0  0  0  0  0  0
    4.9441   -2.2582    0.0000 H   0  0  0  0  0  0  0  0  0  0  0  0
    3.7643   -2.1203    0.0000 H   0  0  0  0  0  0  0  0  0  0  0  0
    2.9719   -4.2026    0.0000 H   0  0  0  0  0  0  0  0  0  0  0  0
    5.7778   -4.8226    0.0000 H   0  0  0  0  0  0  0  0  0  0  0  0
    2.1059   -3.3226    0.0000 H   0  0  0  0  0  0  0  0  0  0  0  0
    2.4750   -1.8480    0.0000 H   0  0  0  0  0  0  0  0  0  0  0  0
    1.6015   -1.7716    0.0000 H   0  0  0  0  0  0  0  0  0  0  0  0
    1.5250   -2.6451    0.0000 H   0  0  0  0  0  0  0  0  0  0  0  0
    3.9351    1.1078    0.0000 H   0  0  0  0  0  0  0  0  0  0  0  0
    3.7966    0.3228    0.0000 H   0  0  0  0  0  0  0  0  0  0  0  0
    5.3749    0.9239    0.0000 H   0  0  0  0  0  0  0  0  0  0  0  0
    5.5133    1.7089    0.0000 H   0  0  0  0  0  0  0  0  0  0  0  0
    2.6428   -5.6326    0.0000 H   0  0  0  0  0  0  0  0  0  0  0  0
    3.2510    2.0373    0.0000 H   0  0  0  0  0  0  0  0  0  0  0  0
    5.8877    2.9970    0.0000 H   0  0  0  0  0  0  0  0  0  0  0  0
    2.6969    3.5596    0.0000 H   0  0  0  0  0  0  0  0  0  0  0  0
    5.3336    4.5193    0.0000 H   0  0  0  0  0  0  0  0  0  0  0  0
    8.1489   -3.5495    0.0000 H   0  0  0  0  0  0  0  0  0  0  0  0
    8.3759   -2.7026    0.0000 H   0  0  0  0  0  0  0  0  0  0  0  0
    7.5289   -2.4757    0.0000 H   0  0  0  0  0  0  0  0  0  0  0  0
    4.0068    5.6326    0.0000 H   0  0  0  0  0  0  0  0  0  0  0  0
  1 12  1  0  0  0  0
  1 13  1  0  0  0  0
  2 40  1  0  0  0  0
  3 15  1  0  0  0  0
  3 18  1  0  0  0  0
  4 16  1  0  0  0  0
  4 23  1  0  0  0  0
  5 15  2  0  0  0  0
  6 16  2  0  0  0  0
  7 26  1  0  0  0  0
  7 48  1  0  0  0  0
  8  9  1  0  0  0  0
  8 10  1  0  0  0  0
  8 11  1  0  0  0  0
  8 27  1  1  0  0  0
  9 12  1  0  0  0  0
  9 14  2  0  0  0  0
 10 15  1  0  0  0  0
 10 28  1  0  0  0  0
 10 29  1  0  0  0  0
 11 13  2  0  0  0  0
 11 16  1  0  0  0  0
 12  2  1  0  0  0  0
 12 30  1  6  0  0  0
 13 31  1  0  0  0  0
 14 17  1  0  0  0  0
 14 32  1  0  0  0  0
 17 33  1  0  0  0  0
 17 34  1  0  0  0  0
 17 35  1  0  0  0  0
 18 19  1  0  0  0  0
 18 36  1  0  0  0  0
 18 37  1  0  0  0  0
 19 20  1  0  0  0  0
 19 38  1  0  0  0  0
 19 39  1  0  0  0  0
 20 21  2  0  0  0  0
 20 22  1  0  0  0  0
 21 24  1  0  0  0  0
 21 41  1  0  0  0  0
 22 25  2  0  0  0  0
 22 42  1  0  0  0  0
 23 45  1  0  0  0  0
 23 46  1  0  0  0  0
 23 47  1  0  0  0  0
 24 26  2  0  0  0  0
 24 43  1  0  0  0  0
 25 26  1  0  0  0  0
 25 44  1  0  0  0  0
M  END
>  <PUBCHEM_COMPOUND_CID>
102252771

>  <PUBCHEM_COMPOUND_CANONICALIZED>
1

>  <PUBCHEM_CACTVS_COMPLEXITY>
558

>  <PUBCHEM_CACTVS_HBOND_ACCEPTOR>
7

>  <PUBCHEM_CACTVS_HBOND_DONOR>
2

>  <PUBCHEM_CACTVS_ROTATABLE_BOND>
8

>  <PUBCHEM_CACTVS_SUBSKEYS>
AAADceB4OAAAAAAAAAAAAAAAAAAAAAAAAAAwQAAAAAAAAAABAAAAGgAACAAADQSwmAMyDoAABgCIAiDSCAACCAAgIAAIiAEGCMgYNjKCMRKCcAAkwBEIuIeI5qgOIAAAAAAAAABAAAAAAAAAAAAAAAAAAA==

>  <PUBCHEM_IUPAC_OPENEYE_NAME>
methyl (4S,5E,6R)-5-ethylidene-6-hydroxy-4-[2-[2-(4-hydroxyphenyl)ethoxy]-2-oxo-ethyl]-4H-pyran-3-carboxylate

>  <PUBCHEM_IUPAC_CAS_NAME>
(4S,5E,6R)-5-ethylidene-6-hydroxy-4-[2-[2-(4-hydroxyphenyl)ethoxy]-2-oxoethyl]-4H-pyran-3-carboxylic acid methyl ester

>  <PUBCHEM_IUPAC_NAME>
methyl (4S,5E,6R)-5-ethylidene-6-hydroxy-4-[2-[2-(4-hydroxyphenyl)ethoxy]-2-oxoethyl]-4H-pyran-3-carboxylate

>  <PUBCHEM_IUPAC_SYSTEMATIC_NAME>
methyl (4S,5E,6R)-5-ethylidene-4-[2-[2-(4-hydroxyphenyl)ethoxy]-2-oxidanylidene-ethyl]-6-oxidanyl-4H-pyran-3-carboxylate

>  <PUBCHEM_IUPAC_TRADITIONAL_NAME>
(4S,5E,6R)-5-ethylidene-6-hydroxy-4-[2-[2-(4-hydroxyphenyl)ethoxy]-2-keto-ethyl]-4H-pyran-3-carboxylic acid methyl ester

>  <PUBCHEM_IUPAC_INCHI>
InChI=1S/C19H22O7/c1-3-14-15(16(18(22)24-2)11-26-19(14)23)10-17(21)25-9-8-12-4-6-13(20)7-5-12/h3-7,11,15,19-20,23H,8-10H2,1-2H3/b14-3+/t15-,19+/m0/s1

>  <PUBCHEM_IUPAC_INCHIKEY>
ZJRZKUMVZLKDPM-HARHXEFRSA-N

>  <PUBCHEM_XLOGP3_AA>
1.5

>  <PUBCHEM_EXACT_MASS>
362.137

>  <PUBCHEM_MOLECULAR_FORMULA>
C19H22O7

>  <PUBCHEM_MOLECULAR_WEIGHT>
362.378

>  <PUBCHEM_OPENEYE_CAN_SMILES>
CC=C1C(C(=COC1O)C(=O)OC)CC(=O)OCCC2=CC=C(C=C2)O

>  <PUBCHEM_OPENEYE_ISO_SMILES>
C/C=C/1\[C@@H](C(=CO[C@H]1O)C(=O)OC)CC(=O)OCCC2=CC=C(C=C2)O

>  <PUBCHEM_CACTVS_TPSA>
102

>  <PUBCHEM_MONOISOTOPIC_WEIGHT>
362.137

>  <PUBCHEM_TOTAL_CHARGE>
0

>  <PUBCHEM_HEAVY_ATOM_COUNT>
26

>  <PUBCHEM_ATOM_DEF_STEREO_COUNT>
2

>  <PUBCHEM_ATOM_UDEF_STEREO_COUNT>
0

>  <PUBCHEM_BOND_DEF_STEREO_COUNT>
1

>  <PUBCHEM_BOND_UDEF_STEREO_COUNT>
0

>  <PUBCHEM_ISOTOPIC_ATOM_COUNT>
0

>  <PUBCHEM_COMPONENT_COUNT>
1

>  <PUBCHEM_CACTVS_TAUTO_COUNT>
8

>  <PUBCHEM_COORDINATE_TYPE>
1
5
255

>  <PUBCHEM_BONDANNOTATIONS>
12  2  5
20  21  8
20  22  8
21  24  8
22  25  8
24  26  8
25  26  8
8  10  6

$$$$
