10220146
 OpenBabel06101807152D

 36 36  0  0  1  0  0  0  0  0999 V2000
    2.3100   -0.5950    0.0000 O   0  0  0  0  0  0  0  0  0  0  0  0
    4.1760   -3.0950    0.0000 O   0  0  0  0  0  0  0  0  0  0  0  0
    5.9081    1.9050    0.0000 O   0  0  0  0  0  0  0  0  0  0  0  0
    5.0420   -0.5950    0.0000 C   0  0  0  0  0  0  0  0  0  0  0  0
    3.3100   -0.5950    0.0000 C   0  0  3  0  0  0  0  0  0  0  0  0
    5.0420   -1.5950    0.0000 C   0  0  0  0  0  0  0  0  0  0  0  0
    4.1760   -2.0950    0.0000 C   0  0  3  0  0  0  0  0  0  0  0  0
    3.3100   -1.5950    0.0000 C   0  0  0  0  0  0  0  0  0  0  0  0
    4.1760   -0.0950    0.0000 C   0  0  0  0  0  0  0  0  0  0  0  0
    6.0420   -0.5950    0.0000 C   0  0  0  0  0  0  0  0  0  0  0  0
    5.5420    0.2710    0.0000 C   0  0  0  0  0  0  0  0  0  0  0  0
    2.8100    0.2710    0.0000 C   0  0  0  0  0  0  0  0  0  0  0  0
    4.1760    0.9050    0.0000 C   0  0  0  0  0  0  0  0  0  0  0  0
    4.1760    1.9050    0.0000 C   0  0  0  0  0  0  0  0  0  0  0  0
    5.0420    2.4050    0.0000 C   0  0  0  0  0  0  0  0  0  0  0  0
    5.0420    3.4050    0.0000 C   0  0  0  0  0  0  0  0  0  0  0  0
    5.2541   -2.1776    0.0000 H   0  0  0  0  0  0  0  0  0  0  0  0
    5.6526   -1.4873    0.0000 H   0  0  0  0  0  0  0  0  0  0  0  0
    4.9121   -2.5200    0.0000 H   0  0  0  0  0  0  0  0  0  0  0  0
    2.6994   -1.4873    0.0000 H   0  0  0  0  0  0  0  0  0  0  0  0
    3.0980   -2.1776    0.0000 H   0  0  0  0  0  0  0  0  0  0  0  0
    6.0420   -1.2150    0.0000 H   0  0  0  0  0  0  0  0  0  0  0  0
    6.6620   -0.5950    0.0000 H   0  0  0  0  0  0  0  0  0  0  0  0
    6.0420    0.0250    0.0000 H   0  0  0  0  0  0  0  0  0  0  0  0
    6.0790   -0.0390    0.0000 H   0  0  0  0  0  0  0  0  0  0  0  0
    5.8520    0.8080    0.0000 H   0  0  0  0  0  0  0  0  0  0  0  0
    5.0051    0.5810    0.0000 H   0  0  0  0  0  0  0  0  0  0  0  0
    3.3469    0.5810    0.0000 H   0  0  0  0  0  0  0  0  0  0  0  0
    2.5000    0.8080    0.0000 H   0  0  0  0  0  0  0  0  0  0  0  0
    2.2731   -0.0390    0.0000 H   0  0  0  0  0  0  0  0  0  0  0  0
    2.0000   -1.1319    0.0000 H   0  0  0  0  0  0  0  0  0  0  0  0
    4.7130   -3.4050    0.0000 H   0  0  0  0  0  0  0  0  0  0  0  0
    3.6391    2.2150    0.0000 H   0  0  0  0  0  0  0  0  0  0  0  0
    5.6620    3.4050    0.0000 H   0  0  0  0  0  0  0  0  0  0  0  0
    5.0420    4.0250    0.0000 H   0  0  0  0  0  0  0  0  0  0  0  0
    4.4220    3.4050    0.0000 H   0  0  0  0  0  0  0  0  0  0  0  0
  1  5  1  0  0  0  0
  1 31  1  0  0  0  0
  2  7  1  0  0  0  0
  2 32  1  0  0  0  0
  3 15  2  0  0  0  0
  4  6  1  0  0  0  0
  4  9  1  0  0  0  0
  4 10  1  0  0  0  0
  4 11  1  0  0  0  0
  5  8  1  0  0  0  0
  5  9  1  0  0  0  0
  5 12  1  0  0  0  0
  6  7  1  0  0  0  0
  6 17  1  0  0  0  0
  6 18  1  0  0  0  0
  7  8  1  0  0  0  0
  7 19  1  0  0  0  0
  8 20  1  0  0  0  0
  8 21  1  0  0  0  0
  9 13  2  0  0  0  0
 10 22  1  0  0  0  0
 10 23  1  0  0  0  0
 10 24  1  0  0  0  0
 11 25  1  0  0  0  0
 11 26  1  0  0  0  0
 11 27  1  0  0  0  0
 12 28  1  0  0  0  0
 12 29  1  0  0  0  0
 12 30  1  0  0  0  0
 13 14  2  0  0  0  0
 14 15  1  0  0  0  0
 14 33  1  0  0  0  0
 15 16  1  0  0  0  0
 16 34  1  0  0  0  0
 16 35  1  0  0  0  0
 16 36  1  0  0  0  0
M  END
>  <PUBCHEM_COMPOUND_CID>
10220146

>  <PUBCHEM_COMPOUND_CANONICALIZED>
1

>  <PUBCHEM_CACTVS_COMPLEXITY>
361

>  <PUBCHEM_CACTVS_HBOND_ACCEPTOR>
3

>  <PUBCHEM_CACTVS_HBOND_DONOR>
2

>  <PUBCHEM_CACTVS_ROTATABLE_BOND>
1

>  <PUBCHEM_CACTVS_SUBSKEYS>
AAADceBwMAAAAAAAAAAAAAAAAAAAAAAAAAAwAAAAAAAAAAAAAAAAGgAACAAADlSggAICAAAAAgCIAqBSAAAAAAAgAAAAAAAAAEgAFAIAAAAAQAAFgAAAEAGA4FQPAAAAAAAAAAAAAAYQAAAAAAAAAAAAAA==

>  <PUBCHEM_IUPAC_OPENEYE_NAME>
4-(2,4-dihydroxy-2,6,6-trimethyl-cyclohexylidene)but-3-en-2-one

>  <PUBCHEM_IUPAC_CAS_NAME>
4-(2,4-dihydroxy-2,6,6-trimethylcyclohexylidene)-3-buten-2-one

>  <PUBCHEM_IUPAC_NAME>
4-(2,4-dihydroxy-2,6,6-trimethylcyclohexylidene)but-3-en-2-one

>  <PUBCHEM_IUPAC_SYSTEMATIC_NAME>
4-[2,2,6-trimethyl-4,6-bis(oxidanyl)cyclohexylidene]but-3-en-2-one

>  <PUBCHEM_IUPAC_TRADITIONAL_NAME>
4-(2,4-dihydroxy-2,6,6-trimethyl-cyclohexylidene)but-3-en-2-one

>  <PUBCHEM_IUPAC_INCHI>
InChI=1S/C13H20O3/c1-9(14)5-6-11-12(2,3)7-10(15)8-13(11,4)16/h5,10,15-16H,7-8H2,1-4H3

>  <PUBCHEM_IUPAC_INCHIKEY>
QMXLZUOHZGYGDY-UHFFFAOYSA-N

>  <PUBCHEM_XLOGP3_AA>
0

>  <PUBCHEM_EXACT_MASS>
224.141

>  <PUBCHEM_MOLECULAR_FORMULA>
C13H20O3

>  <PUBCHEM_MOLECULAR_WEIGHT>
224.3

>  <PUBCHEM_OPENEYE_CAN_SMILES>
CC(=O)C=C=C1C(CC(CC1(C)O)O)(C)C

>  <PUBCHEM_OPENEYE_ISO_SMILES>
CC(=O)C=C=C1C(CC(CC1(C)O)O)(C)C

>  <PUBCHEM_CACTVS_TPSA>
57.5

>  <PUBCHEM_MONOISOTOPIC_WEIGHT>
224.141

>  <PUBCHEM_TOTAL_CHARGE>
0

>  <PUBCHEM_HEAVY_ATOM_COUNT>
16

>  <PUBCHEM_ATOM_DEF_STEREO_COUNT>
0

>  <PUBCHEM_ATOM_UDEF_STEREO_COUNT>
2

>  <PUBCHEM_BOND_DEF_STEREO_COUNT>
0

>  <PUBCHEM_BOND_UDEF_STEREO_COUNT>
0

>  <PUBCHEM_ISOTOPIC_ATOM_COUNT>
0

>  <PUBCHEM_COMPONENT_COUNT>
1

>  <PUBCHEM_CACTVS_TAUTO_COUNT>
2

>  <PUBCHEM_COORDINATE_TYPE>
1
5
255

>  <PUBCHEM_BONDANNOTATIONS>
5  12  3
7  19  3

$$$$
