102316889
 OpenBabel06101807152D

 54 54  0  0  0  0  0  0  0  0999 V2000
    4.5981   -0.5950    0.0000 O   0  0  0  0  0  0  0  0  0  0  0  0
    2.8660   -5.5950    0.0000 O   0  0  0  0  0  0  0  0  0  0  0  0
    4.5981   -6.5950    0.0000 O   0  0  0  0  0  0  0  0  0  0  0  0
    8.9282    3.9050    0.0000 C   0  0  0  0  0  0  0  0  0  0  0  0
    8.0622    3.4050    0.0000 C   0  0  0  0  0  0  0  0  0  0  0  0
    8.9282    4.9050    0.0000 C   0  0  0  0  0  0  0  0  0  0  0  0
    8.0622    2.4050    0.0000 C   0  0  0  0  0  0  0  0  0  0  0  0
    9.7942    5.4050    0.0000 C   0  0  0  0  0  0  0  0  0  0  0  0
    7.1962    1.9050    0.0000 C   0  0  0  0  0  0  0  0  0  0  0  0
    9.7942    6.4050    0.0000 C   0  0  0  0  0  0  0  0  0  0  0  0
    7.1962    0.9050    0.0000 C   0  0  0  0  0  0  0  0  0  0  0  0
   10.6603    6.9050    0.0000 C   0  0  0  0  0  0  0  0  0  0  0  0
    6.3301    0.4050    0.0000 C   0  0  0  0  0  0  0  0  0  0  0  0
    6.3301   -0.5950    0.0000 C   0  0  0  0  0  0  0  0  0  0  0  0
    5.4641   -1.0950    0.0000 C   0  0  0  0  0  0  0  0  0  0  0  0
    5.4641   -2.0950    0.0000 C   0  0  0  0  0  0  0  0  0  0  0  0
    4.5981   -3.5950    0.0000 C   0  0  0  0  0  0  0  0  0  0  0  0
    4.5981   -2.5950    0.0000 C   0  0  0  0  0  0  0  0  0  0  0  0
    3.7320   -4.0950    0.0000 C   0  0  0  0  0  0  0  0  0  0  0  0
    5.4641   -4.0950    0.0000 C   0  0  0  0  0  0  0  0  0  0  0  0
    3.7320   -5.0950    0.0000 C   0  0  0  0  0  0  0  0  0  0  0  0
    4.5981   -5.5950    0.0000 C   0  0  0  0  0  0  0  0  0  0  0  0
    5.4641   -5.0950    0.0000 C   0  0  0  0  0  0  0  0  0  0  0  0
    2.0000   -5.0950    0.0000 C   0  0  0  0  0  0  0  0  0  0  0  0
    9.1403    3.3224    0.0000 H   0  0  0  0  0  0  0  0  0  0  0  0
    9.5388    4.0127    0.0000 H   0  0  0  0  0  0  0  0  0  0  0  0
    7.8501    3.9876    0.0000 H   0  0  0  0  0  0  0  0  0  0  0  0
    7.4516    3.2973    0.0000 H   0  0  0  0  0  0  0  0  0  0  0  0
    8.7162    5.4876    0.0000 H   0  0  0  0  0  0  0  0  0  0  0  0
    8.3176    4.7973    0.0000 H   0  0  0  0  0  0  0  0  0  0  0  0
    8.2742    1.8224    0.0000 H   0  0  0  0  0  0  0  0  0  0  0  0
    8.6728    2.5127    0.0000 H   0  0  0  0  0  0  0  0  0  0  0  0
   10.0063    4.8224    0.0000 H   0  0  0  0  0  0  0  0  0  0  0  0
   10.4048    5.5127    0.0000 H   0  0  0  0  0  0  0  0  0  0  0  0
    6.9841    2.4876    0.0000 H   0  0  0  0  0  0  0  0  0  0  0  0
    6.5856    1.7973    0.0000 H   0  0  0  0  0  0  0  0  0  0  0  0
    9.5822    6.9876    0.0000 H   0  0  0  0  0  0  0  0  0  0  0  0
    9.1836    6.2973    0.0000 H   0  0  0  0  0  0  0  0  0  0  0  0
    7.4082    0.3224    0.0000 H   0  0  0  0  0  0  0  0  0  0  0  0
    7.8067    1.0127    0.0000 H   0  0  0  0  0  0  0  0  0  0  0  0
   10.9703    6.3681    0.0000 H   0  0  0  0  0  0  0  0  0  0  0  0
   11.1972    7.2150    0.0000 H   0  0  0  0  0  0  0  0  0  0  0  0
   10.3503    7.4419    0.0000 H   0  0  0  0  0  0  0  0  0  0  0  0
    5.7932    0.7150    0.0000 H   0  0  0  0  0  0  0  0  0  0  0  0
    6.8671   -0.9050    0.0000 H   0  0  0  0  0  0  0  0  0  0  0  0
    6.0010   -2.4050    0.0000 H   0  0  0  0  0  0  0  0  0  0  0  0
    4.0611   -2.2850    0.0000 H   0  0  0  0  0  0  0  0  0  0  0  0
    3.1951   -3.7850    0.0000 H   0  0  0  0  0  0  0  0  0  0  0  0
    6.0010   -3.7850    0.0000 H   0  0  0  0  0  0  0  0  0  0  0  0
    6.0010   -5.4050    0.0000 H   0  0  0  0  0  0  0  0  0  0  0  0
    5.1350   -6.9050    0.0000 H   0  0  0  0  0  0  0  0  0  0  0  0
    2.3100   -4.5581    0.0000 H   0  0  0  0  0  0  0  0  0  0  0  0
    1.4631   -4.7850    0.0000 H   0  0  0  0  0  0  0  0  0  0  0  0
    1.6900   -5.6319    0.0000 H   0  0  0  0  0  0  0  0  0  0  0  0
  1 15  2  0  0  0  0
  2 21  1  0  0  0  0
  2 24  1  0  0  0  0
  3 22  1  0  0  0  0
  3 51  1  0  0  0  0
  4  5  1  0  0  0  0
  4  6  1  0  0  0  0
  4 25  1  0  0  0  0
  4 26  1  0  0  0  0
  5  7  1  0  0  0  0
  5 27  1  0  0  0  0
  5 28  1  0  0  0  0
  6  8  1  0  0  0  0
  6 29  1  0  0  0  0
  6 30  1  0  0  0  0
  7  9  1  0  0  0  0
  7 31  1  0  0  0  0
  7 32  1  0  0  0  0
  8 10  1  0  0  0  0
  8 33  1  0  0  0  0
  8 34  1  0  0  0  0
  9 11  1  0  0  0  0
  9 35  1  0  0  0  0
  9 36  1  0  0  0  0
 10 12  1  0  0  0  0
 10 37  1  0  0  0  0
 10 38  1  0  0  0  0
 11 13  1  0  0  0  0
 11 39  1  0  0  0  0
 11 40  1  0  0  0  0
 12 41  1  0  0  0  0
 12 42  1  0  0  0  0
 12 43  1  0  0  0  0
 13 14  2  0  0  0  0
 13 44  1  0  0  0  0
 14 15  1  0  0  0  0
 14 45  1  0  0  0  0
 15 16  1  0  0  0  0
 16 18  2  0  0  0  0
 16 46  1  0  0  0  0
 17 18  1  0  0  0  0
 17 19  2  0  0  0  0
 17 20  1  0  0  0  0
 18 47  1  0  0  0  0
 19 21  1  0  0  0  0
 19 48  1  0  0  0  0
 20 23  2  0  0  0  0
 20 49  1  0  0  0  0
 21 22  2  0  0  0  0
 22 23  1  0  0  0  0
 23 50  1  0  0  0  0
 24 52  1  0  0  0  0
 24 53  1  0  0  0  0
 24 54  1  0  0  0  0
M  END
>  <PUBCHEM_COMPOUND_CID>
102316889

>  <PUBCHEM_COMPOUND_CANONICALIZED>
1

>  <PUBCHEM_CACTVS_COMPLEXITY>
387

>  <PUBCHEM_CACTVS_HBOND_ACCEPTOR>
3

>  <PUBCHEM_CACTVS_HBOND_DONOR>
1

>  <PUBCHEM_CACTVS_ROTATABLE_BOND>
12

>  <PUBCHEM_CACTVS_SUBSKEYS>
AAADceB4MAAAAAAAAAAAAAAAAAAAAAAAAAAwAAAAAAAAAAABAAAAGgAACAAADASAmAIyBoAABgCIAqBSAAACCAAgIAAIiAAGiMgNJiKGMRqAcCMkwBELuYeAwJAOIAABAAAAQABAAAIAAACAAAAAAAAAAA==

>  <PUBCHEM_IUPAC_OPENEYE_NAME>
(1E,4E)-1-(4-hydroxy-3-methoxy-phenyl)tetradeca-1,4-dien-3-one

>  <PUBCHEM_IUPAC_CAS_NAME>
(1E,4E)-1-(4-hydroxy-3-methoxyphenyl)-3-tetradeca-1,4-dienone

>  <PUBCHEM_IUPAC_NAME>
(1E,4E)-1-(4-hydroxy-3-methoxyphenyl)tetradeca-1,4-dien-3-one

>  <PUBCHEM_IUPAC_SYSTEMATIC_NAME>
(1E,4E)-1-(3-methoxy-4-oxidanyl-phenyl)tetradeca-1,4-dien-3-one

>  <PUBCHEM_IUPAC_TRADITIONAL_NAME>
(1E,4E)-1-(4-hydroxy-3-methoxy-phenyl)tetradeca-1,4-dien-3-one

>  <PUBCHEM_IUPAC_INCHI>
InChI=1S/C21H30O3/c1-3-4-5-6-7-8-9-10-11-12-19(22)15-13-18-14-16-20(23)21(17-18)24-2/h11-17,23H,3-10H2,1-2H3/b12-11+,15-13+

>  <PUBCHEM_IUPAC_INCHIKEY>
SNJCFSROVQPPGS-NOVYJZLUSA-N

>  <PUBCHEM_XLOGP3>
6.8

>  <PUBCHEM_EXACT_MASS>
330.219

>  <PUBCHEM_MOLECULAR_FORMULA>
C21H30O3

>  <PUBCHEM_MOLECULAR_WEIGHT>
330.468

>  <PUBCHEM_OPENEYE_CAN_SMILES>
CCCCCCCCCC=CC(=O)C=CC1=CC(=C(C=C1)O)OC

>  <PUBCHEM_OPENEYE_ISO_SMILES>
CCCCCCCCC/C=C/C(=O)/C=C/C1=CC(=C(C=C1)O)OC

>  <PUBCHEM_CACTVS_TPSA>
46.5

>  <PUBCHEM_MONOISOTOPIC_WEIGHT>
330.219

>  <PUBCHEM_TOTAL_CHARGE>
0

>  <PUBCHEM_HEAVY_ATOM_COUNT>
24

>  <PUBCHEM_ATOM_DEF_STEREO_COUNT>
0

>  <PUBCHEM_ATOM_UDEF_STEREO_COUNT>
0

>  <PUBCHEM_BOND_DEF_STEREO_COUNT>
2

>  <PUBCHEM_BOND_UDEF_STEREO_COUNT>
0

>  <PUBCHEM_ISOTOPIC_ATOM_COUNT>
0

>  <PUBCHEM_COMPONENT_COUNT>
1

>  <PUBCHEM_CACTVS_TAUTO_COUNT>
79

>  <PUBCHEM_COORDINATE_TYPE>
1
5
255

>  <PUBCHEM_BONDANNOTATIONS>
17  19  8
17  20  8
19  21  8
20  23  8
21  22  8
22  23  8

$$$$
