10235652
 OpenBabel06101807152D

181190  0  0  1  0  0  0  0  0999 V2000
    6.8671   -3.6772    0.0000 O   0  0  0  0  0  0  0  0  0  0  0  0
    8.6424    5.6772    0.0000 O   0  0  0  0  0  0  0  0  0  0  0  0
    9.3112   -2.9856    0.0000 O   0  0  0  0  0  0  0  0  0  0  0  0
    5.1350   -3.6772    0.0000 O   0  0  0  0  0  0  0  0  0  0  0  0
    7.7764    7.1772    0.0000 O   0  0  0  0  0  0  0  0  0  0  0  0
    6.8671   -5.6772    0.0000 O   0  0  0  0  0  0  0  0  0  0  0  0
   10.3745    6.6772    0.0000 O   0  0  0  0  0  0  0  0  0  0  0  0
    5.1350   -6.6772    0.0000 O   0  0  0  0  0  0  0  0  0  0  0  0
   10.3745    8.6773    0.0000 O   0  0  0  0  0  0  0  0  0  0  0  0
    3.4030   -5.6772    0.0000 O   0  0  0  0  0  0  0  0  0  0  0  0
    8.6424    9.6773    0.0000 O   0  0  0  0  0  0  0  0  0  0  0  0
    6.0010   -7.1772    0.0000 O   0  0  0  0  0  0  0  0  0  0  0  0
   11.2405    8.1773    0.0000 O   0  0  0  0  0  0  0  0  0  0  0  0
    2.5369   -4.1772    0.0000 O   0  0  0  0  0  0  0  0  0  0  0  0
    3.4030   -2.6772    0.0000 O   0  0  0  0  0  0  0  0  0  0  0  0
    8.5991   -6.6772    0.0000 O   0  0  0  0  0  0  0  0  0  0  0  0
   12.1066    5.6772    0.0000 O   0  0  0  0  0  0  0  0  0  0  0  0
    8.5991   -8.6773    0.0000 O   0  0  0  0  0  0  0  0  0  0  0  0
   13.8386    6.6772    0.0000 O   0  0  0  0  0  0  0  0  0  0  0  0
    6.8671   -9.6773    0.0000 O   0  0  0  0  0  0  0  0  0  0  0  0
   13.8386    8.6773    0.0000 O   0  0  0  0  0  0  0  0  0  0  0  0
    9.4651   -8.1773    0.0000 O   0  0  0  0  0  0  0  0  0  0  0  0
    5.1350   -9.6773    0.0000 O   0  0  0  0  0  0  0  0  0  0  0  0
   10.3312   -5.6772    0.0000 O   0  0  0  0  0  0  0  0  0  0  0  0
   12.0632   -6.6772    0.0000 O   0  0  0  0  0  0  0  0  0  0  0  0
   12.0632   -8.6773    0.0000 O   0  0  0  0  0  0  0  0  0  0  0  0
    7.7681    1.0230    0.0000 C   0  0  2  0  0  0  0  0  0  0  0  0
    6.9040    0.5196    0.0000 C   0  0  3  0  0  0  0  0  0  0  0  0
    6.8920   -0.5219    0.0000 C   0  0  2  0  0  0  0  0  0  0  0  0
    7.7643    2.0230    0.0000 C   0  0  1  0  0  0  0  0  0  0  0  0
    7.7920   -1.0462    0.0000 C   0  0  3  0  0  0  0  0  0  0  0  0
    8.6801    0.5196    0.0000 C   0  0  0  0  0  0  0  0  0  0  0  0
    6.8963    2.5196    0.0000 C   0  0  0  0  0  0  0  0  0  0  0  0
    7.8046   -2.1311    0.0000 C   0  0  1  0  0  0  0  0  0  0  0  0
    8.6921   -0.5219    0.0000 C   0  0  0  0  0  0  0  0  0  0  0  0
    6.8762    3.5611    0.0000 C   0  0  3  0  0  0  0  0  0  0  0  0
    7.7722    4.0923    0.0000 C   0  0  1  0  0  0  0  0  0  0  0  0
    8.6723    2.5333    0.0000 C   0  0  0  0  0  0  0  0  0  0  0  0
    6.0361    1.0163    0.0000 C   0  0  0  0  0  0  0  0  0  0  0  0
    5.9421   -1.0462    0.0000 C   0  0  0  0  0  0  0  0  0  0  0  0
    8.6763    3.5749    0.0000 C   0  0  0  0  0  0  0  0  0  0  0  0
    8.7522    1.2004    0.0000 C   0  0  0  0  0  0  0  0  0  0  0  0
    6.8671   -2.6772    0.0000 C   0  0  2  0  0  0  0  0  0  0  0  0
    6.0322    2.0163    0.0000 C   0  0  0  0  0  0  0  0  0  0  0  0
    6.0279   -0.0186    0.0000 C   0  0  0  0  0  0  0  0  0  0  0  0
    5.9295   -2.1311    0.0000 C   0  0  0  0  0  0  0  0  0  0  0  0
    8.7497    1.8531    0.0000 C   0  0  0  0  0  0  0  0  0  0  0  0
    5.9223    4.0780    0.0000 C   0  0  0  0  0  0  0  0  0  0  0  0
    7.7764    5.1772    0.0000 C   0  0  1  0  0  0  0  0  0  0  0  0
    5.9014    5.1628    0.0000 C   0  0  0  0  0  0  0  0  0  0  0  0
    6.8347    5.7161    0.0000 C   0  0  0  0  0  0  0  0  0  0  0  0
    8.8046   -2.1234    0.0000 C   0  0  0  0  0  0  0  0  0  0  0  0
    8.3113   -2.9933    0.0000 C   0  0  0  0  0  0  0  0  0  0  0  0
    8.6324    4.6022    0.0000 C   0  0  0  0  0  0  0  0  0  0  0  0
    5.3881    6.0210    0.0000 C   0  0  0  0  0  0  0  0  0  0  0  0
    4.9015    5.1474    0.0000 C   0  0  0  0  0  0  0  0  0  0  0  0
    6.0010   -4.1772    0.0000 C   0  0  2  0  0  0  0  0  0  0  0  0
    8.6424    6.6772    0.0000 C   0  0  2  0  0  0  0  0  0  0  0  0
    6.0010   -5.1772    0.0000 C   0  0  1  0  0  0  0  0  0  0  0  0
    9.5085    7.1772    0.0000 C   0  0  1  0  0  0  0  0  0  0  0  0
    5.1350   -5.6772    0.0000 C   0  0  2  0  0  0  0  0  0  0  0  0
    9.5085    8.1773    0.0000 C   0  0  2  0  0  0  0  0  0  0  0  0
    4.2690   -4.1772    0.0000 C   0  0  1  0  0  0  0  0  0  0  0  0
    4.2690   -5.1772    0.0000 C   0  0  1  0  0  0  0  0  0  0  0  0
    7.7764    8.1773    0.0000 C   0  0  0  0  0  0  0  0  0  0  0  0
    8.6424    8.6773    0.0000 C   0  0  2  0  0  0  0  0  0  0  0  0
    6.8671   -6.6772    0.0000 C   0  0  2  0  0  0  0  0  0  0  0  0
    3.4030   -3.6772    0.0000 C   0  0  0  0  0  0  0  0  0  0  0  0
   11.2405    7.1772    0.0000 C   0  0  2  0  0  0  0  0  0  0  0  0
    7.7331   -7.1772    0.0000 C   0  0  1  0  0  0  0  0  0  0  0  0
   12.1066    6.6772    0.0000 C   0  0  1  0  0  0  0  0  0  0  0  0
    7.7331   -8.1773    0.0000 C   0  0  2  0  0  0  0  0  0  0  0  0
    6.0010   -8.1773    0.0000 C   0  0  1  0  0  0  0  0  0  0  0  0
   12.9726    7.1772    0.0000 C   0  0  1  0  0  0  0  0  0  0  0  0
    6.8671   -8.6773    0.0000 C   0  0  2  0  0  0  0  0  0  0  0  0
   12.1066    8.6773    0.0000 C   0  0  2  0  0  0  0  0  0  0  0  0
   12.9726    8.1773    0.0000 C   0  0  2  0  0  0  0  0  0  0  0  0
    5.1350   -8.6773    0.0000 C   0  0  0  0  0  0  0  0  0  0  0  0
    9.4651   -7.1772    0.0000 C   0  0  2  0  0  0  0  0  0  0  0  0
   12.1066    9.6773    0.0000 C   0  0  0  0  0  0  0  0  0  0  0  0
   10.3312   -6.6772    0.0000 C   0  0  1  0  0  0  0  0  0  0  0  0
   11.1972   -7.1772    0.0000 C   0  0  1  0  0  0  0  0  0  0  0  0
   10.3312   -8.6773    0.0000 C   0  0  2  0  0  0  0  0  0  0  0  0
   11.1972   -8.1773    0.0000 C   0  0  2  0  0  0  0  0  0  0  0  0
   10.3312   -9.6773    0.0000 C   0  0  0  0  0  0  0  0  0  0  0  0
    7.6385    0.0918    0.0000 H   0  0  0  0  0  0  0  0  0  0  0  0
    8.5314   -1.4655    0.0000 H   0  0  0  0  0  0  0  0  0  0  0  0
    9.2921    0.4206    0.0000 H   0  0  0  0  0  0  0  0  0  0  0  0
    8.8824    1.1057    0.0000 H   0  0  0  0  0  0  0  0  0  0  0  0
    8.9079   -1.1032    0.0000 H   0  0  0  0  0  0  0  0  0  0  0  0
    9.3017   -0.4088    0.0000 H   0  0  0  0  0  0  0  0  0  0  0  0
    6.1502    3.1192    0.0000 H   0  0  0  0  0  0  0  0  0  0  0  0
    8.8791    1.9488    0.0000 H   0  0  0  0  0  0  0  0  0  0  0  0
    9.2836    2.6370    0.0000 H   0  0  0  0  0  0  0  0  0  0  0  0
    5.4251    1.1216    0.0000 H   0  0  0  0  0  0  0  0  0  0  0  0
    5.8263    0.4329    0.0000 H   0  0  0  0  0  0  0  0  0  0  0  0
    5.7398   -0.4601    0.0000 H   0  0  0  0  0  0  0  0  0  0  0  0
    5.3300   -1.1452    0.0000 H   0  0  0  0  0  0  0  0  0  0  0  0
    9.2868    3.4665    0.0000 H   0  0  0  0  0  0  0  0  0  0  0  0
    8.8876    4.1578    0.0000 H   0  0  0  0  0  0  0  0  0  0  0  0
    8.8623    0.5902    0.0000 H   0  0  0  0  0  0  0  0  0  0  0  0
    9.3624    1.3104    0.0000 H   0  0  0  0  0  0  0  0  0  0  0  0
    8.6422    1.8106    0.0000 H   0  0  0  0  0  0  0  0  0  0  0  0
    7.4046   -2.9862    0.0000 H   0  0  0  0  0  0  0  0  0  0  0  0
    5.4941    2.3242    0.0000 H   0  0  0  0  0  0  0  0  0  0  0  0
    6.3400    0.5171    0.0000 H   0  0  0  0  0  0  0  0  0  0  0  0
    5.4922    0.2935    0.0000 H   0  0  0  0  0  0  0  0  0  0  0  0
    5.7158   -0.5543    0.0000 H   0  0  0  0  0  0  0  0  0  0  0  0
    5.3199   -2.0180    0.0000 H   0  0  0  0  0  0  0  0  0  0  0  0
    5.7137   -2.7124    0.0000 H   0  0  0  0  0  0  0  0  0  0  0  0
    8.6444    1.2421    0.0000 H   0  0  0  0  0  0  0  0  0  0  0  0
    9.3607    1.7478    0.0000 H   0  0  0  0  0  0  0  0  0  0  0  0
    8.8550    2.4641    0.0000 H   0  0  0  0  0  0  0  0  0  0  0  0
    5.3095    4.1723    0.0000 H   0  0  0  0  0  0  0  0  0  0  0  0
    5.7246    3.4904    0.0000 H   0  0  0  0  0  0  0  0  0  0  0  0
    7.7752    5.7972    0.0000 H   0  0  0  0  0  0  0  0  0  0  0  0
    7.2302    6.1936    0.0000 H   0  0  0  0  0  0  0  0  0  0  0  0
    6.4319    6.1875    0.0000 H   0  0  0  0  0  0  0  0  0  0  0  0
    9.3855   -1.9069    0.0000 H   0  0  0  0  0  0  0  0  0  0  0  0
    8.6922   -1.5137    0.0000 H   0  0  0  0  0  0  0  0  0  0  0  0
    7.7767   -3.3074    0.0000 H   0  0  0  0  0  0  0  0  0  0  0  0
    8.6254   -3.5278    0.0000 H   0  0  0  0  0  0  0  0  0  0  0  0
    8.8458   -2.6792    0.0000 H   0  0  0  0  0  0  0  0  0  0  0  0
    8.9486    4.0689    0.0000 H   0  0  0  0  0  0  0  0  0  0  0  0
    9.1657    4.9184    0.0000 H   0  0  0  0  0  0  0  0  0  0  0  0
    8.3162    5.1356    0.0000 H   0  0  0  0  0  0  0  0  0  0  0  0
    5.9202    6.3392    0.0000 H   0  0  0  0  0  0  0  0  0  0  0  0
    5.0699    6.5531    0.0000 H   0  0  0  0  0  0  0  0  0  0  0  0
    4.8920    5.7673    0.0000 H   0  0  0  0  0  0  0  0  0  0  0  0
    4.2816    5.1378    0.0000 H   0  0  0  0  0  0  0  0  0  0  0  0
    4.8560    5.7028    0.0000 H   0  0  0  0  0  0  0  0  0  0  0  0
    4.9111    4.5275    0.0000 H   0  0  0  0  0  0  0  0  0  0  0  0
    6.0010   -3.5572    0.0000 H   0  0  0  0  0  0  0  0  0  0  0  0
    9.9312   -2.9808    0.0000 H   0  0  0  0  0  0  0  0  0  0  0  0
    8.1055    6.3672    0.0000 H   0  0  0  0  0  0  0  0  0  0  0  0
    6.0010   -5.7972    0.0000 H   0  0  0  0  0  0  0  0  0  0  0  0
   10.0454    7.4872    0.0000 H   0  0  0  0  0  0  0  0  0  0  0  0
    4.5981   -5.9873    0.0000 H   0  0  0  0  0  0  0  0  0  0  0  0
    9.5085    8.7972    0.0000 H   0  0  0  0  0  0  0  0  0  0  0  0
    4.2690   -3.5572    0.0000 H   0  0  0  0  0  0  0  0  0  0  0  0
    3.7320   -4.8672    0.0000 H   0  0  0  0  0  0  0  0  0  0  0  0
    7.5644    8.7599    0.0000 H   0  0  0  0  0  0  0  0  0  0  0  0
    7.1658    8.0696    0.0000 H   0  0  0  0  0  0  0  0  0  0  0  0
    8.1055    8.9872    0.0000 H   0  0  0  0  0  0  0  0  0  0  0  0
    7.4040   -6.3672    0.0000 H   0  0  0  0  0  0  0  0  0  0  0  0
    4.5981   -6.9872    0.0000 H   0  0  0  0  0  0  0  0  0  0  0  0
   11.2405    6.5572    0.0000 H   0  0  0  0  0  0  0  0  0  0  0  0
   10.3745    9.2972    0.0000 H   0  0  0  0  0  0  0  0  0  0  0  0
    3.4030   -6.2972    0.0000 H   0  0  0  0  0  0  0  0  0  0  0  0
    8.1055    9.9872    0.0000 H   0  0  0  0  0  0  0  0  0  0  0  0
    8.2700   -7.4872    0.0000 H   0  0  0  0  0  0  0  0  0  0  0  0
   12.6435    6.3672    0.0000 H   0  0  0  0  0  0  0  0  0  0  0  0
    7.7331   -8.7972    0.0000 H   0  0  0  0  0  0  0  0  0  0  0  0
    5.4641   -7.8672    0.0000 H   0  0  0  0  0  0  0  0  0  0  0  0
   13.5095    7.4872    0.0000 H   0  0  0  0  0  0  0  0  0  0  0  0
    2.0000   -3.8672    0.0000 H   0  0  0  0  0  0  0  0  0  0  0  0
    6.3301   -8.9872    0.0000 H   0  0  0  0  0  0  0  0  0  0  0  0
   11.5696    8.9872    0.0000 H   0  0  0  0  0  0  0  0  0  0  0  0
   12.9726    8.7972    0.0000 H   0  0  0  0  0  0  0  0  0  0  0  0
   12.6435    5.3672    0.0000 H   0  0  0  0  0  0  0  0  0  0  0  0
    4.9230   -8.0946    0.0000 H   0  0  0  0  0  0  0  0  0  0  0  0
    4.5244   -8.7849    0.0000 H   0  0  0  0  0  0  0  0  0  0  0  0
    9.4651   -6.5572    0.0000 H   0  0  0  0  0  0  0  0  0  0  0  0
    8.5991   -9.2972    0.0000 H   0  0  0  0  0  0  0  0  0  0  0  0
   12.7266    9.6773    0.0000 H   0  0  0  0  0  0  0  0  0  0  0  0
   12.1066   10.2973    0.0000 H   0  0  0  0  0  0  0  0  0  0  0  0
   11.4866    9.6773    0.0000 H   0  0  0  0  0  0  0  0  0  0  0  0
   14.3755    6.9872    0.0000 H   0  0  0  0  0  0  0  0  0  0  0  0
    7.4040   -9.9872    0.0000 H   0  0  0  0  0  0  0  0  0  0  0  0
   13.8386    9.2972    0.0000 H   0  0  0  0  0  0  0  0  0  0  0  0
   10.8681   -6.3672    0.0000 H   0  0  0  0  0  0  0  0  0  0  0  0
    4.5981   -9.9872    0.0000 H   0  0  0  0  0  0  0  0  0  0  0  0
   11.7341   -7.4872    0.0000 H   0  0  0  0  0  0  0  0  0  0  0  0
    9.7942   -8.9872    0.0000 H   0  0  0  0  0  0  0  0  0  0  0  0
   11.1972   -8.7972    0.0000 H   0  0  0  0  0  0  0  0  0  0  0  0
   10.8681   -5.3672    0.0000 H   0  0  0  0  0  0  0  0  0  0  0  0
    9.7112   -9.6773    0.0000 H   0  0  0  0  0  0  0  0  0  0  0  0
   10.3312  -10.2973    0.0000 H   0  0  0  0  0  0  0  0  0  0  0  0
   10.9512   -9.6773    0.0000 H   0  0  0  0  0  0  0  0  0  0  0  0
   12.6002   -6.9872    0.0000 H   0  0  0  0  0  0  0  0  0  0  0  0
   12.0632   -9.2972    0.0000 H   0  0  0  0  0  0  0  0  0  0  0  0
  3 52  1  0  0  0  0
  3134  1  0  0  0  0
  4 57  1  0  0  0  0
  4 63  1  0  0  0  0
  5 58  1  0  0  0  0
  5 65  1  0  0  0  0
  8146  1  0  0  0  0
  9148  1  0  0  0  0
 10149  1  0  0  0  0
 11150  1  0  0  0  0
 12 67  1  0  0  0  0
 12 73  1  0  0  0  0
 13 69  1  0  0  0  0
 13 76  1  0  0  0  0
 14 68  1  0  0  0  0
 14156  1  0  0  0  0
 15 68  2  0  0  0  0
 17160  1  0  0  0  0
 18164  1  0  0  0  0
 19168  1  0  0  0  0
 20169  1  0  0  0  0
 21170  1  0  0  0  0
 22 79  1  0  0  0  0
 22 83  1  0  0  0  0
 23 78  1  0  0  0  0
 23172  1  0  0  0  0
 24176  1  0  0  0  0
 25180  1  0  0  0  0
 26181  1  0  0  0  0
 27 28  1  1  0  0  0
 27 32  1  0  0  0  0
 27 42  1  0  0  0  0
 28 39  1  0  0  0  0
 28 86  1  0  0  0  0
 29 28  1  6  0  0  0
 29 31  1  0  0  0  0
 29 40  1  0  0  0  0
 29 45  1  0  0  0  0
 30 27  1  1  0  0  0
 30 33  1  0  0  0  0
 30 38  1  0  0  0  0
 30 47  1  0  0  0  0
 31 35  1  0  0  0  0
 31 87  1  0  0  0  0
 32 35  1  0  0  0  0
 32 88  1  0  0  0  0
 32 89  1  0  0  0  0
 33 36  1  0  0  0  0
 33 44  2  0  0  0  0
 34 31  1  1  0  0  0
 34 52  1  0  0  0  0
 34 53  1  0  0  0  0
 35 90  1  0  0  0  0
 35 91  1  0  0  0  0
 36 48  1  0  0  0  0
 36 92  1  0  0  0  0
 37 36  1  1  0  0  0
 37 41  1  0  0  0  0
 37 54  1  0  0  0  0
 38 41  1  0  0  0  0
 38 93  1  0  0  0  0
 38 94  1  0  0  0  0
 39 44  1  0  0  0  0
 39 95  1  0  0  0  0
 39 96  1  0  0  0  0
 40 46  1  0  0  0  0
 40 97  1  0  0  0  0
 40 98  1  0  0  0  0
 41 99  1  0  0  0  0
 41100  1  0  0  0  0
 42101  1  0  0  0  0
 42102  1  0  0  0  0
 42103  1  0  0  0  0
 43  1  1  0  0  0  0
 43 34  1  1  0  0  0
 43 46  1  0  0  0  0
 43104  1  0  0  0  0
 44105  1  0  0  0  0
 45106  1  0  0  0  0
 45107  1  0  0  0  0
 45108  1  0  0  0  0
 46109  1  0  0  0  0
 46110  1  0  0  0  0
 47111  1  0  0  0  0
 47112  1  0  0  0  0
 47113  1  0  0  0  0
 48 50  1  0  0  0  0
 48114  1  0  0  0  0
 48115  1  0  0  0  0
 49  2  1  0  0  0  0
 49 37  1  6  0  0  0
 49 51  1  0  0  0  0
 49116  1  0  0  0  0
 50 51  1  0  0  0  0
 50 55  1  0  0  0  0
 50 56  1  0  0  0  0
 51117  1  0  0  0  0
 51118  1  0  0  0  0
 52119  1  0  0  0  0
 52120  1  0  0  0  0
 53121  1  0  0  0  0
 53122  1  0  0  0  0
 53123  1  0  0  0  0
 54124  1  0  0  0  0
 54125  1  0  0  0  0
 54126  1  0  0  0  0
 55127  1  0  0  0  0
 55128  1  0  0  0  0
 55131  1  0  0  0  0
 56129  1  0  0  0  0
 56130  1  0  0  0  0
 56132  1  0  0  0  0
 57  1  1  0  0  0  0
 57 59  1  6  0  0  0
 57133  1  0  0  0  0
 58  2  1  0  0  0  0
 58 60  1  1  0  0  0
 58135  1  0  0  0  0
 59  6  1  0  0  0  0
 59 61  1  6  0  0  0
 59136  1  0  0  0  0
 60  7  1  0  0  0  0
 60 62  1  1  0  0  0
 60137  1  0  0  0  0
 61  8  1  0  0  0  0
 61 64  1  1  0  0  0
 61138  1  0  0  0  0
 62  9  1  0  0  0  0
 62 66  1  6  0  0  0
 62139  1  0  0  0  0
 63 64  1  6  0  0  0
 63 68  1  0  0  0  0
 63140  1  0  0  0  0
 64 10  1  0  0  0  0
 64141  1  1  0  0  0
 65 66  1  0  0  0  0
 65142  1  0  0  0  0
 65143  1  0  0  0  0
 66 11  1  0  0  0  0
 66144  1  1  0  0  0
 67  6  1  0  0  0  0
 67 70  1  1  0  0  0
 67145  1  0  0  0  0
 69  7  1  0  0  0  0
 69 71  1  6  0  0  0
 69147  1  0  0  0  0
 70 16  1  0  0  0  0
 70 72  1  6  0  0  0
 70151  1  0  0  0  0
 71 17  1  0  0  0  0
 71 74  1  1  0  0  0
 71152  1  0  0  0  0
 72 18  1  0  0  0  0
 72 75  1  1  0  0  0
 72153  1  0  0  0  0
 73 75  1  6  0  0  0
 73 78  1  0  0  0  0
 73154  1  0  0  0  0
 74 19  1  0  0  0  0
 74 77  1  1  0  0  0
 74155  1  0  0  0  0
 75 20  1  0  0  0  0
 75157  1  6  0  0  0
 76 77  1  6  0  0  0
 76 80  1  0  0  0  0
 76158  1  0  0  0  0
 77 21  1  0  0  0  0
 77159  1  1  0  0  0
 78161  1  0  0  0  0
 78162  1  0  0  0  0
 79 16  1  0  0  0  0
 79 81  1  1  0  0  0
 79163  1  0  0  0  0
 80165  1  0  0  0  0
 80166  1  0  0  0  0
 80167  1  0  0  0  0
 81 24  1  0  0  0  0
 81 82  1  6  0  0  0
 81171  1  0  0  0  0
 82 25  1  0  0  0  0
 82 84  1  6  0  0  0
 82173  1  0  0  0  0
 83 84  1  1  0  0  0
 83 85  1  0  0  0  0
 83174  1  0  0  0  0
 84 26  1  0  0  0  0
 84175  1  6  0  0  0
 85177  1  0  0  0  0
 85178  1  0  0  0  0
 85179  1  0  0  0  0
M  END
>  <PUBCHEM_COMPOUND_CID>
10235652

>  <PUBCHEM_COMPOUND_CANONICALIZED>
1

>  <PUBCHEM_CACTVS_COMPLEXITY>
2390

>  <PUBCHEM_CACTVS_HBOND_ACCEPTOR>
26

>  <PUBCHEM_CACTVS_HBOND_DONOR>
15

>  <PUBCHEM_CACTVS_ROTATABLE_BOND>
13

>  <PUBCHEM_CACTVS_SUBSKEYS>
AAADcfB8PgAAAAAAAAAAAAAAAAAAAAAAAAA0aNGiQAAAAADAAAAAGgAACAAADxSwgAMCCAAABgCIAiDSCAIAAAAgAAAACAFAAAgREBYAAQQiQAAFoAAPAAPK7PxPgAAAAAAAAADAAAYAADAAAAAAAAAAAA==

>  <PUBCHEM_IUPAC_OPENEYE_NAME>
(2S,3S,4S,5R,6R)-6-[[(3S,4R,6aR,6bS,8aR,9R,14bR)-9-[(2S,3R,4S,5S)-4,5-dihydroxy-3-[(2S,3R,4R,5R,6S)-3,4,5-trihydroxy-6-methyl-tetrahydropyran-2-yl]oxy-tetrahydropyran-2-yl]oxy-4-(hydroxymethyl)-4,6a,6b,8a,11,11,14b-heptamethyl-1,2,3,4a,5,6,7,8,9,10,12,12a,14,14a-tetradecahydropicen-3-yl]oxy]-5-[(2S,3R,4S,5R,6R)-4,5-dihydroxy-6-(hydroxymethyl)-3-[(2S,3R,4R,5R,6S)-3,4,5-trihydroxy-6-methyl-tetrahydropyran-2-yl]oxy-tetrahydropyran-2-yl]oxy-3,4-dihydroxy-tetrahydropyran-2-carboxylic acid

>  <PUBCHEM_IUPAC_CAS_NAME>
(2S,3S,4S,5R,6R)-6-[[(3S,4R,6aR,6bS,8aR,9R,14bR)-9-[[(2S,3R,4S,5S)-4,5-dihydroxy-3-[[(2S,3R,4R,5R,6S)-3,4,5-trihydroxy-6-methyl-2-oxanyl]oxy]-2-oxanyl]oxy]-4-(hydroxymethyl)-4,6a,6b,8a,11,11,14b-heptamethyl-1,2,3,4a,5,6,7,8,9,10,12,12a,14,14a-tetradecahydropicen-3-yl]oxy]-5-[[(2S,3R,4S,5R,6R)-4,5-dihydroxy-6-(hydroxymethyl)-3-[[(2S,3R,4R,5R,6S)-3,4,5-trihydroxy-6-methyl-2-oxanyl]oxy]-2-oxanyl]oxy]-3,4-dihydroxy-2-oxanecarboxylic acid

>  <PUBCHEM_IUPAC_NAME>
(2S,3S,4S,5R,6R)-6-[[(3S,4R,6aR,6bS,8aR,9R,14bR)-9-[(2S,3R,4S,5S)-4,5-dihydroxy-3-[(2S,3R,4R,5R,6S)-3,4,5-trihydroxy-6-methyloxan-2-yl]oxyoxan-2-yl]oxy-4-(hydroxymethyl)-4,6a,6b,8a,11,11,14b-heptamethyl-1,2,3,4a,5,6,7,8,9,10,12,12a,14,14a-tetradecahydropicen-3-yl]oxy]-5-[(2S,3R,4S,5R,6R)-4,5-dihydroxy-6-(hydroxymethyl)-3-[(2S,3R,4R,5R,6S)-3,4,5-trihydroxy-6-methyloxan-2-yl]oxyoxan-2-yl]oxy-3,4-dihydroxyoxane-2-carboxylic acid

>  <PUBCHEM_IUPAC_SYSTEMATIC_NAME>
(2S,3S,4S,5R,6R)-6-[[(3S,4R,6aR,6bS,8aR,9R,14bR)-4-(hydroxymethyl)-4,6a,6b,8a,11,11,14b-heptamethyl-9-[(2S,3R,4S,5S)-3-[(2S,3R,4R,5R,6S)-6-methyl-3,4,5-tris(oxidanyl)oxan-2-yl]oxy-4,5-bis(oxidanyl)oxan-2-yl]oxy-1,2,3,4a,5,6,7,8,9,10,12,12a,14,14a-tetradecahydropicen-3-yl]oxy]-5-[(2S,3R,4S,5R,6R)-6-(hydroxymethyl)-3-[(2S,3R,4R,5R,6S)-6-methyl-3,4,5-tris(oxidanyl)oxan-2-yl]oxy-4,5-bis(oxidanyl)oxan-2-yl]oxy-3,4-bis(oxidanyl)oxane-2-carboxylic acid

>  <PUBCHEM_IUPAC_TRADITIONAL_NAME>
(2S,3S,4S,5R,6R)-6-[[(3S,4R,6aR,6bS,8aR,9R,14bR)-9-[(2S,3R,4S,5S)-4,5-dihydroxy-3-[(2S,3R,4R,5R,6S)-3,4,5-trihydroxy-6-methyl-tetrahydropyran-2-yl]oxy-tetrahydropyran-2-yl]oxy-4,6a,6b,8a,11,11,14b-heptamethyl-4-methylol-1,2,3,4a,5,6,7,8,9,10,12,12a,14,14a-tetradecahydropicen-3-yl]oxy]-5-[(2S,3R,4S,5R,6R)-4,5-dihydroxy-6-methylol-3-[(2S,3R,4R,5R,6S)-3,4,5-trihydroxy-6-methyl-tetrahydropyran-2-yl]oxy-tetrahydropyran-2-yl]oxy-3,4-dihydroxy-tetrahydropyran-2-carboxylic acid

>  <PUBCHEM_IUPAC_INCHI>
InChI=1S/C59H96O26/c1-23-33(63)37(67)42(72)49(77-23)83-45-35(65)27(62)21-76-51(45)81-32-19-54(3,4)18-26-25-10-11-30-56(6)14-13-31(57(7,22-61)29(56)12-15-59(30,9)58(25,8)17-16-55(26,32)5)80-53-47(41(71)40(70)44(82-53)48(74)75)85-52-46(39(69)36(66)28(20-60)79-52)84-50-43(73)38(68)34(64)24(2)78-50/h10,23-24,26-47,49-53,60-73H,11-22H2,1-9H3,(H,74,75)/t23-,24-,26?,27-,28+,29?,30?,31-,32+,33-,34-,35-,36-,37+,38+,39-,40-,41-,42+,43+,44-,45+,46+,47+,49-,50-,51-,52-,53+,55+,56-,57-,58+,59+/m0/s1

>  <PUBCHEM_IUPAC_INCHIKEY>
SOUGUYQVKJLLLQ-OPHZAVDESA-N

>  <PUBCHEM_XLOGP3_AA>
-0.3

>  <PUBCHEM_EXACT_MASS>
1220.619

>  <PUBCHEM_MOLECULAR_FORMULA>
C59H96O26

>  <PUBCHEM_MOLECULAR_WEIGHT>
1221.391

>  <PUBCHEM_OPENEYE_CAN_SMILES>
CC1C(C(C(C(O1)OC2C(C(COC2OC3CC(CC4C3(CCC5(C4=CCC6C5(CCC7C6(CCC(C7(C)CO)OC8C(C(C(C(O8)C(=O)O)O)O)OC9C(C(C(C(O9)CO)O)O)OC1C(C(C(C(O1)C)O)O)O)C)C)C)C)(C)C)O)O)O)O)O

>  <PUBCHEM_OPENEYE_ISO_SMILES>
C[C@H]1[C@@H]([C@H]([C@H]([C@@H](O1)O[C@@H]2[C@H]([C@H](CO[C@H]2O[C@@H]3CC(CC4[C@]3(CC[C@@]5(C4=CCC6[C@]5(CCC7[C@@]6(CC[C@@H]([C@@]7(C)CO)O[C@H]8[C@@H]([C@H]([C@@H]([C@H](O8)C(=O)O)O)O)O[C@H]9[C@@H]([C@H]([C@H]([C@H](O9)CO)O)O)O[C@H]1[C@@H]([C@@H]([C@H]([C@@H](O1)C)O)O)O)C)C)C)C)(C)C)O)O)O)O)O

>  <PUBCHEM_CACTVS_TPSA>
413

>  <PUBCHEM_MONOISOTOPIC_WEIGHT>
1220.619

>  <PUBCHEM_TOTAL_CHARGE>
0

>  <PUBCHEM_HEAVY_ATOM_COUNT>
85

>  <PUBCHEM_ATOM_DEF_STEREO_COUNT>
31

>  <PUBCHEM_ATOM_UDEF_STEREO_COUNT>
3

>  <PUBCHEM_BOND_DEF_STEREO_COUNT>
0

>  <PUBCHEM_BOND_UDEF_STEREO_COUNT>
0

>  <PUBCHEM_ISOTOPIC_ATOM_COUNT>
0

>  <PUBCHEM_COMPONENT_COUNT>
1

>  <PUBCHEM_CACTVS_TAUTO_COUNT>
1

>  <PUBCHEM_COORDINATE_TYPE>
1
5
255

>  <PUBCHEM_BONDANNOTATIONS>
43  1  5
57  1  5
64  10  6
66  11  6
70  16  6
79  16  5
71  17  5
72  18  5
74  19  5
49  2  5
58  2  6
75  20  5
77  21  6
81  24  6
82  25  6
84  26  5
27  42  5
28  86  3
29  45  5
30  47  6
31  87  3
34  53  5
36  92  3
37  54  5
59  6  6
67  6  5
63  68  5
60  7  5
69  7  6
73  78  5
76  80  5
61  8  5
83  85  6
62  9  6

$$$$
