102476222
 OpenBabel06101807152D

 60 61  0  0  0  0  0  0  0  0999 V2000
    6.3301    0.4050    0.0000 O   0  0  0  0  0  0  0  0  0  0  0  0
   12.3923    2.9050    0.0000 O   0  0  0  0  0  0  0  0  0  0  0  0
    2.8660   -1.5950    0.0000 O   0  0  0  0  0  0  0  0  0  0  0  0
   15.8564   -1.0950    0.0000 O   0  0  0  0  0  0  0  0  0  0  0  0
    4.5981   -2.5950    0.0000 O   0  0  0  0  0  0  0  0  0  0  0  0
   17.5885   -0.0950    0.0000 O   0  0  0  0  0  0  0  0  0  0  0  0
    7.1962    1.9050    0.0000 N   0  0  0  0  0  0  0  0  0  0  0  0
   11.5263    1.4050    0.0000 N   0  0  0  0  0  0  0  0  0  0  0  0
    8.9282    1.9050    0.0000 C   0  0  0  0  0  0  0  0  0  0  0  0
    9.7942    1.4050    0.0000 C   0  0  0  0  0  0  0  0  0  0  0  0
    8.0622    1.4050    0.0000 C   0  0  0  0  0  0  0  0  0  0  0  0
   10.6603    1.9050    0.0000 C   0  0  0  0  0  0  0  0  0  0  0  0
    6.3301    1.4050    0.0000 C   0  0  0  0  0  0  0  0  0  0  0  0
   12.3923    1.9050    0.0000 C   0  0  0  0  0  0  0  0  0  0  0  0
    5.4641    1.9050    0.0000 C   0  0  0  0  0  0  0  0  0  0  0  0
   13.2583    1.4050    0.0000 C   0  0  0  0  0  0  0  0  0  0  0  0
    4.5981    0.4050    0.0000 C   0  0  0  0  0  0  0  0  0  0  0  0
   14.9904    1.4050    0.0000 C   0  0  0  0  0  0  0  0  0  0  0  0
    4.5981    1.4050    0.0000 C   0  0  0  0  0  0  0  0  0  0  0  0
   14.1244    1.9050    0.0000 C   0  0  0  0  0  0  0  0  0  0  0  0
    3.7320   -0.0950    0.0000 C   0  0  0  0  0  0  0  0  0  0  0  0
   14.9904    0.4050    0.0000 C   0  0  0  0  0  0  0  0  0  0  0  0
    5.4641   -0.0950    0.0000 C   0  0  0  0  0  0  0  0  0  0  0  0
   15.8564    1.9050    0.0000 C   0  0  0  0  0  0  0  0  0  0  0  0
    3.7320   -1.0950    0.0000 C   0  0  0  0  0  0  0  0  0  0  0  0
   15.8564   -0.0950    0.0000 C   0  0  0  0  0  0  0  0  0  0  0  0
    4.5981   -1.5950    0.0000 C   0  0  0  0  0  0  0  0  0  0  0  0
   16.7224    0.4050    0.0000 C   0  0  0  0  0  0  0  0  0  0  0  0
    5.4641   -1.0950    0.0000 C   0  0  0  0  0  0  0  0  0  0  0  0
   16.7224    1.4050    0.0000 C   0  0  0  0  0  0  0  0  0  0  0  0
    2.0000   -1.0950    0.0000 C   0  0  0  0  0  0  0  0  0  0  0  0
   16.7224   -1.5950    0.0000 C   0  0  0  0  0  0  0  0  0  0  0  0
    9.3267    2.3800    0.0000 H   0  0  0  0  0  0  0  0  0  0  0  0
    8.5297    2.3800    0.0000 H   0  0  0  0  0  0  0  0  0  0  0  0
    9.3957    0.9301    0.0000 H   0  0  0  0  0  0  0  0  0  0  0  0
   10.1928    0.9301    0.0000 H   0  0  0  0  0  0  0  0  0  0  0  0
    7.6636    0.9301    0.0000 H   0  0  0  0  0  0  0  0  0  0  0  0
    8.4607    0.9301    0.0000 H   0  0  0  0  0  0  0  0  0  0  0  0
   11.0588    2.3800    0.0000 H   0  0  0  0  0  0  0  0  0  0  0  0
   10.2617    2.3800    0.0000 H   0  0  0  0  0  0  0  0  0  0  0  0
    7.1962    2.5250    0.0000 H   0  0  0  0  0  0  0  0  0  0  0  0
   11.5263    0.7850    0.0000 H   0  0  0  0  0  0  0  0  0  0  0  0
    5.4641    2.5250    0.0000 H   0  0  0  0  0  0  0  0  0  0  0  0
   13.2583    0.7850    0.0000 H   0  0  0  0  0  0  0  0  0  0  0  0
    4.0611    1.7150    0.0000 H   0  0  0  0  0  0  0  0  0  0  0  0
   14.1244    2.5250    0.0000 H   0  0  0  0  0  0  0  0  0  0  0  0
    3.1951    0.2150    0.0000 H   0  0  0  0  0  0  0  0  0  0  0  0
   14.4534    0.0950    0.0000 H   0  0  0  0  0  0  0  0  0  0  0  0
    6.0010    0.2150    0.0000 H   0  0  0  0  0  0  0  0  0  0  0  0
   15.8564    2.5250    0.0000 H   0  0  0  0  0  0  0  0  0  0  0  0
    6.0010   -1.4050    0.0000 H   0  0  0  0  0  0  0  0  0  0  0  0
   17.2594    1.7150    0.0000 H   0  0  0  0  0  0  0  0  0  0  0  0
    5.1350   -2.9050    0.0000 H   0  0  0  0  0  0  0  0  0  0  0  0
   18.1254    0.2150    0.0000 H   0  0  0  0  0  0  0  0  0  0  0  0
    2.3100   -0.5581    0.0000 H   0  0  0  0  0  0  0  0  0  0  0  0
    1.4631   -0.7850    0.0000 H   0  0  0  0  0  0  0  0  0  0  0  0
    1.6900   -1.6319    0.0000 H   0  0  0  0  0  0  0  0  0  0  0  0
   16.4124   -2.1319    0.0000 H   0  0  0  0  0  0  0  0  0  0  0  0
   17.2594   -1.9050    0.0000 H   0  0  0  0  0  0  0  0  0  0  0  0
   17.0324   -1.0581    0.0000 H   0  0  0  0  0  0  0  0  0  0  0  0
  1 13  2  0  0  0  0
  2 14  2  0  0  0  0
  3 25  1  0  0  0  0
  3 31  1  0  0  0  0
  4 26  1  0  0  0  0
  4 32  1  0  0  0  0
  5 27  1  0  0  0  0
  5 53  1  0  0  0  0
  6 28  1  0  0  0  0
  6 54  1  0  0  0  0
  7 11  1  0  0  0  0
  7 13  1  0  0  0  0
  7 41  1  0  0  0  0
  8 12  1  0  0  0  0
  8 14  1  0  0  0  0
  8 42  1  0  0  0  0
  9 10  1  0  0  0  0
  9 11  1  0  0  0  0
  9 33  1  0  0  0  0
  9 34  1  0  0  0  0
 10 12  1  0  0  0  0
 10 35  1  0  0  0  0
 10 36  1  0  0  0  0
 11 37  1  0  0  0  0
 11 38  1  0  0  0  0
 12 39  1  0  0  0  0
 12 40  1  0  0  0  0
 13 15  1  0  0  0  0
 14 16  1  0  0  0  0
 15 19  2  0  0  0  0
 15 43  1  0  0  0  0
 16 20  2  0  0  0  0
 16 44  1  0  0  0  0
 17 19  1  0  0  0  0
 17 21  2  0  0  0  0
 17 23  1  0  0  0  0
 18 20  1  0  0  0  0
 18 22  2  0  0  0  0
 18 24  1  0  0  0  0
 19 45  1  0  0  0  0
 20 46  1  0  0  0  0
 21 25  1  0  0  0  0
 21 47  1  0  0  0  0
 22 26  1  0  0  0  0
 22 48  1  0  0  0  0
 23 29  2  0  0  0  0
 23 49  1  0  0  0  0
 24 30  2  0  0  0  0
 24 50  1  0  0  0  0
 25 27  2  0  0  0  0
 26 28  2  0  0  0  0
 27 29  1  0  0  0  0
 28 30  1  0  0  0  0
 29 51  1  0  0  0  0
 30 52  1  0  0  0  0
 31 55  1  0  0  0  0
 31 56  1  0  0  0  0
 31 57  1  0  0  0  0
 32 58  1  0  0  0  0
 32 59  1  0  0  0  0
 32 60  1  0  0  0  0
M  END
>  <PUBCHEM_COMPOUND_CID>
102476222

>  <PUBCHEM_COMPOUND_CANONICALIZED>
1

>  <PUBCHEM_CACTVS_COMPLEXITY>
584

>  <PUBCHEM_CACTVS_HBOND_ACCEPTOR>
6

>  <PUBCHEM_CACTVS_HBOND_DONOR>
4

>  <PUBCHEM_CACTVS_ROTATABLE_BOND>
11

>  <PUBCHEM_CACTVS_SUBSKEYS>
AAADceB7OAAAAAAAAAAAAAAAAAAAAAAAAAAwYAAAAAAAAAABQAAAHgAQCAAADATBmAYyBoLABgCIAiFSEACCCAAgIAAIiIAOiMgNJiKGsRqEcCMk1hGLuYeAwBAOIAABAAAAQABAAAIAAACAAAAAAAAAAA==

>  <PUBCHEM_IUPAC_OPENEYE_NAME>
(Z)-3-(4-hydroxy-3-methoxy-phenyl)-N-[4-[[(E)-3-(4-hydroxy-3-methoxy-phenyl)prop-2-enoyl]amino]butyl]prop-2-enamide

>  <PUBCHEM_IUPAC_CAS_NAME>
(Z)-3-(4-hydroxy-3-methoxyphenyl)-N-[4-[[(E)-3-(4-hydroxy-3-methoxyphenyl)-1-oxoprop-2-enyl]amino]butyl]-2-propenamide

>  <PUBCHEM_IUPAC_NAME>
(Z)-3-(4-hydroxy-3-methoxyphenyl)-N-[4-[[(E)-3-(4-hydroxy-3-methoxyphenyl)prop-2-enoyl]amino]butyl]prop-2-enamide

>  <PUBCHEM_IUPAC_SYSTEMATIC_NAME>
(Z)-3-(3-methoxy-4-oxidanyl-phenyl)-N-[4-[[(E)-3-(3-methoxy-4-oxidanyl-phenyl)prop-2-enoyl]amino]butyl]prop-2-enamide

>  <PUBCHEM_IUPAC_TRADITIONAL_NAME>
(Z)-3-(4-hydroxy-3-methoxy-phenyl)-N-[4-[[(E)-3-(4-hydroxy-3-methoxy-phenyl)acryloyl]amino]butyl]acrylamide

>  <PUBCHEM_IUPAC_INCHI>
InChI=1S/C24H28N2O6/c1-31-21-15-17(5-9-19(21)27)7-11-23(29)25-13-3-4-14-26-24(30)12-8-18-6-10-20(28)22(16-18)32-2/h5-12,15-16,27-28H,3-4,13-14H2,1-2H3,(H,25,29)(H,26,30)/b11-7-,12-8+

>  <PUBCHEM_IUPAC_INCHIKEY>
CHEMZHJQHCVLFI-NTLHZVPKSA-N

>  <PUBCHEM_XLOGP3_AA>
3

>  <PUBCHEM_EXACT_MASS>
440.195

>  <PUBCHEM_MOLECULAR_FORMULA>
C24H28N2O6

>  <PUBCHEM_MOLECULAR_WEIGHT>
440.496

>  <PUBCHEM_OPENEYE_CAN_SMILES>
COC1=C(C=CC(=C1)C=CC(=O)NCCCCNC(=O)C=CC2=CC(=C(C=C2)O)OC)O

>  <PUBCHEM_OPENEYE_ISO_SMILES>
COC1=C(C=CC(=C1)/C=C/C(=O)NCCCCNC(=O)/C=C\C2=CC(=C(C=C2)O)OC)O

>  <PUBCHEM_CACTVS_TPSA>
117

>  <PUBCHEM_MONOISOTOPIC_WEIGHT>
440.195

>  <PUBCHEM_TOTAL_CHARGE>
0

>  <PUBCHEM_HEAVY_ATOM_COUNT>
32

>  <PUBCHEM_ATOM_DEF_STEREO_COUNT>
0

>  <PUBCHEM_ATOM_UDEF_STEREO_COUNT>
0

>  <PUBCHEM_BOND_DEF_STEREO_COUNT>
2

>  <PUBCHEM_BOND_UDEF_STEREO_COUNT>
0

>  <PUBCHEM_ISOTOPIC_ATOM_COUNT>
0

>  <PUBCHEM_COMPONENT_COUNT>
1

>  <PUBCHEM_CACTVS_TAUTO_COUNT>
28

>  <PUBCHEM_COORDINATE_TYPE>
1
5
255

>  <PUBCHEM_BONDANNOTATIONS>
17  21  8
17  23  8
18  22  8
18  24  8
21  25  8
22  26  8
23  29  8
24  30  8
25  27  8
26  28  8
27  29  8
28  30  8

$$$$
