102520881
 OpenBabel06101807152D

133140  0  0  1  0  0  0  0  0999 V2000
   12.3923   -3.5000    0.0000 O   0  0  0  0  0  0  0  0  0  0  0  0
   13.2583   -1.0000    0.0000 O   0  0  0  0  0  0  0  0  0  0  0  0
   10.6603   -3.5000    0.0000 O   0  0  0  0  0  0  0  0  0  0  0  0
   14.1244   -2.5000    0.0000 O   0  0  0  0  0  0  0  0  0  0  0  0
   10.6603   -2.5000    0.0000 O   0  0  0  0  0  0  0  0  0  0  0  0
   10.6603   -0.5000    0.0000 O   0  0  0  0  0  0  0  0  0  0  0  0
   12.3923   -5.5000    0.0000 O   0  0  0  0  0  0  0  0  0  0  0  0
   10.6603   -6.5000    0.0000 O   0  0  0  0  0  0  0  0  0  0  0  0
    8.9282   -5.5000    0.0000 O   0  0  0  0  0  0  0  0  0  0  0  0
   11.5263    1.0000    0.0000 O   0  0  0  0  0  0  0  0  0  0  0  0
    8.0622   -4.0000    0.0000 O   0  0  0  0  0  0  0  0  0  0  0  0
   14.0853    2.5214    0.0000 O   0  0  0  0  0  0  0  0  0  0  0  0
   14.9686    1.0315    0.0000 O   0  0  0  0  0  0  0  0  0  0  0  0
   16.6658    4.0513    0.0000 O   0  0  0  0  0  0  0  0  0  0  0  0
   14.9223    5.0312    0.0000 O   0  0  0  0  0  0  0  0  0  0  0  0
   16.7224   -2.0000    0.0000 O   0  0  0  0  0  0  0  0  0  0  0  0
   16.6890    2.0514    0.0000 O   0  0  0  0  0  0  0  0  0  0  0  0
   13.1904    5.0112    0.0000 O   0  0  0  0  0  0  0  0  0  0  0  0
   12.3923    2.5000    0.0000 O   0  3  0  0  0  0  0  0  0  0  0  0
    7.1962   -2.5000    0.0000 O   0  0  0  0  0  0  0  0  0  0  0  0
   18.5084    1.0451    0.0000 O   0  0  0  0  0  0  0  0  0  0  0  0
   15.8564   -6.5000    0.0000 O   0  0  0  0  0  0  0  0  0  0  0  0
    2.0000   -3.5000    0.0000 O   0  0  0  0  0  0  0  0  0  0  0  0
    8.9282    6.5000    0.0000 O   0  0  0  0  0  0  0  0  0  0  0  0
    7.1962    5.5000    0.0000 O   0  0  0  0  0  0  0  0  0  0  0  0
    2.0000   -5.5000    0.0000 O   0  0  0  0  0  0  0  0  0  0  0  0
   12.3923   -2.5000    0.0000 C   0  0  2  0  0  0  0  0  0  0  0  0
   11.5263   -2.0000    0.0000 C   0  0  2  0  0  0  0  0  0  0  0  0
   11.5263   -1.0000    0.0000 C   0  0  1  0  0  0  0  0  0  0  0  0
   11.5263   -4.0000    0.0000 C   0  0  2  0  0  0  0  0  0  0  0  0
   11.5263   -5.0000    0.0000 C   0  0  1  0  0  0  0  0  0  0  0  0
   13.2583   -2.0000    0.0000 C   0  0  1  0  0  0  0  0  0  0  0  0
   12.3923   -0.5000    0.0000 C   0  0  1  0  0  0  0  0  0  0  0  0
   10.6603   -5.5000    0.0000 C   0  0  2  0  0  0  0  0  0  0  0  0
    9.7942   -5.0000    0.0000 C   0  0  1  0  0  0  0  0  0  0  0  0
    9.7942   -4.0000    0.0000 C   0  0  1  0  0  0  0  0  0  0  0  0
   12.3923    0.5000    0.0000 C   0  0  0  0  0  0  0  0  0  0  0  0
    8.9282   -3.5000    0.0000 C   0  0  0  0  0  0  0  0  0  0  0  0
   14.9904   -2.0000    0.0000 C   0  0  0  0  0  0  0  0  0  0  0  0
   15.8057    3.5413    0.0000 C   0  0  1  0  0  0  0  0  0  0  0  0
   14.9339    4.0313    0.0000 C   0  0  1  0  0  0  0  0  0  0  0  0
   15.8172    2.5414    0.0000 C   0  0  2  0  0  0  0  0  0  0  0  0
   14.0737    3.5213    0.0000 C   0  0  1  0  0  0  0  0  0  0  0  0
   14.9570    2.0314    0.0000 C   0  0  1  0  0  0  0  0  0  0  0  0
   14.9904   -1.0000    0.0000 C   0  0  0  0  0  0  0  0  0  0  0  0
   15.8564   -2.5000    0.0000 C   0  0  0  0  0  0  0  0  0  0  0  0
   15.8564   -0.5000    0.0000 C   0  0  0  0  0  0  0  0  0  0  0  0
   13.2020    4.0112    0.0000 C   0  0  0  0  0  0  0  0  0  0  0  0
   15.8403    0.5415    0.0000 C   0  0  0  0  0  0  0  0  0  0  0  0
   16.7224   -1.0000    0.0000 C   0  0  0  0  0  0  0  0  0  0  0  0
   11.5263    2.0000    0.0000 C   0  0  0  0  0  0  0  0  0  0  0  0
    7.1962   -3.5000    0.0000 C   0  0  0  0  0  0  0  0  0  0  0  0
   15.8564   -3.5000    0.0000 C   0  0  0  0  0  0  0  0  0  0  0  0
   16.7384    1.0693    0.0000 C   0  0  0  0  0  0  0  0  0  0  0  0
   17.6324   -0.4932    0.0000 C   0  0  0  0  0  0  0  0  0  0  0  0
   17.6405    0.5484    0.0000 C   0  0  0  0  0  0  0  0  0  0  0  0
   10.6603    2.5000    0.0000 C   0  0  0  0  0  0  0  0  0  0  0  0
   16.7224   -4.0000    0.0000 C   0  0  0  0  0  0  0  0  0  0  0  0
   14.9904   -4.0000    0.0000 C   0  0  0  0  0  0  0  0  0  0  0  0
    6.3301   -4.0000    0.0000 C   0  0  0  0  0  0  0  0  0  0  0  0
   16.7224   -5.0000    0.0000 C   0  0  0  0  0  0  0  0  0  0  0  0
   14.9904   -5.0000    0.0000 C   0  0  0  0  0  0  0  0  0  0  0  0
   10.6603    3.5000    0.0000 C   0  0  0  0  0  0  0  0  0  0  0  0
    5.4641   -3.5000    0.0000 C   0  0  0  0  0  0  0  0  0  0  0  0
   15.8564   -5.5000    0.0000 C   0  0  0  0  0  0  0  0  0  0  0  0
    9.7942    4.0000    0.0000 C   0  0  0  0  0  0  0  0  0  0  0  0
    4.5981   -4.0000    0.0000 C   0  0  0  0  0  0  0  0  0  0  0  0
    9.7942    5.0000    0.0000 C   0  0  0  0  0  0  0  0  0  0  0  0
    8.9282    3.5000    0.0000 C   0  0  0  0  0  0  0  0  0  0  0  0
    3.7320   -3.5000    0.0000 C   0  0  0  0  0  0  0  0  0  0  0  0
    4.5981   -5.0000    0.0000 C   0  0  0  0  0  0  0  0  0  0  0  0
    8.9282    5.5000    0.0000 C   0  0  0  0  0  0  0  0  0  0  0  0
    8.0622    4.0000    0.0000 C   0  0  0  0  0  0  0  0  0  0  0  0
    2.8660   -4.0000    0.0000 C   0  0  0  0  0  0  0  0  0  0  0  0
    3.7320   -5.5000    0.0000 C   0  0  0  0  0  0  0  0  0  0  0  0
    8.0622    5.0000    0.0000 C   0  0  0  0  0  0  0  0  0  0  0  0
    2.8660   -5.0000    0.0000 C   0  0  0  0  0  0  0  0  0  0  0  0
    2.0000   -2.5000    0.0000 C   0  0  0  0  0  0  0  0  0  0  0  0
   12.9292   -2.8100    0.0000 H   0  0  0  0  0  0  0  0  0  0  0  0
   10.9893   -1.6900    0.0000 H   0  0  0  0  0  0  0  0  0  0  0  0
   11.5263   -0.3800    0.0000 H   0  0  0  0  0  0  0  0  0  0  0  0
   11.5263   -3.3800    0.0000 H   0  0  0  0  0  0  0  0  0  0  0  0
   11.5263   -5.6200    0.0000 H   0  0  0  0  0  0  0  0  0  0  0  0
   13.7953   -1.6900    0.0000 H   0  0  0  0  0  0  0  0  0  0  0  0
   12.9292   -0.1900    0.0000 H   0  0  0  0  0  0  0  0  0  0  0  0
   10.1233   -5.8100    0.0000 H   0  0  0  0  0  0  0  0  0  0  0  0
    9.2573   -4.6900    0.0000 H   0  0  0  0  0  0  0  0  0  0  0  0
    9.7942   -3.3800    0.0000 H   0  0  0  0  0  0  0  0  0  0  0  0
   13.0029    0.3923    0.0000 H   0  0  0  0  0  0  0  0  0  0  0  0
   12.6044    1.0826    0.0000 H   0  0  0  0  0  0  0  0  0  0  0  0
    9.3267   -3.0250    0.0000 H   0  0  0  0  0  0  0  0  0  0  0  0
    8.5297   -3.0250    0.0000 H   0  0  0  0  0  0  0  0  0  0  0  0
   10.1233   -2.1900    0.0000 H   0  0  0  0  0  0  0  0  0  0  0  0
   10.6603    0.1200    0.0000 H   0  0  0  0  0  0  0  0  0  0  0  0
   12.3923   -6.1200    0.0000 H   0  0  0  0  0  0  0  0  0  0  0  0
   10.1233   -6.8100    0.0000 H   0  0  0  0  0  0  0  0  0  0  0  0
    8.9282   -6.1200    0.0000 H   0  0  0  0  0  0  0  0  0  0  0  0
   15.7985    4.1613    0.0000 H   0  0  0  0  0  0  0  0  0  0  0  0
   14.3934    4.3350    0.0000 H   0  0  0  0  0  0  0  0  0  0  0  0
   15.8244    1.9214    0.0000 H   0  0  0  0  0  0  0  0  0  0  0  0
   13.5404    3.2051    0.0000 H   0  0  0  0  0  0  0  0  0  0  0  0
   14.4237    1.7152    0.0000 H   0  0  0  0  0  0  0  0  0  0  0  0
   14.4534   -0.6900    0.0000 H   0  0  0  0  0  0  0  0  0  0  0  0
   12.5902    4.1118    0.0000 H   0  0  0  0  0  0  0  0  0  0  0  0
   12.9967    3.4262    0.0000 H   0  0  0  0  0  0  0  0  0  0  0  0
   16.6587    4.6712    0.0000 H   0  0  0  0  0  0  0  0  0  0  0  0
   15.4557    5.3474    0.0000 H   0  0  0  0  0  0  0  0  0  0  0  0
   17.2223    2.3676    0.0000 H   0  0  0  0  0  0  0  0  0  0  0  0
   16.7360    1.6893    0.0000 H   0  0  0  0  0  0  0  0  0  0  0  0
   18.1657   -0.8093    0.0000 H   0  0  0  0  0  0  0  0  0  0  0  0
   12.6499    5.3149    0.0000 H   0  0  0  0  0  0  0  0  0  0  0  0
   10.1233    2.1900    0.0000 H   0  0  0  0  0  0  0  0  0  0  0  0
   17.2594   -3.6900    0.0000 H   0  0  0  0  0  0  0  0  0  0  0  0
   14.4534   -3.6900    0.0000 H   0  0  0  0  0  0  0  0  0  0  0  0
    6.3301   -4.6200    0.0000 H   0  0  0  0  0  0  0  0  0  0  0  0
   12.3923    3.1200    0.0000 H   0  0  0  0  0  0  0  0  0  0  0  0
   17.2594   -5.3100    0.0000 H   0  0  0  0  0  0  0  0  0  0  0  0
   14.4534   -5.3100    0.0000 H   0  0  0  0  0  0  0  0  0  0  0  0
   11.1972    3.8100    0.0000 H   0  0  0  0  0  0  0  0  0  0  0  0
    5.4641   -2.8800    0.0000 H   0  0  0  0  0  0  0  0  0  0  0  0
   15.3195   -6.8100    0.0000 H   0  0  0  0  0  0  0  0  0  0  0  0
   10.3312    5.3100    0.0000 H   0  0  0  0  0  0  0  0  0  0  0  0
    8.9282    2.8800    0.0000 H   0  0  0  0  0  0  0  0  0  0  0  0
    3.7320   -2.8800    0.0000 H   0  0  0  0  0  0  0  0  0  0  0  0
    5.1350   -5.3100    0.0000 H   0  0  0  0  0  0  0  0  0  0  0  0
    7.5252    3.6900    0.0000 H   0  0  0  0  0  0  0  0  0  0  0  0
    3.7320   -6.1200    0.0000 H   0  0  0  0  0  0  0  0  0  0  0  0
    9.4651    6.8100    0.0000 H   0  0  0  0  0  0  0  0  0  0  0  0
    6.6592    5.1900    0.0000 H   0  0  0  0  0  0  0  0  0  0  0  0
    2.0000   -6.1200    0.0000 H   0  0  0  0  0  0  0  0  0  0  0  0
    2.6200   -2.5000    0.0000 H   0  0  0  0  0  0  0  0  0  0  0  0
    2.0000   -1.8800    0.0000 H   0  0  0  0  0  0  0  0  0  0  0  0
    1.3800   -2.5000    0.0000 H   0  0  0  0  0  0  0  0  0  0  0  0
  2 32  1  0  0  0  0
  2 33  1  0  0  0  0
  3 30  1  0  0  0  0
  3 36  1  0  0  0  0
  4 39  1  0  0  0  0
  5 93  1  0  0  0  0
  6 94  1  0  0  0  0
  7 95  1  0  0  0  0
  8 96  1  0  0  0  0
  9 97  1  0  0  0  0
 10 37  1  0  0  0  0
 10 51  1  0  0  0  0
 11 38  1  0  0  0  0
 11 52  1  0  0  0  0
 12 43  1  0  0  0  0
 12 44  1  0  0  0  0
 13 49  1  0  0  0  0
 14106  1  0  0  0  0
 15107  1  0  0  0  0
 16 46  1  0  0  0  0
 16 50  1  0  0  0  0
 17108  1  0  0  0  0
 18 48  1  0  0  0  0
 18111  1  0  0  0  0
 19 51  2  0  0  0  0
 19116  1  0  0  0  0
 20 52  2  0  0  0  0
 21 56  2  0  0  0  0
 22 65  1  0  0  0  0
 22121  1  0  0  0  0
 23 74  1  0  0  0  0
 23 78  1  0  0  0  0
 24 72  1  0  0  0  0
 24128  1  0  0  0  0
 25 76  1  0  0  0  0
 25129  1  0  0  0  0
 26 77  1  0  0  0  0
 26130  1  0  0  0  0
 27  1  1  0  0  0  0
 27 28  1  1  0  0  0
 27 79  1  0  0  0  0
 28  5  1  0  0  0  0
 28 29  1  1  0  0  0
 28 80  1  0  0  0  0
 29  6  1  0  0  0  0
 29 33  1  6  0  0  0
 29 81  1  0  0  0  0
 30  1  1  0  0  0  0
 30 31  1  6  0  0  0
 30 82  1  0  0  0  0
 31  7  1  0  0  0  0
 31 34  1  6  0  0  0
 31 83  1  0  0  0  0
 32  4  1  0  0  0  0
 32 27  1  6  0  0  0
 32 84  1  0  0  0  0
 33 37  1  0  0  0  0
 33 85  1  6  0  0  0
 34  8  1  0  0  0  0
 34 35  1  1  0  0  0
 34 86  1  0  0  0  0
 35  9  1  0  0  0  0
 35 36  1  6  0  0  0
 35 87  1  0  0  0  0
 36 38  1  0  0  0  0
 36 88  1  6  0  0  0
 37 89  1  0  0  0  0
 37 90  1  0  0  0  0
 38 91  1  0  0  0  0
 38 92  1  0  0  0  0
 39 45  1  0  0  0  0
 39 46  2  0  0  0  0
 40 14  1  0  0  0  0
 40 41  1  6  0  0  0
 40 98  1  0  0  0  0
 41 15  1  0  0  0  0
 41 43  1  1  0  0  0
 41 99  1  0  0  0  0
 42 17  1  0  0  0  0
 42 40  1  6  0  0  0
 42100  1  0  0  0  0
 43 48  1  0  0  0  0
 43101  1  1  0  0  0
 44 13  1  0  0  0  0
 44 42  1  1  0  0  0
 44102  1  0  0  0  0
 45 47  2  0  0  0  0
 45103  1  0  0  0  0
 46 53  1  0  0  0  0
 47 49  1  0  0  0  0
 47 50  1  0  0  0  0
 48104  1  0  0  0  0
 48105  1  0  0  0  0
 49 54  2  0  0  0  0
 50 55  2  0  0  0  0
 51 57  1  0  0  0  0
 52 60  1  0  0  0  0
 53 58  2  0  0  0  0
 53 59  1  0  0  0  0
 54 56  1  0  0  0  0
 54109  1  0  0  0  0
 55 56  1  0  0  0  0
 55110  1  0  0  0  0
 57 63  2  3  0  0  0
 57112  1  0  0  0  0
 58 61  1  0  0  0  0
 58113  1  0  0  0  0
 59 62  2  0  0  0  0
 59114  1  0  0  0  0
 60 64  2  3  0  0  0
 60115  1  0  0  0  0
 61 65  2  0  0  0  0
 61117  1  0  0  0  0
 62 65  1  0  0  0  0
 62118  1  0  0  0  0
 63 66  1  0  0  0  0
 63119  1  0  0  0  0
 64 67  1  0  0  0  0
 64120  1  0  0  0  0
 66 68  2  0  0  0  0
 66 69  1  0  0  0  0
 67 70  2  0  0  0  0
 67 71  1  0  0  0  0
 68 72  1  0  0  0  0
 68122  1  0  0  0  0
 69 73  2  0  0  0  0
 69123  1  0  0  0  0
 70 74  1  0  0  0  0
 70124  1  0  0  0  0
 71 75  2  0  0  0  0
 71125  1  0  0  0  0
 72 76  2  0  0  0  0
 73 76  1  0  0  0  0
 73126  1  0  0  0  0
 74 77  2  0  0  0  0
 75 77  1  0  0  0  0
 75127  1  0  0  0  0
 78131  1  0  0  0  0
 78132  1  0  0  0  0
 78133  1  0  0  0  0
M  CHG  1  19   1
M  END
>  <PUBCHEM_COMPOUND_CID>
102520881

>  <PUBCHEM_COMPOUND_CANONICALIZED>
1

>  <PUBCHEM_CACTVS_COMPLEXITY>
2270

>  <PUBCHEM_CACTVS_HBOND_ACCEPTOR>
25

>  <PUBCHEM_CACTVS_HBOND_DONOR>
14

>  <PUBCHEM_CACTVS_ROTATABLE_BOND>
19

>  <PUBCHEM_CACTVS_SUBSKEYS>
AAADcfB8PgAAAAAAAAAAAAAAAAAAAAAAAAA0aNECAAAAAACBUAAAGgAACAAADBSwmAMyDoAABgCIAqDSCAACCAAgIAAIiAAGiMgdNiKGMRqicCMlwBEPuYfA4DwOIAABAAAAQABAAAIAAACAAAAAAAAAAA==

>  <PUBCHEM_IUPAC_OPENEYE_NAME>
[1-[[(2R,3S,4S,5R,6S)-3,4-dihydroxy-6-[2-(4-hydroxyphenyl)-7-oxo-5-[(2S,3R,4S,5S,6R)-3,4,5-trihydroxy-6-(hydroxymethyl)tetrahydropyran-2-yl]oxy-chromen-3-yl]oxy-5-[(2S,3R,4S,5S,6R)-3,4,5-trihydroxy-6-[3-(4-hydroxy-3-methoxy-phenyl)prop-2-enoyloxymethyl]tetrahydropyran-2-yl]oxy-tetrahydropyran-2-yl]methoxy]-3-(3,4-dihydroxyphenyl)prop-2-enylidene]oxonium

>  <PUBCHEM_IUPAC_CAS_NAME>
[1-[[(2R,3S,4S,5R,6S)-3,4-dihydroxy-6-[[2-(4-hydroxyphenyl)-7-oxo-5-[[(2S,3R,4S,5S,6R)-3,4,5-trihydroxy-6-(hydroxymethyl)-2-oxanyl]oxy]-1-benzopyran-3-yl]oxy]-5-[[(2S,3R,4S,5S,6R)-3,4,5-trihydroxy-6-[[3-(4-hydroxy-3-methoxyphenyl)-1-oxoprop-2-enoxy]methyl]-2-oxanyl]oxy]-2-oxanyl]methoxy]-3-(3,4-dihydroxyphenyl)prop-2-enylidene]oxonium

>  <PUBCHEM_IUPAC_NAME>
[1-[[(2R,3S,4S,5R,6S)-3,4-dihydroxy-6-[2-(4-hydroxyphenyl)-7-oxo-5-[(2S,3R,4S,5S,6R)-3,4,5-trihydroxy-6-(hydroxymethyl)oxan-2-yl]oxychromen-3-yl]oxy-5-[(2S,3R,4S,5S,6R)-3,4,5-trihydroxy-6-[3-(4-hydroxy-3-methoxyphenyl)prop-2-enoyloxymethyl]oxan-2-yl]oxyoxan-2-yl]methoxy]-3-(3,4-dihydroxyphenyl)prop-2-enylidene]oxidanium

>  <PUBCHEM_IUPAC_SYSTEMATIC_NAME>
[3-[3,4-bis(oxidanyl)phenyl]-1-[[(2R,3S,4S,5R,6S)-6-[5-[(2S,3R,4S,5S,6R)-6-(hydroxymethyl)-3,4,5-tris(oxidanyl)oxan-2-yl]oxy-2-(4-hydroxyphenyl)-7-oxidanylidene-chromen-3-yl]oxy-5-[(2S,3R,4S,5S,6R)-6-[3-(3-methoxy-4-oxidanyl-phenyl)prop-2-enoyloxymethyl]-3,4,5-tris(oxidanyl)oxan-2-yl]oxy-3,4-bis(oxidanyl)oxan-2-yl]methoxy]prop-2-enylidene]oxidanium

>  <PUBCHEM_IUPAC_TRADITIONAL_NAME>
[3-(3,4-dihydroxyphenyl)-1-[[(2R,3S,4S,5R,6S)-5-[(2S,3R,4S,5S,6R)-6-(feruloyloxymethyl)-3,4,5-trihydroxy-tetrahydropyran-2-yl]oxy-3,4-dihydroxy-6-[2-(4-hydroxyphenyl)-7-keto-5-[(2S,3R,4S,5S,6R)-3,4,5-trihydroxy-6-methylol-tetrahydropyran-2-yl]oxy-chromen-3-yl]oxy-tetrahydropyran-2-yl]methoxy]prop-2-enylidene]oxonium

>  <PUBCHEM_IUPAC_INCHI>
InChI=1S/C52H54O26/c1-69-33-15-23(3-11-29(33)57)5-13-39(60)70-20-36-41(62)44(65)47(68)51(76-36)78-49-45(66)42(63)37(21-71-38(59)12-4-22-2-10-28(56)30(58)14-22)77-52(49)74-34-18-27-31(72-48(34)24-6-8-25(54)9-7-24)16-26(55)17-32(27)73-50-46(67)43(64)40(61)35(19-53)75-50/h2-18,35-37,40-47,49-54,56-58,61-68H,19-21H2,1H3/p+1/t35-,36-,37-,40-,41-,42-,43+,44+,45+,46-,47-,49-,50-,51+,52-/m1/s1

>  <PUBCHEM_IUPAC_INCHIKEY>
HSWFBHNTQPMDHL-NELIWPSSSA-O

>  <PUBCHEM_XLOGP3_AA>
-1.1

>  <PUBCHEM_EXACT_MASS>
1095.298

>  <PUBCHEM_MOLECULAR_FORMULA>
C52H55O26+

>  <PUBCHEM_MOLECULAR_WEIGHT>
1095.986

>  <PUBCHEM_OPENEYE_CAN_SMILES>
COC1=C(C=CC(=C1)C=CC(=O)OCC2C(C(C(C(O2)OC3C(C(C(OC3OC4=C(OC5=CC(=O)C=C(C5=C4)OC6C(C(C(C(O6)CO)O)O)O)C7=CC=C(C=C7)O)COC(=[OH+])C=CC8=CC(=C(C=C8)O)O)O)O)O)O)O)O

>  <PUBCHEM_OPENEYE_ISO_SMILES>
COC1=C(C=CC(=C1)C=CC(=O)OC[C@@H]2[C@H]([C@@H]([C@H]([C@@H](O2)O[C@@H]3[C@H]([C@@H]([C@H](O[C@H]3OC4=C(OC5=CC(=O)C=C(C5=C4)O[C@H]6[C@@H]([C@H]([C@@H]([C@H](O6)CO)O)O)O)C7=CC=C(C=C7)O)COC(=[OH+])C=CC8=CC(=C(C=C8)O)O)O)O)O)O)O)O

>  <PUBCHEM_CACTVS_TPSA>
390

>  <PUBCHEM_MONOISOTOPIC_WEIGHT>
1095.298

>  <PUBCHEM_TOTAL_CHARGE>
1

>  <PUBCHEM_HEAVY_ATOM_COUNT>
78

>  <PUBCHEM_ATOM_DEF_STEREO_COUNT>
15

>  <PUBCHEM_ATOM_UDEF_STEREO_COUNT>
0

>  <PUBCHEM_BOND_DEF_STEREO_COUNT>
0

>  <PUBCHEM_BOND_UDEF_STEREO_COUNT>
2

>  <PUBCHEM_ISOTOPIC_ATOM_COUNT>
0

>  <PUBCHEM_COMPONENT_COUNT>
1

>  <PUBCHEM_CACTVS_TAUTO_COUNT>
392

>  <PUBCHEM_COORDINATE_TYPE>
1
5
255

>  <PUBCHEM_BONDANNOTATIONS>
27  1  6
30  1  5
44  13  6
40  14  6
41  15  5
16  46  8
16  50  8
42  17  5
33  37  5
36  38  5
39  45  8
39  46  8
32  4  5
43  48  6
45  47  8
47  49  8
49  54  8
28  5  5
50  55  8
53  58  8
53  59  8
54  56  8
55  56  8
57  63  1
58  61  8
59  62  8
29  6  6
60  64  1
61  65  8
62  65  8
66  68  8
66  69  8
67  70  8
67  71  8
68  72  8
69  73  8
31  7  6
70  74  8
71  75  8
72  76  8
73  76  8
74  77  8
75  77  8
34  8  5
35  9  6

$$$$
