102520889
 OpenBabel06101807152D

132139  0  0  1  0  0  0  0  0999 V2000
   12.3923   -3.1550    0.0000 O   0  0  0  0  0  0  0  0  0  0  0  0
   13.2583   -0.6550    0.0000 O   0  0  0  0  0  0  0  0  0  0  0  0
   10.6603   -3.1550    0.0000 O   0  0  0  0  0  0  0  0  0  0  0  0
   14.1244   -2.1550    0.0000 O   0  0  0  0  0  0  0  0  0  0  0  0
   10.6603   -2.1550    0.0000 O   0  0  0  0  0  0  0  0  0  0  0  0
   10.6603   -0.1550    0.0000 O   0  0  0  0  0  0  0  0  0  0  0  0
   12.3923   -5.1550    0.0000 O   0  0  0  0  0  0  0  0  0  0  0  0
   10.6603   -6.1550    0.0000 O   0  0  0  0  0  0  0  0  0  0  0  0
    8.9282   -5.1550    0.0000 O   0  0  0  0  0  0  0  0  0  0  0  0
   11.5263    1.3450    0.0000 O   0  0  0  0  0  0  0  0  0  0  0  0
    8.0622   -3.6550    0.0000 O   0  0  0  0  0  0  0  0  0  0  0  0
   14.0853    2.8664    0.0000 O   0  0  0  0  0  0  0  0  0  0  0  0
   14.9686    1.3765    0.0000 O   0  0  0  0  0  0  0  0  0  0  0  0
   16.6658    4.3963    0.0000 O   0  0  0  0  0  0  0  0  0  0  0  0
   14.9223    5.3762    0.0000 O   0  0  0  0  0  0  0  0  0  0  0  0
   16.6890    2.3964    0.0000 O   0  0  0  0  0  0  0  0  0  0  0  0
   16.7224   -1.6550    0.0000 O   0  0  0  0  0  0  0  0  0  0  0  0
   13.1904    5.3562    0.0000 O   0  0  0  0  0  0  0  0  0  0  0  0
   12.3923    2.8450    0.0000 O   0  3  0  0  0  0  0  0  0  0  0  0
    7.1962   -2.1550    0.0000 O   0  0  0  0  0  0  0  0  0  0  0  0
   18.5084    1.3901    0.0000 O   0  0  0  0  0  0  0  0  0  0  0  0
   15.8564   -6.1550    0.0000 O   0  0  0  0  0  0  0  0  0  0  0  0
    2.0000   -3.1550    0.0000 O   0  0  0  0  0  0  0  0  0  0  0  0
    7.1962    5.8450    0.0000 O   0  0  0  0  0  0  0  0  0  0  0  0
    2.0000   -5.1550    0.0000 O   0  0  0  0  0  0  0  0  0  0  0  0
   12.3923   -2.1550    0.0000 C   0  0  2  0  0  0  0  0  0  0  0  0
   11.5263   -1.6550    0.0000 C   0  0  2  0  0  0  0  0  0  0  0  0
   11.5263   -0.6550    0.0000 C   0  0  1  0  0  0  0  0  0  0  0  0
   11.5263   -3.6550    0.0000 C   0  0  2  0  0  0  0  0  0  0  0  0
   11.5263   -4.6550    0.0000 C   0  0  1  0  0  0  0  0  0  0  0  0
   13.2583   -1.6550    0.0000 C   0  0  1  0  0  0  0  0  0  0  0  0
   12.3923   -0.1550    0.0000 C   0  0  1  0  0  0  0  0  0  0  0  0
   10.6603   -5.1550    0.0000 C   0  0  2  0  0  0  0  0  0  0  0  0
    9.7942   -4.6550    0.0000 C   0  0  1  0  0  0  0  0  0  0  0  0
    9.7942   -3.6550    0.0000 C   0  0  1  0  0  0  0  0  0  0  0  0
   12.3923    0.8450    0.0000 C   0  0  0  0  0  0  0  0  0  0  0  0
    8.9282   -3.1550    0.0000 C   0  0  0  0  0  0  0  0  0  0  0  0
   15.8057    3.8863    0.0000 C   0  0  1  0  0  0  0  0  0  0  0  0
   14.9904   -1.6550    0.0000 C   0  0  0  0  0  0  0  0  0  0  0  0
   14.9339    4.3763    0.0000 C   0  0  1  0  0  0  0  0  0  0  0  0
   15.8172    2.8864    0.0000 C   0  0  2  0  0  0  0  0  0  0  0  0
   14.0737    3.8663    0.0000 C   0  0  1  0  0  0  0  0  0  0  0  0
   14.9570    2.3764    0.0000 C   0  0  1  0  0  0  0  0  0  0  0  0
   14.9904   -0.6550    0.0000 C   0  0  0  0  0  0  0  0  0  0  0  0
   15.8564   -2.1550    0.0000 C   0  0  0  0  0  0  0  0  0  0  0  0
   15.8564   -0.1550    0.0000 C   0  0  0  0  0  0  0  0  0  0  0  0
   13.2020    4.3562    0.0000 C   0  0  0  0  0  0  0  0  0  0  0  0
   15.8403    0.8865    0.0000 C   0  0  0  0  0  0  0  0  0  0  0  0
   16.7224   -0.6550    0.0000 C   0  0  0  0  0  0  0  0  0  0  0  0
   11.5263    2.3450    0.0000 C   0  0  0  0  0  0  0  0  0  0  0  0
    7.1962   -3.1550    0.0000 C   0  0  0  0  0  0  0  0  0  0  0  0
   15.8564   -3.1550    0.0000 C   0  0  0  0  0  0  0  0  0  0  0  0
   16.7384    1.4143    0.0000 C   0  0  0  0  0  0  0  0  0  0  0  0
   17.6324   -0.1482    0.0000 C   0  0  0  0  0  0  0  0  0  0  0  0
   17.6405    0.8934    0.0000 C   0  0  0  0  0  0  0  0  0  0  0  0
   10.6603    2.8450    0.0000 C   0  0  0  0  0  0  0  0  0  0  0  0
   16.7224   -3.6550    0.0000 C   0  0  0  0  0  0  0  0  0  0  0  0
   14.9904   -3.6550    0.0000 C   0  0  0  0  0  0  0  0  0  0  0  0
    6.3301   -3.6550    0.0000 C   0  0  0  0  0  0  0  0  0  0  0  0
   16.7224   -4.6550    0.0000 C   0  0  0  0  0  0  0  0  0  0  0  0
   14.9904   -4.6550    0.0000 C   0  0  0  0  0  0  0  0  0  0  0  0
   10.6603    3.8450    0.0000 C   0  0  0  0  0  0  0  0  0  0  0  0
    5.4641   -3.1550    0.0000 C   0  0  0  0  0  0  0  0  0  0  0  0
   15.8564   -5.1550    0.0000 C   0  0  0  0  0  0  0  0  0  0  0  0
    9.7942    4.3450    0.0000 C   0  0  0  0  0  0  0  0  0  0  0  0
    4.5981   -3.6550    0.0000 C   0  0  0  0  0  0  0  0  0  0  0  0
    9.7942    5.3450    0.0000 C   0  0  0  0  0  0  0  0  0  0  0  0
    8.9282    3.8450    0.0000 C   0  0  0  0  0  0  0  0  0  0  0  0
    3.7320   -3.1550    0.0000 C   0  0  0  0  0  0  0  0  0  0  0  0
    4.5981   -4.6550    0.0000 C   0  0  0  0  0  0  0  0  0  0  0  0
    8.9282    5.8450    0.0000 C   0  0  0  0  0  0  0  0  0  0  0  0
    8.0622    4.3450    0.0000 C   0  0  0  0  0  0  0  0  0  0  0  0
    2.8660   -3.6550    0.0000 C   0  0  0  0  0  0  0  0  0  0  0  0
    3.7320   -5.1550    0.0000 C   0  0  0  0  0  0  0  0  0  0  0  0
    8.0622    5.3450    0.0000 C   0  0  0  0  0  0  0  0  0  0  0  0
    2.8660   -4.6550    0.0000 C   0  0  0  0  0  0  0  0  0  0  0  0
    2.0000   -2.1550    0.0000 C   0  0  0  0  0  0  0  0  0  0  0  0
   12.9292   -2.4650    0.0000 H   0  0  0  0  0  0  0  0  0  0  0  0
   10.9893   -1.3450    0.0000 H   0  0  0  0  0  0  0  0  0  0  0  0
   11.5263   -0.0350    0.0000 H   0  0  0  0  0  0  0  0  0  0  0  0
   11.5263   -3.0350    0.0000 H   0  0  0  0  0  0  0  0  0  0  0  0
   12.0632   -4.3450    0.0000 H   0  0  0  0  0  0  0  0  0  0  0  0
   13.7953   -1.3450    0.0000 H   0  0  0  0  0  0  0  0  0  0  0  0
   12.9292    0.1550    0.0000 H   0  0  0  0  0  0  0  0  0  0  0  0
   11.1972   -5.4650    0.0000 H   0  0  0  0  0  0  0  0  0  0  0  0
    9.2573   -4.3450    0.0000 H   0  0  0  0  0  0  0  0  0  0  0  0
    9.7942   -3.0350    0.0000 H   0  0  0  0  0  0  0  0  0  0  0  0
   13.0029    0.7373    0.0000 H   0  0  0  0  0  0  0  0  0  0  0  0
   12.6044    1.4276    0.0000 H   0  0  0  0  0  0  0  0  0  0  0  0
    9.3267   -2.6800    0.0000 H   0  0  0  0  0  0  0  0  0  0  0  0
    8.5297   -2.6800    0.0000 H   0  0  0  0  0  0  0  0  0  0  0  0
   10.1233   -1.8450    0.0000 H   0  0  0  0  0  0  0  0  0  0  0  0
   10.6603    0.4650    0.0000 H   0  0  0  0  0  0  0  0  0  0  0  0
   12.3923   -5.7750    0.0000 H   0  0  0  0  0  0  0  0  0  0  0  0
   10.1233   -6.4650    0.0000 H   0  0  0  0  0  0  0  0  0  0  0  0
    8.9282   -5.7750    0.0000 H   0  0  0  0  0  0  0  0  0  0  0  0
   15.7985    4.5063    0.0000 H   0  0  0  0  0  0  0  0  0  0  0  0
   14.3934    4.6800    0.0000 H   0  0  0  0  0  0  0  0  0  0  0  0
   15.8244    2.2664    0.0000 H   0  0  0  0  0  0  0  0  0  0  0  0
   13.5404    3.5501    0.0000 H   0  0  0  0  0  0  0  0  0  0  0  0
   14.4237    2.0602    0.0000 H   0  0  0  0  0  0  0  0  0  0  0  0
   14.4534   -0.3450    0.0000 H   0  0  0  0  0  0  0  0  0  0  0  0
   12.5902    4.4568    0.0000 H   0  0  0  0  0  0  0  0  0  0  0  0
   12.9967    3.7712    0.0000 H   0  0  0  0  0  0  0  0  0  0  0  0
   16.6587    5.0162    0.0000 H   0  0  0  0  0  0  0  0  0  0  0  0
   15.4557    5.6924    0.0000 H   0  0  0  0  0  0  0  0  0  0  0  0
   17.2223    2.7126    0.0000 H   0  0  0  0  0  0  0  0  0  0  0  0
   16.7360    2.0343    0.0000 H   0  0  0  0  0  0  0  0  0  0  0  0
   18.1657   -0.4643    0.0000 H   0  0  0  0  0  0  0  0  0  0  0  0
   12.6499    5.6599    0.0000 H   0  0  0  0  0  0  0  0  0  0  0  0
   10.1233    2.5350    0.0000 H   0  0  0  0  0  0  0  0  0  0  0  0
   17.2594   -3.3450    0.0000 H   0  0  0  0  0  0  0  0  0  0  0  0
   14.4534   -3.3450    0.0000 H   0  0  0  0  0  0  0  0  0  0  0  0
    6.3301   -4.2750    0.0000 H   0  0  0  0  0  0  0  0  0  0  0  0
   12.3923    3.4650    0.0000 H   0  0  0  0  0  0  0  0  0  0  0  0
   17.2594   -4.9650    0.0000 H   0  0  0  0  0  0  0  0  0  0  0  0
   14.4534   -4.9650    0.0000 H   0  0  0  0  0  0  0  0  0  0  0  0
   11.1972    4.1550    0.0000 H   0  0  0  0  0  0  0  0  0  0  0  0
    5.4641   -2.5350    0.0000 H   0  0  0  0  0  0  0  0  0  0  0  0
   15.3195   -6.4650    0.0000 H   0  0  0  0  0  0  0  0  0  0  0  0
   10.3312    5.6550    0.0000 H   0  0  0  0  0  0  0  0  0  0  0  0
    8.9282    3.2250    0.0000 H   0  0  0  0  0  0  0  0  0  0  0  0
    3.7320   -2.5350    0.0000 H   0  0  0  0  0  0  0  0  0  0  0  0
    5.1350   -4.9650    0.0000 H   0  0  0  0  0  0  0  0  0  0  0  0
    8.9282    6.4650    0.0000 H   0  0  0  0  0  0  0  0  0  0  0  0
    7.5252    4.0350    0.0000 H   0  0  0  0  0  0  0  0  0  0  0  0
    3.7320   -5.7750    0.0000 H   0  0  0  0  0  0  0  0  0  0  0  0
    7.1962    6.4650    0.0000 H   0  0  0  0  0  0  0  0  0  0  0  0
    2.0000   -5.7750    0.0000 H   0  0  0  0  0  0  0  0  0  0  0  0
    2.6200   -2.1550    0.0000 H   0  0  0  0  0  0  0  0  0  0  0  0
    2.0000   -1.5350    0.0000 H   0  0  0  0  0  0  0  0  0  0  0  0
    1.3800   -2.1550    0.0000 H   0  0  0  0  0  0  0  0  0  0  0  0
  2 31  1  0  0  0  0
  2 32  1  0  0  0  0
  3 29  1  0  0  0  0
  3 35  1  0  0  0  0
  4 39  1  0  0  0  0
  5 92  1  0  0  0  0
  6 93  1  0  0  0  0
  7 94  1  0  0  0  0
  8 95  1  0  0  0  0
  9 96  1  0  0  0  0
 10 36  1  0  0  0  0
 10 50  1  0  0  0  0
 11 37  1  0  0  0  0
 11 51  1  0  0  0  0
 12 42  1  0  0  0  0
 12 43  1  0  0  0  0
 13 48  1  0  0  0  0
 14105  1  0  0  0  0
 15106  1  0  0  0  0
 16107  1  0  0  0  0
 17 45  1  0  0  0  0
 17 49  1  0  0  0  0
 18 47  1  0  0  0  0
 18110  1  0  0  0  0
 19 50  2  0  0  0  0
 19115  1  0  0  0  0
 20 51  2  0  0  0  0
 21 55  2  0  0  0  0
 22 64  1  0  0  0  0
 22120  1  0  0  0  0
 23 73  1  0  0  0  0
 23 77  1  0  0  0  0
 24 75  1  0  0  0  0
 24128  1  0  0  0  0
 25 76  1  0  0  0  0
 25129  1  0  0  0  0
 26  1  1  0  0  0  0
 26 27  1  1  0  0  0
 26 78  1  0  0  0  0
 27  5  1  0  0  0  0
 27 28  1  1  0  0  0
 27 79  1  0  0  0  0
 28  6  1  0  0  0  0
 28 32  1  6  0  0  0
 28 80  1  0  0  0  0
 29  1  1  0  0  0  0
 29 30  1  6  0  0  0
 29 81  1  0  0  0  0
 30  7  1  0  0  0  0
 30 33  1  1  0  0  0
 30 82  1  0  0  0  0
 31  4  1  0  0  0  0
 31 26  1  6  0  0  0
 31 83  1  0  0  0  0
 32 36  1  0  0  0  0
 32 84  1  6  0  0  0
 33  8  1  0  0  0  0
 33 34  1  6  0  0  0
 33 85  1  0  0  0  0
 34  9  1  0  0  0  0
 34 35  1  6  0  0  0
 34 86  1  0  0  0  0
 35 37  1  0  0  0  0
 35 87  1  6  0  0  0
 36 88  1  0  0  0  0
 36 89  1  0  0  0  0
 37 90  1  0  0  0  0
 37 91  1  0  0  0  0
 38 14  1  0  0  0  0
 38 40  1  6  0  0  0
 38 97  1  0  0  0  0
 39 44  1  0  0  0  0
 39 45  2  0  0  0  0
 40 15  1  0  0  0  0
 40 42  1  1  0  0  0
 40 98  1  0  0  0  0
 41 16  1  0  0  0  0
 41 38  1  6  0  0  0
 41 99  1  0  0  0  0
 42 47  1  0  0  0  0
 42100  1  1  0  0  0
 43 13  1  0  0  0  0
 43 41  1  1  0  0  0
 43101  1  0  0  0  0
 44 46  2  0  0  0  0
 44102  1  0  0  0  0
 45 52  1  0  0  0  0
 46 48  1  0  0  0  0
 46 49  1  0  0  0  0
 47103  1  0  0  0  0
 47104  1  0  0  0  0
 48 53  2  0  0  0  0
 49 54  2  0  0  0  0
 50 56  1  0  0  0  0
 51 59  1  0  0  0  0
 52 57  2  0  0  0  0
 52 58  1  0  0  0  0
 53 55  1  0  0  0  0
 53108  1  0  0  0  0
 54 55  1  0  0  0  0
 54109  1  0  0  0  0
 56 62  2  3  0  0  0
 56111  1  0  0  0  0
 57 60  1  0  0  0  0
 57112  1  0  0  0  0
 58 61  2  0  0  0  0
 58113  1  0  0  0  0
 59 63  2  3  0  0  0
 59114  1  0  0  0  0
 60 64  2  0  0  0  0
 60116  1  0  0  0  0
 61 64  1  0  0  0  0
 61117  1  0  0  0  0
 62 65  1  0  0  0  0
 62118  1  0  0  0  0
 63 66  1  0  0  0  0
 63119  1  0  0  0  0
 65 67  2  0  0  0  0
 65 68  1  0  0  0  0
 66 69  2  0  0  0  0
 66 70  1  0  0  0  0
 67 71  1  0  0  0  0
 67121  1  0  0  0  0
 68 72  2  0  0  0  0
 68122  1  0  0  0  0
 69 73  1  0  0  0  0
 69123  1  0  0  0  0
 70 74  2  0  0  0  0
 70124  1  0  0  0  0
 71 75  2  0  0  0  0
 71125  1  0  0  0  0
 72 75  1  0  0  0  0
 72126  1  0  0  0  0
 73 76  2  0  0  0  0
 74 76  1  0  0  0  0
 74127  1  0  0  0  0
 77130  1  0  0  0  0
 77131  1  0  0  0  0
 77132  1  0  0  0  0
M  CHG  1  19   1
M  END
>  <PUBCHEM_COMPOUND_CID>
102520889

>  <PUBCHEM_COMPOUND_CANONICALIZED>
1

>  <PUBCHEM_CACTVS_COMPLEXITY>
2230

>  <PUBCHEM_CACTVS_HBOND_ACCEPTOR>
24

>  <PUBCHEM_CACTVS_HBOND_DONOR>
13

>  <PUBCHEM_CACTVS_ROTATABLE_BOND>
19

>  <PUBCHEM_CACTVS_SUBSKEYS>
AAADcfB8PgAAAAAAAAAAAAAAAAAAAAAAAAA0aNECAAAAAACBUAAAGgAACAAADBSwmAMyDoAABgCIAqDSCAACCAAgIAAIiAAGiMgdNiKGMRqicCMlwBEPuYfA4DwOIAABAAAAQABAAAIAAACAAAAAAAAAAA==

>  <PUBCHEM_IUPAC_OPENEYE_NAME>
[1-[[(2R,3S,4S,5R,6S)-3,4-dihydroxy-6-[2-(4-hydroxyphenyl)-7-oxo-5-[(2S,3R,4S,5S,6R)-3,4,5-trihydroxy-6-(hydroxymethyl)tetrahydropyran-2-yl]oxy-chromen-3-yl]oxy-5-[(2S,3R,4S,5S,6R)-3,4,5-trihydroxy-6-[3-(4-hydroxy-3-methoxy-phenyl)prop-2-enoyloxymethyl]tetrahydropyran-2-yl]oxy-tetrahydropyran-2-yl]methoxy]-3-(4-hydroxyphenyl)prop-2-enylidene]oxonium

>  <PUBCHEM_IUPAC_CAS_NAME>
[1-[[(2R,3S,4S,5R,6S)-3,4-dihydroxy-6-[[2-(4-hydroxyphenyl)-7-oxo-5-[[(2S,3R,4S,5S,6R)-3,4,5-trihydroxy-6-(hydroxymethyl)-2-oxanyl]oxy]-1-benzopyran-3-yl]oxy]-5-[[(2S,3R,4S,5S,6R)-3,4,5-trihydroxy-6-[[3-(4-hydroxy-3-methoxyphenyl)-1-oxoprop-2-enoxy]methyl]-2-oxanyl]oxy]-2-oxanyl]methoxy]-3-(4-hydroxyphenyl)prop-2-enylidene]oxonium

>  <PUBCHEM_IUPAC_NAME>
[1-[[(2R,3S,4S,5R,6S)-3,4-dihydroxy-6-[2-(4-hydroxyphenyl)-7-oxo-5-[(2S,3R,4S,5S,6R)-3,4,5-trihydroxy-6-(hydroxymethyl)oxan-2-yl]oxychromen-3-yl]oxy-5-[(2S,3R,4S,5S,6R)-3,4,5-trihydroxy-6-[3-(4-hydroxy-3-methoxyphenyl)prop-2-enoyloxymethyl]oxan-2-yl]oxyoxan-2-yl]methoxy]-3-(4-hydroxyphenyl)prop-2-enylidene]oxidanium

>  <PUBCHEM_IUPAC_SYSTEMATIC_NAME>
[1-[[(2R,3S,4S,5R,6S)-6-[5-[(2S,3R,4S,5S,6R)-6-(hydroxymethyl)-3,4,5-tris(oxidanyl)oxan-2-yl]oxy-2-(4-hydroxyphenyl)-7-oxidanylidene-chromen-3-yl]oxy-5-[(2S,3R,4S,5S,6R)-6-[3-(3-methoxy-4-oxidanyl-phenyl)prop-2-enoyloxymethyl]-3,4,5-tris(oxidanyl)oxan-2-yl]oxy-3,4-bis(oxidanyl)oxan-2-yl]methoxy]-3-(4-hydroxyphenyl)prop-2-enylidene]oxidanium

>  <PUBCHEM_IUPAC_TRADITIONAL_NAME>
[1-[[(2R,3S,4S,5R,6S)-5-[(2S,3R,4S,5S,6R)-6-(feruloyloxymethyl)-3,4,5-trihydroxy-tetrahydropyran-2-yl]oxy-3,4-dihydroxy-6-[2-(4-hydroxyphenyl)-7-keto-5-[(2S,3R,4S,5S,6R)-3,4,5-trihydroxy-6-methylol-tetrahydropyran-2-yl]oxy-chromen-3-yl]oxy-tetrahydropyran-2-yl]methoxy]-3-(4-hydroxyphenyl)prop-2-enylidene]oxonium

>  <PUBCHEM_IUPAC_INCHI>
InChI=1S/C52H54O25/c1-68-33-16-24(4-13-30(33)57)6-15-39(59)69-21-36-41(61)44(64)47(67)51(75-36)77-49-45(65)42(62)37(22-70-38(58)14-5-23-2-9-26(54)10-3-23)76-52(49)73-34-19-29-31(71-48(34)25-7-11-27(55)12-8-25)17-28(56)18-32(29)72-50-46(66)43(63)40(60)35(20-53)74-50/h2-19,35-37,40-47,49-55,57,60-67H,20-22H2,1H3/p+1/t35-,36-,37-,40-,41-,42-,43+,44+,45+,46-,47-,49-,50-,51+,52-/m1/s1

>  <PUBCHEM_IUPAC_INCHIKEY>
DBLHWECBUUYAAR-NELIWPSSSA-O

>  <PUBCHEM_XLOGP3_AA>
-0.8

>  <PUBCHEM_EXACT_MASS>
1079.303

>  <PUBCHEM_MOLECULAR_FORMULA>
C52H55O25+

>  <PUBCHEM_MOLECULAR_WEIGHT>
1079.987

>  <PUBCHEM_OPENEYE_CAN_SMILES>
COC1=C(C=CC(=C1)C=CC(=O)OCC2C(C(C(C(O2)OC3C(C(C(OC3OC4=C(OC5=CC(=O)C=C(C5=C4)OC6C(C(C(C(O6)CO)O)O)O)C7=CC=C(C=C7)O)COC(=[OH+])C=CC8=CC=C(C=C8)O)O)O)O)O)O)O

>  <PUBCHEM_OPENEYE_ISO_SMILES>
COC1=C(C=CC(=C1)C=CC(=O)OC[C@@H]2[C@H]([C@@H]([C@H]([C@@H](O2)O[C@@H]3[C@H]([C@@H]([C@H](O[C@H]3OC4=C(OC5=CC(=O)C=C(C5=C4)O[C@H]6[C@@H]([C@H]([C@@H]([C@H](O6)CO)O)O)O)C7=CC=C(C=C7)O)COC(=[OH+])C=CC8=CC=C(C=C8)O)O)O)O)O)O)O

>  <PUBCHEM_CACTVS_TPSA>
370

>  <PUBCHEM_MONOISOTOPIC_WEIGHT>
1079.303

>  <PUBCHEM_TOTAL_CHARGE>
1

>  <PUBCHEM_HEAVY_ATOM_COUNT>
77

>  <PUBCHEM_ATOM_DEF_STEREO_COUNT>
15

>  <PUBCHEM_ATOM_UDEF_STEREO_COUNT>
0

>  <PUBCHEM_BOND_DEF_STEREO_COUNT>
0

>  <PUBCHEM_BOND_UDEF_STEREO_COUNT>
2

>  <PUBCHEM_ISOTOPIC_ATOM_COUNT>
0

>  <PUBCHEM_COMPONENT_COUNT>
1

>  <PUBCHEM_CACTVS_TAUTO_COUNT>
112

>  <PUBCHEM_COORDINATE_TYPE>
1
5
255

>  <PUBCHEM_BONDANNOTATIONS>
26  1  6
29  1  5
43  13  6
38  14  6
40  15  5
41  16  5
17  45  8
17  49  8
32  36  5
35  37  5
39  44  8
39  45  8
31  4  5
42  47  6
44  46  8
46  48  8
48  53  8
49  54  8
27  5  5
52  57  8
52  58  8
53  55  8
54  55  8
56  62  1
57  60  8
58  61  8
59  63  1
28  6  6
60  64  8
61  64  8
65  67  8
65  68  8
66  69  8
66  70  8
67  71  8
68  72  8
69  73  8
30  7  6
70  74  8
71  75  8
72  75  8
73  76  8
74  76  8
33  8  5
34  9  6

$$$$
