102520883
 OpenBabel06101807152D

129136  0  0  1  0  0  0  0  0999 V2000
   12.3923   -3.1550    0.0000 O   0  0  0  0  0  0  0  0  0  0  0  0
   13.2583   -0.6550    0.0000 O   0  0  0  0  0  0  0  0  0  0  0  0
   10.6603   -3.1550    0.0000 O   0  0  0  0  0  0  0  0  0  0  0  0
   14.1244   -2.1550    0.0000 O   0  0  0  0  0  0  0  0  0  0  0  0
   10.6603   -2.1550    0.0000 O   0  0  0  0  0  0  0  0  0  0  0  0
   10.6603   -0.1550    0.0000 O   0  0  0  0  0  0  0  0  0  0  0  0
   12.3923   -5.1550    0.0000 O   0  0  0  0  0  0  0  0  0  0  0  0
   10.6603   -6.1550    0.0000 O   0  0  0  0  0  0  0  0  0  0  0  0
    8.9282   -5.1550    0.0000 O   0  0  0  0  0  0  0  0  0  0  0  0
   11.5263    1.3450    0.0000 O   0  0  0  0  0  0  0  0  0  0  0  0
    8.0622   -3.6550    0.0000 O   0  0  0  0  0  0  0  0  0  0  0  0
   14.0853    2.8664    0.0000 O   0  0  0  0  0  0  0  0  0  0  0  0
   14.9686    1.3765    0.0000 O   0  0  0  0  0  0  0  0  0  0  0  0
   16.6658    4.3963    0.0000 O   0  0  0  0  0  0  0  0  0  0  0  0
   14.9223    5.3762    0.0000 O   0  0  0  0  0  0  0  0  0  0  0  0
   16.6890    2.3964    0.0000 O   0  0  0  0  0  0  0  0  0  0  0  0
   16.7224   -1.6550    0.0000 O   0  0  0  0  0  0  0  0  0  0  0  0
   13.1904    5.3562    0.0000 O   0  0  0  0  0  0  0  0  0  0  0  0
   12.3923    2.8450    0.0000 O   0  3  0  0  0  0  0  0  0  0  0  0
    7.1962   -2.1550    0.0000 O   0  0  0  0  0  0  0  0  0  0  0  0
   18.5084    1.3901    0.0000 O   0  0  0  0  0  0  0  0  0  0  0  0
   15.8564   -6.1550    0.0000 O   0  0  0  0  0  0  0  0  0  0  0  0
    2.0000   -3.1550    0.0000 O   0  0  0  0  0  0  0  0  0  0  0  0
    7.1962    5.8450    0.0000 O   0  0  0  0  0  0  0  0  0  0  0  0
    2.0000   -5.1550    0.0000 O   0  0  0  0  0  0  0  0  0  0  0  0
   12.3923   -2.1550    0.0000 C   0  0  2  0  0  0  0  0  0  0  0  0
   11.5263   -1.6550    0.0000 C   0  0  2  0  0  0  0  0  0  0  0  0
   11.5263   -0.6550    0.0000 C   0  0  1  0  0  0  0  0  0  0  0  0
   11.5263   -3.6550    0.0000 C   0  0  2  0  0  0  0  0  0  0  0  0
   11.5263   -4.6550    0.0000 C   0  0  1  0  0  0  0  0  0  0  0  0
   13.2583   -1.6550    0.0000 C   0  0  1  0  0  0  0  0  0  0  0  0
   12.3923   -0.1550    0.0000 C   0  0  1  0  0  0  0  0  0  0  0  0
   10.6603   -5.1550    0.0000 C   0  0  2  0  0  0  0  0  0  0  0  0
    9.7942   -4.6550    0.0000 C   0  0  1  0  0  0  0  0  0  0  0  0
    9.7942   -3.6550    0.0000 C   0  0  1  0  0  0  0  0  0  0  0  0
   12.3923    0.8450    0.0000 C   0  0  0  0  0  0  0  0  0  0  0  0
    8.9282   -3.1550    0.0000 C   0  0  0  0  0  0  0  0  0  0  0  0
   15.8057    3.8863    0.0000 C   0  0  1  0  0  0  0  0  0  0  0  0
   14.9339    4.3763    0.0000 C   0  0  1  0  0  0  0  0  0  0  0  0
   14.9904   -1.6550    0.0000 C   0  0  0  0  0  0  0  0  0  0  0  0
   15.8172    2.8864    0.0000 C   0  0  2  0  0  0  0  0  0  0  0  0
   14.0737    3.8663    0.0000 C   0  0  1  0  0  0  0  0  0  0  0  0
   14.9570    2.3764    0.0000 C   0  0  1  0  0  0  0  0  0  0  0  0
   14.9904   -0.6550    0.0000 C   0  0  0  0  0  0  0  0  0  0  0  0
   15.8564   -2.1550    0.0000 C   0  0  0  0  0  0  0  0  0  0  0  0
   13.2020    4.3562    0.0000 C   0  0  0  0  0  0  0  0  0  0  0  0
   15.8564   -0.1550    0.0000 C   0  0  0  0  0  0  0  0  0  0  0  0
   15.8403    0.8865    0.0000 C   0  0  0  0  0  0  0  0  0  0  0  0
   16.7224   -0.6550    0.0000 C   0  0  0  0  0  0  0  0  0  0  0  0
   11.5263    2.3450    0.0000 C   0  0  0  0  0  0  0  0  0  0  0  0
    7.1962   -3.1550    0.0000 C   0  0  0  0  0  0  0  0  0  0  0  0
   15.8564   -3.1550    0.0000 C   0  0  0  0  0  0  0  0  0  0  0  0
   16.7384    1.4143    0.0000 C   0  0  0  0  0  0  0  0  0  0  0  0
   17.6324   -0.1482    0.0000 C   0  0  0  0  0  0  0  0  0  0  0  0
   17.6405    0.8934    0.0000 C   0  0  0  0  0  0  0  0  0  0  0  0
   10.6603    2.8450    0.0000 C   0  0  0  0  0  0  0  0  0  0  0  0
   16.7224   -3.6550    0.0000 C   0  0  0  0  0  0  0  0  0  0  0  0
   14.9904   -3.6550    0.0000 C   0  0  0  0  0  0  0  0  0  0  0  0
    6.3301   -3.6550    0.0000 C   0  0  0  0  0  0  0  0  0  0  0  0
   16.7224   -4.6550    0.0000 C   0  0  0  0  0  0  0  0  0  0  0  0
   14.9904   -4.6550    0.0000 C   0  0  0  0  0  0  0  0  0  0  0  0
   10.6603    3.8450    0.0000 C   0  0  0  0  0  0  0  0  0  0  0  0
    5.4641   -3.1550    0.0000 C   0  0  0  0  0  0  0  0  0  0  0  0
   15.8564   -5.1550    0.0000 C   0  0  0  0  0  0  0  0  0  0  0  0
    9.7942    4.3450    0.0000 C   0  0  0  0  0  0  0  0  0  0  0  0
    4.5981   -3.6550    0.0000 C   0  0  0  0  0  0  0  0  0  0  0  0
    9.7942    5.3450    0.0000 C   0  0  0  0  0  0  0  0  0  0  0  0
    8.9282    3.8450    0.0000 C   0  0  0  0  0  0  0  0  0  0  0  0
    3.7320   -3.1550    0.0000 C   0  0  0  0  0  0  0  0  0  0  0  0
    4.5981   -4.6550    0.0000 C   0  0  0  0  0  0  0  0  0  0  0  0
    8.9282    5.8450    0.0000 C   0  0  0  0  0  0  0  0  0  0  0  0
    8.0622    4.3450    0.0000 C   0  0  0  0  0  0  0  0  0  0  0  0
    2.8660   -3.6550    0.0000 C   0  0  0  0  0  0  0  0  0  0  0  0
    3.7320   -5.1550    0.0000 C   0  0  0  0  0  0  0  0  0  0  0  0
    8.0622    5.3450    0.0000 C   0  0  0  0  0  0  0  0  0  0  0  0
    2.8660   -4.6550    0.0000 C   0  0  0  0  0  0  0  0  0  0  0  0
   12.9292   -2.4650    0.0000 H   0  0  0  0  0  0  0  0  0  0  0  0
   10.9893   -1.3450    0.0000 H   0  0  0  0  0  0  0  0  0  0  0  0
   11.5263   -0.0350    0.0000 H   0  0  0  0  0  0  0  0  0  0  0  0
   11.5263   -3.0350    0.0000 H   0  0  0  0  0  0  0  0  0  0  0  0
   12.0632   -4.3450    0.0000 H   0  0  0  0  0  0  0  0  0  0  0  0
   13.7953   -1.3450    0.0000 H   0  0  0  0  0  0  0  0  0  0  0  0
   12.9292    0.1550    0.0000 H   0  0  0  0  0  0  0  0  0  0  0  0
   11.1972   -5.4650    0.0000 H   0  0  0  0  0  0  0  0  0  0  0  0
    9.2573   -4.3450    0.0000 H   0  0  0  0  0  0  0  0  0  0  0  0
    9.7942   -3.0350    0.0000 H   0  0  0  0  0  0  0  0  0  0  0  0
   13.0029    0.7373    0.0000 H   0  0  0  0  0  0  0  0  0  0  0  0
   12.6044    1.4276    0.0000 H   0  0  0  0  0  0  0  0  0  0  0  0
    9.3267   -2.6800    0.0000 H   0  0  0  0  0  0  0  0  0  0  0  0
    8.5297   -2.6800    0.0000 H   0  0  0  0  0  0  0  0  0  0  0  0
   10.1233   -1.8450    0.0000 H   0  0  0  0  0  0  0  0  0  0  0  0
   10.6603    0.4650    0.0000 H   0  0  0  0  0  0  0  0  0  0  0  0
   12.3923   -5.7750    0.0000 H   0  0  0  0  0  0  0  0  0  0  0  0
   10.1233   -6.4650    0.0000 H   0  0  0  0  0  0  0  0  0  0  0  0
    8.9282   -5.7750    0.0000 H   0  0  0  0  0  0  0  0  0  0  0  0
   15.7985    4.5063    0.0000 H   0  0  0  0  0  0  0  0  0  0  0  0
   14.3934    4.6800    0.0000 H   0  0  0  0  0  0  0  0  0  0  0  0
   15.8244    2.2664    0.0000 H   0  0  0  0  0  0  0  0  0  0  0  0
   13.5404    3.5501    0.0000 H   0  0  0  0  0  0  0  0  0  0  0  0
   14.4237    2.0602    0.0000 H   0  0  0  0  0  0  0  0  0  0  0  0
   14.4534   -0.3450    0.0000 H   0  0  0  0  0  0  0  0  0  0  0  0
   12.5902    4.4568    0.0000 H   0  0  0  0  0  0  0  0  0  0  0  0
   12.9967    3.7712    0.0000 H   0  0  0  0  0  0  0  0  0  0  0  0
   16.6587    5.0162    0.0000 H   0  0  0  0  0  0  0  0  0  0  0  0
   15.4557    5.6924    0.0000 H   0  0  0  0  0  0  0  0  0  0  0  0
   17.2223    2.7126    0.0000 H   0  0  0  0  0  0  0  0  0  0  0  0
   16.7360    2.0343    0.0000 H   0  0  0  0  0  0  0  0  0  0  0  0
   18.1657   -0.4643    0.0000 H   0  0  0  0  0  0  0  0  0  0  0  0
   12.6499    5.6599    0.0000 H   0  0  0  0  0  0  0  0  0  0  0  0
   10.1233    2.5350    0.0000 H   0  0  0  0  0  0  0  0  0  0  0  0
   17.2594   -3.3450    0.0000 H   0  0  0  0  0  0  0  0  0  0  0  0
   14.4534   -3.3450    0.0000 H   0  0  0  0  0  0  0  0  0  0  0  0
    6.3301   -4.2750    0.0000 H   0  0  0  0  0  0  0  0  0  0  0  0
   12.3923    3.4650    0.0000 H   0  0  0  0  0  0  0  0  0  0  0  0
   17.2594   -4.9650    0.0000 H   0  0  0  0  0  0  0  0  0  0  0  0
   14.4534   -4.9650    0.0000 H   0  0  0  0  0  0  0  0  0  0  0  0
   11.1972    4.1550    0.0000 H   0  0  0  0  0  0  0  0  0  0  0  0
    5.4641   -2.5350    0.0000 H   0  0  0  0  0  0  0  0  0  0  0  0
   15.3195   -6.4650    0.0000 H   0  0  0  0  0  0  0  0  0  0  0  0
   10.3312    5.6550    0.0000 H   0  0  0  0  0  0  0  0  0  0  0  0
    8.9282    3.2250    0.0000 H   0  0  0  0  0  0  0  0  0  0  0  0
    3.7320   -2.5350    0.0000 H   0  0  0  0  0  0  0  0  0  0  0  0
    5.1350   -4.9650    0.0000 H   0  0  0  0  0  0  0  0  0  0  0  0
    8.9282    6.4650    0.0000 H   0  0  0  0  0  0  0  0  0  0  0  0
    7.5252    4.0350    0.0000 H   0  0  0  0  0  0  0  0  0  0  0  0
    3.7320   -5.7750    0.0000 H   0  0  0  0  0  0  0  0  0  0  0  0
    2.0000   -2.5350    0.0000 H   0  0  0  0  0  0  0  0  0  0  0  0
    7.1962    6.4650    0.0000 H   0  0  0  0  0  0  0  0  0  0  0  0
    2.0000   -5.7750    0.0000 H   0  0  0  0  0  0  0  0  0  0  0  0
  2 31  1  0  0  0  0
  2 32  1  0  0  0  0
  3 29  1  0  0  0  0
  3 35  1  0  0  0  0
  4 40  1  0  0  0  0
  5 91  1  0  0  0  0
  6 92  1  0  0  0  0
  7 93  1  0  0  0  0
  8 94  1  0  0  0  0
  9 95  1  0  0  0  0
 10 36  1  0  0  0  0
 10 50  1  0  0  0  0
 11 37  1  0  0  0  0
 11 51  1  0  0  0  0
 12 42  1  0  0  0  0
 12 43  1  0  0  0  0
 13 48  1  0  0  0  0
 14104  1  0  0  0  0
 15105  1  0  0  0  0
 16106  1  0  0  0  0
 17 45  1  0  0  0  0
 17 49  1  0  0  0  0
 18 46  1  0  0  0  0
 18109  1  0  0  0  0
 19 50  2  0  0  0  0
 19114  1  0  0  0  0
 20 51  2  0  0  0  0
 21 55  2  0  0  0  0
 22 64  1  0  0  0  0
 22119  1  0  0  0  0
 23 73  1  0  0  0  0
 23127  1  0  0  0  0
 24 75  1  0  0  0  0
 24128  1  0  0  0  0
 25 76  1  0  0  0  0
 25129  1  0  0  0  0
 26  1  1  0  0  0  0
 26 27  1  1  0  0  0
 26 77  1  0  0  0  0
 27  5  1  0  0  0  0
 27 28  1  1  0  0  0
 27 78  1  0  0  0  0
 28  6  1  0  0  0  0
 28 32  1  6  0  0  0
 28 79  1  0  0  0  0
 29  1  1  0  0  0  0
 29 30  1  6  0  0  0
 29 80  1  0  0  0  0
 30  7  1  0  0  0  0
 30 33  1  1  0  0  0
 30 81  1  0  0  0  0
 31  4  1  0  0  0  0
 31 26  1  6  0  0  0
 31 82  1  0  0  0  0
 32 36  1  0  0  0  0
 32 83  1  6  0  0  0
 33  8  1  0  0  0  0
 33 34  1  6  0  0  0
 33 84  1  0  0  0  0
 34  9  1  0  0  0  0
 34 35  1  6  0  0  0
 34 85  1  0  0  0  0
 35 37  1  0  0  0  0
 35 86  1  6  0  0  0
 36 87  1  0  0  0  0
 36 88  1  0  0  0  0
 37 89  1  0  0  0  0
 37 90  1  0  0  0  0
 38 14  1  0  0  0  0
 38 39  1  6  0  0  0
 38 96  1  0  0  0  0
 39 15  1  0  0  0  0
 39 42  1  1  0  0  0
 39 97  1  0  0  0  0
 40 44  1  0  0  0  0
 40 45  2  0  0  0  0
 41 16  1  0  0  0  0
 41 38  1  6  0  0  0
 41 98  1  0  0  0  0
 42 46  1  0  0  0  0
 42 99  1  1  0  0  0
 43 13  1  0  0  0  0
 43 41  1  1  0  0  0
 43100  1  0  0  0  0
 44 47  2  0  0  0  0
 44101  1  0  0  0  0
 45 52  1  0  0  0  0
 46102  1  0  0  0  0
 46103  1  0  0  0  0
 47 48  1  0  0  0  0
 47 49  1  0  0  0  0
 48 53  2  0  0  0  0
 49 54  2  0  0  0  0
 50 56  1  0  0  0  0
 51 59  1  0  0  0  0
 52 57  2  0  0  0  0
 52 58  1  0  0  0  0
 53 55  1  0  0  0  0
 53107  1  0  0  0  0
 54 55  1  0  0  0  0
 54108  1  0  0  0  0
 56 62  2  3  0  0  0
 56110  1  0  0  0  0
 57 60  1  0  0  0  0
 57111  1  0  0  0  0
 58 61  2  0  0  0  0
 58112  1  0  0  0  0
 59 63  2  3  0  0  0
 59113  1  0  0  0  0
 60 64  2  0  0  0  0
 60115  1  0  0  0  0
 61 64  1  0  0  0  0
 61116  1  0  0  0  0
 62 65  1  0  0  0  0
 62117  1  0  0  0  0
 63 66  1  0  0  0  0
 63118  1  0  0  0  0
 65 67  2  0  0  0  0
 65 68  1  0  0  0  0
 66 69  2  0  0  0  0
 66 70  1  0  0  0  0
 67 71  1  0  0  0  0
 67120  1  0  0  0  0
 68 72  2  0  0  0  0
 68121  1  0  0  0  0
 69 73  1  0  0  0  0
 69122  1  0  0  0  0
 70 74  2  0  0  0  0
 70123  1  0  0  0  0
 71 75  2  0  0  0  0
 71124  1  0  0  0  0
 72 75  1  0  0  0  0
 72125  1  0  0  0  0
 73 76  2  0  0  0  0
 74 76  1  0  0  0  0
 74126  1  0  0  0  0
M  CHG  1  19   1
M  END
>  <PUBCHEM_COMPOUND_CID>
102520883

>  <PUBCHEM_COMPOUND_CANONICALIZED>
1

>  <PUBCHEM_CACTVS_COMPLEXITY>
2210

>  <PUBCHEM_CACTVS_HBOND_ACCEPTOR>
24

>  <PUBCHEM_CACTVS_HBOND_DONOR>
14

>  <PUBCHEM_CACTVS_ROTATABLE_BOND>
18

>  <PUBCHEM_CACTVS_SUBSKEYS>
AAADcfB8PgAAAAAAAAAAAAAAAAAAAAAAAAA0aNECAAAAAACBUAAAGgAACAAADBSwmAMwDoAABgCIAqDSCAACCAAgIAAIiAAGiMgZNiKCMRqicAElwBEPuYfA4DwOIAABAAAAQABAAAIAAACAAAAAAAAAAA==

>  <PUBCHEM_IUPAC_OPENEYE_NAME>
[1-[[(2R,3S,4S,5R,6S)-5-[(2S,3R,4S,5S,6R)-6-[3-(3,4-dihydroxyphenyl)prop-2-enoyloxymethyl]-3,4,5-trihydroxy-tetrahydropyran-2-yl]oxy-3,4-dihydroxy-6-[2-(4-hydroxyphenyl)-7-oxo-5-[(2S,3R,4S,5S,6R)-3,4,5-trihydroxy-6-(hydroxymethyl)tetrahydropyran-2-yl]oxy-chromen-3-yl]oxy-tetrahydropyran-2-yl]methoxy]-3-(4-hydroxyphenyl)prop-2-enylidene]oxonium

>  <PUBCHEM_IUPAC_CAS_NAME>
[1-[[(2R,3S,4S,5R,6S)-5-[[(2S,3R,4S,5S,6R)-6-[[3-(3,4-dihydroxyphenyl)-1-oxoprop-2-enoxy]methyl]-3,4,5-trihydroxy-2-oxanyl]oxy]-3,4-dihydroxy-6-[[2-(4-hydroxyphenyl)-7-oxo-5-[[(2S,3R,4S,5S,6R)-3,4,5-trihydroxy-6-(hydroxymethyl)-2-oxanyl]oxy]-1-benzopyran-3-yl]oxy]-2-oxanyl]methoxy]-3-(4-hydroxyphenyl)prop-2-enylidene]oxonium

>  <PUBCHEM_IUPAC_NAME>
[1-[[(2R,3S,4S,5R,6S)-5-[(2S,3R,4S,5S,6R)-6-[3-(3,4-dihydroxyphenyl)prop-2-enoyloxymethyl]-3,4,5-trihydroxyoxan-2-yl]oxy-3,4-dihydroxy-6-[2-(4-hydroxyphenyl)-7-oxo-5-[(2S,3R,4S,5S,6R)-3,4,5-trihydroxy-6-(hydroxymethyl)oxan-2-yl]oxychromen-3-yl]oxyoxan-2-yl]methoxy]-3-(4-hydroxyphenyl)prop-2-enylidene]oxidanium

>  <PUBCHEM_IUPAC_SYSTEMATIC_NAME>
[1-[[(2R,3S,4S,5R,6S)-5-[(2S,3R,4S,5S,6R)-6-[3-[3,4-bis(oxidanyl)phenyl]prop-2-enoyloxymethyl]-3,4,5-tris(oxidanyl)oxan-2-yl]oxy-6-[5-[(2S,3R,4S,5S,6R)-6-(hydroxymethyl)-3,4,5-tris(oxidanyl)oxan-2-yl]oxy-2-(4-hydroxyphenyl)-7-oxidanylidene-chromen-3-yl]oxy-3,4-bis(oxidanyl)oxan-2-yl]methoxy]-3-(4-hydroxyphenyl)prop-2-enylidene]oxidanium

>  <PUBCHEM_IUPAC_TRADITIONAL_NAME>
[1-[[(2R,3S,4S,5R,6S)-5-[(2S,3R,4S,5S,6R)-6-(caffeoyloxymethyl)-3,4,5-trihydroxy-tetrahydropyran-2-yl]oxy-3,4-dihydroxy-6-[2-(4-hydroxyphenyl)-7-keto-5-[(2S,3R,4S,5S,6R)-3,4,5-trihydroxy-6-methylol-tetrahydropyran-2-yl]oxy-chromen-3-yl]oxy-tetrahydropyran-2-yl]methoxy]-3-(4-hydroxyphenyl)prop-2-enylidene]oxonium

>  <PUBCHEM_IUPAC_INCHI>
InChI=1S/C51H52O25/c52-19-34-39(60)42(63)45(66)49(73-34)71-32-17-27(55)16-31-28(32)18-33(47(70-31)24-6-10-26(54)11-7-24)72-51-48(44(65)41(62)36(75-51)21-69-37(58)13-4-22-1-8-25(53)9-2-22)76-50-46(67)43(64)40(61)35(74-50)20-68-38(59)14-5-23-3-12-29(56)30(57)15-23/h1-18,34-36,39-46,48-54,56-57,60-67H,19-21H2/p+1/t34-,35-,36-,39-,40-,41-,42+,43+,44+,45-,46-,48-,49-,50+,51-/m1/s1

>  <PUBCHEM_IUPAC_INCHIKEY>
VXSCCEQEHJJPQB-RPCOPJSUSA-O

>  <PUBCHEM_XLOGP3_AA>
-1.1

>  <PUBCHEM_EXACT_MASS>
1065.288

>  <PUBCHEM_MOLECULAR_FORMULA>
C51H53O25+

>  <PUBCHEM_MOLECULAR_WEIGHT>
1065.96

>  <PUBCHEM_OPENEYE_CAN_SMILES>
C1=CC(=CC=C1C=CC(=[OH+])OCC2C(C(C(C(O2)OC3=C(OC4=CC(=O)C=C(C4=C3)OC5C(C(C(C(O5)CO)O)O)O)C6=CC=C(C=C6)O)OC7C(C(C(C(O7)COC(=O)C=CC8=CC(=C(C=C8)O)O)O)O)O)O)O)O

>  <PUBCHEM_OPENEYE_ISO_SMILES>
C1=CC(=CC=C1C=CC(=[OH+])OC[C@@H]2[C@H]([C@@H]([C@H]([C@@H](O2)OC3=C(OC4=CC(=O)C=C(C4=C3)O[C@H]5[C@@H]([C@H]([C@@H]([C@H](O5)CO)O)O)O)C6=CC=C(C=C6)O)O[C@H]7[C@@H]([C@H]([C@@H]([C@H](O7)COC(=O)C=CC8=CC(=C(C=C8)O)O)O)O)O)O)O)O

>  <PUBCHEM_CACTVS_TPSA>
381

>  <PUBCHEM_MONOISOTOPIC_WEIGHT>
1065.288

>  <PUBCHEM_TOTAL_CHARGE>
1

>  <PUBCHEM_HEAVY_ATOM_COUNT>
76

>  <PUBCHEM_ATOM_DEF_STEREO_COUNT>
15

>  <PUBCHEM_ATOM_UDEF_STEREO_COUNT>
0

>  <PUBCHEM_BOND_DEF_STEREO_COUNT>
0

>  <PUBCHEM_BOND_UDEF_STEREO_COUNT>
2

>  <PUBCHEM_ISOTOPIC_ATOM_COUNT>
0

>  <PUBCHEM_COMPONENT_COUNT>
1

>  <PUBCHEM_CACTVS_TAUTO_COUNT>
392

>  <PUBCHEM_COORDINATE_TYPE>
1
5
255

>  <PUBCHEM_BONDANNOTATIONS>
26  1  6
29  1  5
43  13  6
38  14  6
39  15  5
41  16  5
17  45  8
17  49  8
32  36  5
35  37  5
31  4  5
40  44  8
40  45  8
42  46  6
44  47  8
47  48  8
48  53  8
49  54  8
27  5  5
52  57  8
52  58  8
53  55  8
54  55  8
56  62  1
57  60  8
58  61  8
59  63  1
28  6  6
60  64  8
61  64  8
65  67  8
65  68  8
66  69  8
66  70  8
67  71  8
68  72  8
69  73  8
30  7  6
70  74  8
71  75  8
72  75  8
73  76  8
74  76  8
33  8  5
34  9  6

$$$$
