10315987
 OpenBabel06101807152D

 42 45  0  0  1  0  0  0  0  0999 V2000
    4.5841   -0.8787    0.0000 O   0  0  0  0  0  0  0  0  0  0  0  0
    7.2342    0.6698    0.0000 O   0  0  0  0  0  0  0  0  0  0  0  0
    4.6361    2.1698    0.0000 O   0  0  0  0  0  0  0  0  0  0  0  0
    5.4803    3.7012    0.0000 O   0  0  0  0  0  0  0  0  0  0  0  0
    6.4213   -4.0269    0.0000 O   0  0  0  0  0  0  0  0  0  0  0  0
    9.0201    3.7149    0.0000 O   0  0  0  0  0  0  0  0  0  0  0  0
    4.5921    0.1629    0.0000 C   0  0  3  0  0  0  0  0  0  0  0  0
    5.5021    0.6698    0.0000 C   0  0  0  0  0  0  0  0  0  0  0  0
    6.3682    0.1698    0.0000 C   0  0  0  0  0  0  0  0  0  0  0  0
    6.3842   -0.8717    0.0000 C   0  0  0  0  0  0  0  0  0  0  0  0
    5.5021    1.6698    0.0000 C   0  0  0  0  0  0  0  0  0  0  0  0
    5.4862   -1.3995    0.0000 C   0  0  0  0  0  0  0  0  0  0  0  0
    6.3682    2.1698    0.0000 C   0  0  0  0  0  0  0  0  0  0  0  0
    7.2342    1.6698    0.0000 C   0  0  0  0  0  0  0  0  0  0  0  0
    3.7319    0.6729    0.0000 C   0  0  0  0  0  0  0  0  0  0  0  0
    7.3361   -1.3924    0.0000 C   0  0  0  0  0  0  0  0  0  0  0  0
    5.4778   -2.4844    0.0000 C   0  0  0  0  0  0  0  0  0  0  0  0
    6.3521    3.2113    0.0000 C   0  0  0  0  0  0  0  0  0  0  0  0
    2.8602    0.1830    0.0000 C   0  0  0  0  0  0  0  0  0  0  0  0
    8.1442    2.1766    0.0000 C   0  0  0  0  0  0  0  0  0  0  0  0
    7.3529   -2.4772    0.0000 C   0  0  0  0  0  0  0  0  0  0  0  0
    6.4174   -3.0269    0.0000 C   0  0  0  0  0  0  0  0  0  0  0  0
    7.2501    3.7390    0.0000 C   0  0  0  0  0  0  0  0  0  0  0  0
    8.1522    3.2182    0.0000 C   0  0  0  0  0  0  0  0  0  0  0  0
    2.0000    0.6929    0.0000 C   0  0  0  0  0  0  0  0  0  0  0  0
    2.8486   -0.8170    0.0000 C   0  0  0  0  0  0  0  0  0  0  0  0
    4.0522   -0.1419    0.0000 H   0  0  0  0  0  0  0  0  0  0  0  0
    3.7391    1.2929    0.0000 H   0  0  0  0  0  0  0  0  0  0  0  0
    7.8670   -1.0721    0.0000 H   0  0  0  0  0  0  0  0  0  0  0  0
    4.9397   -2.7924    0.0000 H   0  0  0  0  0  0  0  0  0  0  0  0
    8.6775    1.8604    0.0000 H   0  0  0  0  0  0  0  0  0  0  0  0
    7.8934   -2.7810    0.0000 H   0  0  0  0  0  0  0  0  0  0  0  0
    7.2477    4.3590    0.0000 H   0  0  0  0  0  0  0  0  0  0  0  0
    2.2287   -0.8098    0.0000 H   0  0  0  0  0  0  0  0  0  0  0  0
    2.8414   -1.4369    0.0000 H   0  0  0  0  0  0  0  0  0  0  0  0
    2.3162    1.2262    0.0000 H   0  0  0  0  0  0  0  0  0  0  0  0
    1.4667    1.0091    0.0000 H   0  0  0  0  0  0  0  0  0  0  0  0
    1.6838    0.1596    0.0000 H   0  0  0  0  0  0  0  0  0  0  0  0
    3.4686   -0.8241    0.0000 H   0  0  0  0  0  0  0  0  0  0  0  0
    5.4732    4.3212    0.0000 H   0  0  0  0  0  0  0  0  0  0  0  0
    6.9594   -4.3349    0.0000 H   0  0  0  0  0  0  0  0  0  0  0  0
    9.0225    4.3349    0.0000 H   0  0  0  0  0  0  0  0  0  0  0  0
  1  7  1  0  0  0  0
  1 12  1  0  0  0  0
  2  9  1  0  0  0  0
  2 14  1  0  0  0  0
  3 11  2  0  0  0  0
  4 18  1  0  0  0  0
  4 40  1  0  0  0  0
  5 22  1  0  0  0  0
  5 41  1  0  0  0  0
  6 24  1  0  0  0  0
  6 42  1  0  0  0  0
  7  8  1  0  0  0  0
  7 15  1  0  0  0  0
  7 27  1  0  0  0  0
  8  9  2  0  0  0  0
  8 11  1  0  0  0  0
  9 10  1  0  0  0  0
 10 12  2  0  0  0  0
 10 16  1  0  0  0  0
 11 13  1  0  0  0  0
 12 17  1  0  0  0  0
 13 14  1  0  0  0  0
 13 18  2  0  0  0  0
 14 20  2  0  0  0  0
 15 19  2  0  0  0  0
 15 28  1  0  0  0  0
 16 21  2  0  0  0  0
 16 29  1  0  0  0  0
 17 22  2  0  0  0  0
 17 30  1  0  0  0  0
 18 23  1  0  0  0  0
 19 25  1  0  0  0  0
 19 26  1  0  0  0  0
 20 24  1  0  0  0  0
 20 31  1  0  0  0  0
 21 22  1  0  0  0  0
 21 32  1  0  0  0  0
 23 24  2  0  0  0  0
 23 33  1  0  0  0  0
 25 36  1  0  0  0  0
 25 37  1  0  0  0  0
 25 38  1  0  0  0  0
 26 34  1  0  0  0  0
 26 35  1  0  0  0  0
 26 39  1  0  0  0  0
M  END
>  <PUBCHEM_COMPOUND_CID>
10315987

>  <PUBCHEM_COMPOUND_CANONICALIZED>
1

>  <PUBCHEM_CACTVS_COMPLEXITY>
649

>  <PUBCHEM_CACTVS_HBOND_ACCEPTOR>
6

>  <PUBCHEM_CACTVS_HBOND_DONOR>
3

>  <PUBCHEM_CACTVS_ROTATABLE_BOND>
1

>  <PUBCHEM_CACTVS_SUBSKEYS>
AAADceB4OAAAAAAAAAAAAAAAAAAAAAAAAAAwYIEAAAAAAACRQAAAGgAACAAADBSgmAIyBoAABgCIAqBSAAACCAAkIAAIiAEGCMgMJzaGNRqCeWCl4BUIuQeI7KzOIAAACAAIAABAAAAQABAAAAAAAAAAAA==

>  <PUBCHEM_IUPAC_OPENEYE_NAME>
3,8,10-trihydroxy-6-(2-methylprop-1-enyl)-6H-chromeno[4,3-b]chromen-7-one

>  <PUBCHEM_IUPAC_CAS_NAME>
3,8,10-trihydroxy-6-(2-methylprop-1-enyl)-6H-[1]benzopyrano[4,3-b][1]benzopyran-7-one

>  <PUBCHEM_IUPAC_NAME>
3,8,10-trihydroxy-6-(2-methylprop-1-enyl)-6H-chromeno[4,3-b]chromen-7-one

>  <PUBCHEM_IUPAC_SYSTEMATIC_NAME>
6-(2-methylprop-1-enyl)-3,8,10-tris(oxidanyl)-6H-chromeno[4,3-b]chromen-7-one

>  <PUBCHEM_IUPAC_TRADITIONAL_NAME>
3,8,10-trihydroxy-6-(2-methylprop-1-enyl)-6H-chromeno[4,3-b]chromen-7-one

>  <PUBCHEM_IUPAC_INCHI>
InChI=1S/C20H16O6/c1-9(2)5-15-18-19(24)17-13(23)6-11(22)8-16(17)26-20(18)12-4-3-10(21)7-14(12)25-15/h3-8,15,21-23H,1-2H3

>  <PUBCHEM_IUPAC_INCHIKEY>
VHNPAPHWKVLGHG-UHFFFAOYSA-N

>  <PUBCHEM_XLOGP3_AA>
3.9

>  <PUBCHEM_EXACT_MASS>
352.095

>  <PUBCHEM_MOLECULAR_FORMULA>
C20H16O6

>  <PUBCHEM_MOLECULAR_WEIGHT>
352.342

>  <PUBCHEM_OPENEYE_CAN_SMILES>
CC(=CC1C2=C(C3=C(O1)C=C(C=C3)O)OC4=CC(=CC(=C4C2=O)O)O)C

>  <PUBCHEM_OPENEYE_ISO_SMILES>
CC(=CC1C2=C(C3=C(O1)C=C(C=C3)O)OC4=CC(=CC(=C4C2=O)O)O)C

>  <PUBCHEM_CACTVS_TPSA>
96.2

>  <PUBCHEM_MONOISOTOPIC_WEIGHT>
352.095

>  <PUBCHEM_TOTAL_CHARGE>
0

>  <PUBCHEM_HEAVY_ATOM_COUNT>
26

>  <PUBCHEM_ATOM_DEF_STEREO_COUNT>
0

>  <PUBCHEM_ATOM_UDEF_STEREO_COUNT>
1

>  <PUBCHEM_BOND_DEF_STEREO_COUNT>
0

>  <PUBCHEM_BOND_UDEF_STEREO_COUNT>
0

>  <PUBCHEM_ISOTOPIC_ATOM_COUNT>
0

>  <PUBCHEM_COMPONENT_COUNT>
1

>  <PUBCHEM_CACTVS_TAUTO_COUNT>
69

>  <PUBCHEM_COORDINATE_TYPE>
1
5
255

>  <PUBCHEM_BONDANNOTATIONS>
10  12  8
10  16  8
11  13  8
12  17  8
13  14  8
13  18  8
14  20  8
16  21  8
17  22  8
18  23  8
2  14  8
2  9  8
20  24  8
21  22  8
23  24  8
7  15  3
8  11  8
8  9  8

$$$$
