10359254
 OpenBabel06101807152D

 38 40  0  0  0  0  0  0  0  0999 V2000
    6.0290   -0.1743    0.0000 O   0  0  0  0  0  0  0  0  0  0  0  0
    2.5369   -0.1396    0.0000 O   0  0  0  0  0  0  0  0  0  0  0  0
    4.2690    2.8604    0.0000 O   0  0  0  0  0  0  0  0  0  0  0  0
    2.5369    1.8604    0.0000 O   0  0  0  0  0  0  0  0  0  0  0  0
    6.0174    2.8950    0.0000 O   0  0  0  0  0  0  0  0  0  0  0  0
    8.6555   -2.6671    0.0000 O   0  0  0  0  0  0  0  0  0  0  0  0
   10.3914   -1.6738    0.0000 O   0  0  0  0  0  0  0  0  0  0  0  0
    5.1350    1.3604    0.0000 C   0  0  0  0  0  0  0  0  0  0  0  0
    5.1350    0.3604    0.0000 C   0  0  0  0  0  0  0  0  0  0  0  0
    6.9350    0.3396    0.0000 C   0  0  0  0  0  0  0  0  0  0  0  0
    7.7991   -0.1637    0.0000 C   0  0  0  0  0  0  0  0  0  0  0  0
    6.0290    1.8951    0.0000 C   0  0  0  0  0  0  0  0  0  0  0  0
    4.2690    1.8604    0.0000 C   0  0  0  0  0  0  0  0  0  0  0  0
    6.9350    1.3812    0.0000 C   0  0  0  0  0  0  0  0  0  0  0  0
    4.2690   -0.1396    0.0000 C   0  0  0  0  0  0  0  0  0  0  0  0
    3.4030    0.3604    0.0000 C   0  0  0  0  0  0  0  0  0  0  0  0
    3.4030    1.3604    0.0000 C   0  0  0  0  0  0  0  0  0  0  0  0
    7.7953   -1.1637    0.0000 C   0  0  0  0  0  0  0  0  0  0  0  0
    8.6671    0.3329    0.0000 C   0  0  0  0  0  0  0  0  0  0  0  0
    8.6594   -1.6671    0.0000 C   0  0  0  0  0  0  0  0  0  0  0  0
    9.5312   -0.1704    0.0000 C   0  0  0  0  0  0  0  0  0  0  0  0
    9.5273   -1.1704    0.0000 C   0  0  0  0  0  0  0  0  0  0  0  0
    2.5369   -1.1396    0.0000 C   0  0  0  0  0  0  0  0  0  0  0  0
    9.5196   -3.1704    0.0000 C   0  0  0  0  0  0  0  0  0  0  0  0
    7.4708    1.6933    0.0000 H   0  0  0  0  0  0  0  0  0  0  0  0
    4.2690   -0.7596    0.0000 H   0  0  0  0  0  0  0  0  0  0  0  0
    7.2571   -1.4717    0.0000 H   0  0  0  0  0  0  0  0  0  0  0  0
    8.6694    0.9529    0.0000 H   0  0  0  0  0  0  0  0  0  0  0  0
   10.0693    0.1375    0.0000 H   0  0  0  0  0  0  0  0  0  0  0  0
    3.7320    3.1704    0.0000 H   0  0  0  0  0  0  0  0  0  0  0  0
    2.0000    1.5504    0.0000 H   0  0  0  0  0  0  0  0  0  0  0  0
    1.9169   -1.1396    0.0000 H   0  0  0  0  0  0  0  0  0  0  0  0
    2.5369   -1.7596    0.0000 H   0  0  0  0  0  0  0  0  0  0  0  0
    3.1569   -1.1396    0.0000 H   0  0  0  0  0  0  0  0  0  0  0  0
   10.9295   -1.3658    0.0000 H   0  0  0  0  0  0  0  0  0  0  0  0
    9.2075   -3.7061    0.0000 H   0  0  0  0  0  0  0  0  0  0  0  0
   10.0553   -3.4825    0.0000 H   0  0  0  0  0  0  0  0  0  0  0  0
    9.8316   -2.6347    0.0000 H   0  0  0  0  0  0  0  0  0  0  0  0
  1  9  1  0  0  0  0
  1 10  1  0  0  0  0
  2 16  1  0  0  0  0
  2 23  1  0  0  0  0
  3 13  1  0  0  0  0
  3 30  1  0  0  0  0
  4 17  1  0  0  0  0
  4 31  1  0  0  0  0
  5 12  2  0  0  0  0
  6 20  1  0  0  0  0
  6 24  1  0  0  0  0
  7 22  1  0  0  0  0
  7 35  1  0  0  0  0
  8  9  1  0  0  0  0
  8 12  1  0  0  0  0
  8 13  2  0  0  0  0
  9 15  2  0  0  0  0
 10 11  1  0  0  0  0
 10 14  2  0  0  0  0
 11 18  2  0  0  0  0
 11 19  1  0  0  0  0
 12 14  1  0  0  0  0
 13 17  1  0  0  0  0
 14 25  1  0  0  0  0
 15 16  1  0  0  0  0
 15 26  1  0  0  0  0
 16 17  2  0  0  0  0
 18 20  1  0  0  0  0
 18 27  1  0  0  0  0
 19 21  2  0  0  0  0
 19 28  1  0  0  0  0
 20 22  2  0  0  0  0
 21 22  1  0  0  0  0
 21 29  1  0  0  0  0
 23 32  1  0  0  0  0
 23 33  1  0  0  0  0
 23 34  1  0  0  0  0
 24 36  1  0  0  0  0
 24 37  1  0  0  0  0
 24 38  1  0  0  0  0
M  END
>  <PUBCHEM_COMPOUND_CID>
10359254

>  <PUBCHEM_COMPOUND_CANONICALIZED>
1

>  <PUBCHEM_CACTVS_COMPLEXITY>
505

>  <PUBCHEM_CACTVS_HBOND_ACCEPTOR>
7

>  <PUBCHEM_CACTVS_HBOND_DONOR>
3

>  <PUBCHEM_CACTVS_ROTATABLE_BOND>
3

>  <PUBCHEM_CACTVS_SUBSKEYS>
AAADccB4OAAAAAAAAAAAAAAAAAAAAAAAAAAwYIAAAAAAAACBQAAAGgAACAAADASAmAIyBoAABgCIAqBSAAACCAAkIAAIiAEGiMgNJzaGNRqCeWOl4BULuQfK7LzOIQABCAAIQABCAAIQABCAAAAAAAAAAA==

>  <PUBCHEM_IUPAC_OPENEYE_NAME>
5,6-dihydroxy-2-(4-hydroxy-3-methoxy-phenyl)-7-methoxy-chromen-4-one

>  <PUBCHEM_IUPAC_CAS_NAME>
5,6-dihydroxy-2-(4-hydroxy-3-methoxyphenyl)-7-methoxy-1-benzopyran-4-one

>  <PUBCHEM_IUPAC_NAME>
5,6-dihydroxy-2-(4-hydroxy-3-methoxyphenyl)-7-methoxychromen-4-one

>  <PUBCHEM_IUPAC_SYSTEMATIC_NAME>
7-methoxy-2-(3-methoxy-4-oxidanyl-phenyl)-5,6-bis(oxidanyl)chromen-4-one

>  <PUBCHEM_IUPAC_TRADITIONAL_NAME>
5,6-dihydroxy-2-(4-hydroxy-3-methoxy-phenyl)-7-methoxy-chromone

>  <PUBCHEM_IUPAC_INCHI>
InChI=1S/C17H14O7/c1-22-12-5-8(3-4-9(12)18)11-6-10(19)15-13(24-11)7-14(23-2)16(20)17(15)21/h3-7,18,20-21H,1-2H3

>  <PUBCHEM_IUPAC_INCHIKEY>
LRUIASUJJNMESX-UHFFFAOYSA-N

>  <PUBCHEM_XLOGP3_AA>
2.6

>  <PUBCHEM_EXACT_MASS>
330.074

>  <PUBCHEM_MOLECULAR_FORMULA>
C17H14O7

>  <PUBCHEM_MOLECULAR_WEIGHT>
330.292

>  <PUBCHEM_OPENEYE_CAN_SMILES>
COC1=C(C=CC(=C1)C2=CC(=O)C3=C(C(=C(C=C3O2)OC)O)O)O

>  <PUBCHEM_OPENEYE_ISO_SMILES>
COC1=C(C=CC(=C1)C2=CC(=O)C3=C(C(=C(C=C3O2)OC)O)O)O

>  <PUBCHEM_CACTVS_TPSA>
105

>  <PUBCHEM_MONOISOTOPIC_WEIGHT>
330.074

>  <PUBCHEM_TOTAL_CHARGE>
0

>  <PUBCHEM_HEAVY_ATOM_COUNT>
24

>  <PUBCHEM_ATOM_DEF_STEREO_COUNT>
0

>  <PUBCHEM_ATOM_UDEF_STEREO_COUNT>
0

>  <PUBCHEM_BOND_DEF_STEREO_COUNT>
0

>  <PUBCHEM_BOND_UDEF_STEREO_COUNT>
0

>  <PUBCHEM_ISOTOPIC_ATOM_COUNT>
0

>  <PUBCHEM_COMPONENT_COUNT>
1

>  <PUBCHEM_CACTVS_TAUTO_COUNT>
58

>  <PUBCHEM_COORDINATE_TYPE>
1
5
255

>  <PUBCHEM_BONDANNOTATIONS>
1  10  8
1  9  8
10  14  8
11  18  8
11  19  8
12  14  8
13  17  8
15  16  8
16  17  8
18  20  8
19  21  8
20  22  8
21  22  8
8  12  8
8  13  8
8  9  8
9  15  8

$$$$
