10385745
 OpenBabel06101807152D

 66 66  0  0  0  0  0  0  0  0999 V2000
    6.3301   -2.0950    0.0000 O   0  0  0  0  0  0  0  0  0  0  0  0
    4.5981   -2.0950    0.0000 O   0  0  0  0  0  0  0  0  0  0  0  0
    2.8660   -7.0950    0.0000 O   0  0  0  0  0  0  0  0  0  0  0  0
    4.5981   -8.0950    0.0000 O   0  0  0  0  0  0  0  0  0  0  0  0
    8.9282    3.4050    0.0000 C   0  0  0  0  0  0  0  0  0  0  0  0
    9.7942    3.9050    0.0000 C   0  0  0  0  0  0  0  0  0  0  0  0
    8.9282    2.4050    0.0000 C   0  0  0  0  0  0  0  0  0  0  0  0
    9.7942    4.9050    0.0000 C   0  0  0  0  0  0  0  0  0  0  0  0
    8.0622    1.9050    0.0000 C   0  0  0  0  0  0  0  0  0  0  0  0
   10.6603    5.4050    0.0000 C   0  0  0  0  0  0  0  0  0  0  0  0
    8.0622    0.9050    0.0000 C   0  0  0  0  0  0  0  0  0  0  0  0
   10.6603    6.4050    0.0000 C   0  0  0  0  0  0  0  0  0  0  0  0
    7.1962    0.4050    0.0000 C   0  0  0  0  0  0  0  0  0  0  0  0
   11.5263    6.9050    0.0000 C   0  0  0  0  0  0  0  0  0  0  0  0
    7.1962   -0.5950    0.0000 C   0  0  0  0  0  0  0  0  0  0  0  0
   11.5263    7.9050    0.0000 C   0  0  0  0  0  0  0  0  0  0  0  0
    6.3301   -1.0950    0.0000 C   0  0  0  0  0  0  0  0  0  0  0  0
   12.3923    8.4050    0.0000 C   0  0  0  0  0  0  0  0  0  0  0  0
    5.4641   -2.5950    0.0000 C   0  0  0  0  0  0  0  0  0  0  0  0
    5.4641   -3.5950    0.0000 C   0  0  0  0  0  0  0  0  0  0  0  0
    4.5981   -4.0950    0.0000 C   0  0  0  0  0  0  0  0  0  0  0  0
    4.5981   -5.0950    0.0000 C   0  0  0  0  0  0  0  0  0  0  0  0
    3.7320   -5.5950    0.0000 C   0  0  0  0  0  0  0  0  0  0  0  0
    5.4641   -5.5950    0.0000 C   0  0  0  0  0  0  0  0  0  0  0  0
    3.7320   -6.5950    0.0000 C   0  0  0  0  0  0  0  0  0  0  0  0
    5.4641   -6.5950    0.0000 C   0  0  0  0  0  0  0  0  0  0  0  0
    4.5981   -7.0950    0.0000 C   0  0  0  0  0  0  0  0  0  0  0  0
    2.0000   -6.5950    0.0000 C   0  0  0  0  0  0  0  0  0  0  0  0
    8.7162    3.9876    0.0000 H   0  0  0  0  0  0  0  0  0  0  0  0
    8.3176    3.2973    0.0000 H   0  0  0  0  0  0  0  0  0  0  0  0
   10.0063    3.3224    0.0000 H   0  0  0  0  0  0  0  0  0  0  0  0
   10.4048    4.0127    0.0000 H   0  0  0  0  0  0  0  0  0  0  0  0
    9.1403    1.8224    0.0000 H   0  0  0  0  0  0  0  0  0  0  0  0
    9.5388    2.5127    0.0000 H   0  0  0  0  0  0  0  0  0  0  0  0
    9.5822    5.4876    0.0000 H   0  0  0  0  0  0  0  0  0  0  0  0
    9.1836    4.7973    0.0000 H   0  0  0  0  0  0  0  0  0  0  0  0
    7.8501    2.4876    0.0000 H   0  0  0  0  0  0  0  0  0  0  0  0
    7.4516    1.7973    0.0000 H   0  0  0  0  0  0  0  0  0  0  0  0
   10.8723    4.8224    0.0000 H   0  0  0  0  0  0  0  0  0  0  0  0
   11.2708    5.5127    0.0000 H   0  0  0  0  0  0  0  0  0  0  0  0
    8.2742    0.3224    0.0000 H   0  0  0  0  0  0  0  0  0  0  0  0
    8.6728    1.0127    0.0000 H   0  0  0  0  0  0  0  0  0  0  0  0
   10.4482    6.9876    0.0000 H   0  0  0  0  0  0  0  0  0  0  0  0
   10.0497    6.2973    0.0000 H   0  0  0  0  0  0  0  0  0  0  0  0
    6.9841    0.9876    0.0000 H   0  0  0  0  0  0  0  0  0  0  0  0
    6.5856    0.2973    0.0000 H   0  0  0  0  0  0  0  0  0  0  0  0
   11.7383    6.3224    0.0000 H   0  0  0  0  0  0  0  0  0  0  0  0
   12.1369    7.0127    0.0000 H   0  0  0  0  0  0  0  0  0  0  0  0
    7.4082   -1.1776    0.0000 H   0  0  0  0  0  0  0  0  0  0  0  0
    7.8067   -0.4873    0.0000 H   0  0  0  0  0  0  0  0  0  0  0  0
   11.3142    8.4876    0.0000 H   0  0  0  0  0  0  0  0  0  0  0  0
   10.9157    7.7973    0.0000 H   0  0  0  0  0  0  0  0  0  0  0  0
    6.1181   -0.5124    0.0000 H   0  0  0  0  0  0  0  0  0  0  0  0
    5.7196   -1.2027    0.0000 H   0  0  0  0  0  0  0  0  0  0  0  0
   12.7023    7.8681    0.0000 H   0  0  0  0  0  0  0  0  0  0  0  0
   12.9292    8.7150    0.0000 H   0  0  0  0  0  0  0  0  0  0  0  0
   12.0823    8.9419    0.0000 H   0  0  0  0  0  0  0  0  0  0  0  0
    6.0010   -3.9050    0.0000 H   0  0  0  0  0  0  0  0  0  0  0  0
    4.0611   -3.7850    0.0000 H   0  0  0  0  0  0  0  0  0  0  0  0
    3.1951   -5.2850    0.0000 H   0  0  0  0  0  0  0  0  0  0  0  0
    6.0010   -5.2850    0.0000 H   0  0  0  0  0  0  0  0  0  0  0  0
    6.0010   -6.9050    0.0000 H   0  0  0  0  0  0  0  0  0  0  0  0
    5.1350   -8.4050    0.0000 H   0  0  0  0  0  0  0  0  0  0  0  0
    2.3100   -6.0581    0.0000 H   0  0  0  0  0  0  0  0  0  0  0  0
    1.4631   -6.2850    0.0000 H   0  0  0  0  0  0  0  0  0  0  0  0
    1.6900   -7.1319    0.0000 H   0  0  0  0  0  0  0  0  0  0  0  0
  1 17  1  0  0  0  0
  1 19  1  0  0  0  0
  2 19  2  0  0  0  0
  3 25  1  0  0  0  0
  3 28  1  0  0  0  0
  4 27  1  0  0  0  0
  4 63  1  0  0  0  0
  5  6  1  0  0  0  0
  5  7  1  0  0  0  0
  5 29  1  0  0  0  0
  5 30  1  0  0  0  0
  6  8  1  0  0  0  0
  6 31  1  0  0  0  0
  6 32  1  0  0  0  0
  7  9  1  0  0  0  0
  7 33  1  0  0  0  0
  7 34  1  0  0  0  0
  8 10  1  0  0  0  0
  8 35  1  0  0  0  0
  8 36  1  0  0  0  0
  9 11  1  0  0  0  0
  9 37  1  0  0  0  0
  9 38  1  0  0  0  0
 10 12  1  0  0  0  0
 10 39  1  0  0  0  0
 10 40  1  0  0  0  0
 11 13  1  0  0  0  0
 11 41  1  0  0  0  0
 11 42  1  0  0  0  0
 12 14  1  0  0  0  0
 12 43  1  0  0  0  0
 12 44  1  0  0  0  0
 13 15  1  0  0  0  0
 13 45  1  0  0  0  0
 13 46  1  0  0  0  0
 14 16  1  0  0  0  0
 14 47  1  0  0  0  0
 14 48  1  0  0  0  0
 15 17  1  0  0  0  0
 15 49  1  0  0  0  0
 15 50  1  0  0  0  0
 16 18  1  0  0  0  0
 16 51  1  0  0  0  0
 16 52  1  0  0  0  0
 17 53  1  0  0  0  0
 17 54  1  0  0  0  0
 18 55  1  0  0  0  0
 18 56  1  0  0  0  0
 18 57  1  0  0  0  0
 19 20  1  0  0  0  0
 20 21  2  0  0  0  0
 20 58  1  0  0  0  0
 21 22  1  0  0  0  0
 21 59  1  0  0  0  0
 22 23  2  0  0  0  0
 22 24  1  0  0  0  0
 23 25  1  0  0  0  0
 23 60  1  0  0  0  0
 24 26  2  0  0  0  0
 24 61  1  0  0  0  0
 25 27  2  0  0  0  0
 26 27  1  0  0  0  0
 26 62  1  0  0  0  0
 28 64  1  0  0  0  0
 28 65  1  0  0  0  0
 28 66  1  0  0  0  0
M  END
>  <PUBCHEM_COMPOUND_CID>
10385745

>  <PUBCHEM_COMPOUND_CANONICALIZED>
1

>  <PUBCHEM_CACTVS_COMPLEXITY>
407

>  <PUBCHEM_CACTVS_HBOND_ACCEPTOR>
4

>  <PUBCHEM_CACTVS_HBOND_DONOR>
1

>  <PUBCHEM_CACTVS_ROTATABLE_BOND>
17

>  <PUBCHEM_CACTVS_SUBSKEYS>
AAADcfB4OAAAAAAAAAAAAAAAAAAAAAAAAAAwAAAAAAAAAAABAAAAGgAACAAADASgmAIyDoAABgCIAiDSCAACCAAgIAAIiAAGiMgNJiKGMRqCcCMkwBELuYeAwLAOIAABAAAAQABAAAIAAACAAAAAAAAAAA==

>  <PUBCHEM_IUPAC_OPENEYE_NAME>
tetradecyl (E)-3-(4-hydroxy-3-methoxy-phenyl)prop-2-enoate

>  <PUBCHEM_IUPAC_CAS_NAME>
(E)-3-(4-hydroxy-3-methoxyphenyl)-2-propenoic acid tetradecyl ester

>  <PUBCHEM_IUPAC_NAME>
tetradecyl (E)-3-(4-hydroxy-3-methoxyphenyl)prop-2-enoate

>  <PUBCHEM_IUPAC_SYSTEMATIC_NAME>
tetradecyl (E)-3-(3-methoxy-4-oxidanyl-phenyl)prop-2-enoate

>  <PUBCHEM_IUPAC_TRADITIONAL_NAME>
(E)-3-(4-hydroxy-3-methoxy-phenyl)acrylic acid myristyl ester

>  <PUBCHEM_IUPAC_INCHI>
InChI=1S/C24H38O4/c1-3-4-5-6-7-8-9-10-11-12-13-14-19-28-24(26)18-16-21-15-17-22(25)23(20-21)27-2/h15-18,20,25H,3-14,19H2,1-2H3/b18-16+

>  <PUBCHEM_IUPAC_INCHIKEY>
ORLGRYVAVYRPCN-FBMGVBCBSA-N

>  <PUBCHEM_XLOGP3>
8.5

>  <PUBCHEM_EXACT_MASS>
390.277

>  <PUBCHEM_MOLECULAR_FORMULA>
C24H38O4

>  <PUBCHEM_MOLECULAR_WEIGHT>
390.564

>  <PUBCHEM_OPENEYE_CAN_SMILES>
CCCCCCCCCCCCCCOC(=O)C=CC1=CC(=C(C=C1)O)OC

>  <PUBCHEM_OPENEYE_ISO_SMILES>
CCCCCCCCCCCCCCOC(=O)/C=C/C1=CC(=C(C=C1)O)OC

>  <PUBCHEM_CACTVS_TPSA>
55.8

>  <PUBCHEM_MONOISOTOPIC_WEIGHT>
390.277

>  <PUBCHEM_TOTAL_CHARGE>
0

>  <PUBCHEM_HEAVY_ATOM_COUNT>
28

>  <PUBCHEM_ATOM_DEF_STEREO_COUNT>
0

>  <PUBCHEM_ATOM_UDEF_STEREO_COUNT>
0

>  <PUBCHEM_BOND_DEF_STEREO_COUNT>
1

>  <PUBCHEM_BOND_UDEF_STEREO_COUNT>
0

>  <PUBCHEM_ISOTOPIC_ATOM_COUNT>
0

>  <PUBCHEM_COMPONENT_COUNT>
1

>  <PUBCHEM_CACTVS_TAUTO_COUNT>
5

>  <PUBCHEM_COORDINATE_TYPE>
1
5
255

>  <PUBCHEM_BONDANNOTATIONS>
22  23  8
22  24  8
23  25  8
24  26  8
25  27  8
26  27  8

$$$$
