10381448
 OpenBabel06101807152D

 42 44  0  0  0  0  0  0  0  0999 V2000
    2.5369   -0.7351    0.0000 O   0  0  0  0  0  0  0  0  0  0  0  0
    9.3274    0.6388    0.0000 O   0  0  0  0  0  0  0  0  0  0  0  0
   12.6201   -0.4374    0.0000 O   0  0  0  0  0  0  0  0  0  0  0  0
    6.0812   -2.5398    0.0000 N   0  0  0  0  0  0  0  0  0  0  0  0
    7.6811    1.1769    0.0000 N   0  0  0  0  0  0  0  0  0  0  0  0
    6.0812   -0.9304    0.0000 C   0  0  0  0  0  0  0  0  0  0  0  0
    5.1350   -1.2351    0.0000 C   0  0  0  0  0  0  0  0  0  0  0  0
    6.3919    0.0201    0.0000 C   0  0  0  0  0  0  0  0  0  0  0  0
    5.1350   -2.2351    0.0000 C   0  0  0  0  0  0  0  0  0  0  0  0
    6.6648   -1.7351    0.0000 C   0  0  0  0  0  0  0  0  0  0  0  0
    7.3704    0.2264    0.0000 C   0  0  0  0  0  0  0  0  0  0  0  0
    4.2690   -0.7351    0.0000 C   0  0  0  0  0  0  0  0  0  0  0  0
    4.2690   -2.7351    0.0000 C   0  0  0  0  0  0  0  0  0  0  0  0
    3.4030   -1.2351    0.0000 C   0  0  0  0  0  0  0  0  0  0  0  0
    3.4030   -2.2351    0.0000 C   0  0  0  0  0  0  0  0  0  0  0  0
    8.6596    1.3831    0.0000 C   0  0  0  0  0  0  0  0  0  0  0  0
    8.9702    2.3336    0.0000 C   0  0  0  0  0  0  0  0  0  0  0  0
   10.6166    1.7955    0.0000 C   0  0  0  0  0  0  0  0  0  0  0  0
    9.9487    2.5398    0.0000 C   0  0  0  0  0  0  0  0  0  0  0  0
   11.5951    2.0018    0.0000 C   0  0  0  0  0  0  0  0  0  0  0  0
   10.3059    0.8450    0.0000 C   0  0  0  0  0  0  0  0  0  0  0  0
   12.2629    1.2575    0.0000 C   0  0  0  0  0  0  0  0  0  0  0  0
   10.9738    0.1007    0.0000 C   0  0  0  0  0  0  0  0  0  0  0  0
   11.9523    0.3069    0.0000 C   0  0  0  0  0  0  0  0  0  0  0  0
    6.3713    0.6398    0.0000 H   0  0  0  0  0  0  0  0  0  0  0  0
    5.7781    0.1075    0.0000 H   0  0  0  0  0  0  0  0  0  0  0  0
    7.3910   -0.3933    0.0000 H   0  0  0  0  0  0  0  0  0  0  0  0
    7.9842    0.1390    0.0000 H   0  0  0  0  0  0  0  0  0  0  0  0
    7.2848   -1.7351    0.0000 H   0  0  0  0  0  0  0  0  0  0  0  0
    6.2738   -3.1292    0.0000 H   0  0  0  0  0  0  0  0  0  0  0  0
    4.2690   -0.1151    0.0000 H   0  0  0  0  0  0  0  0  0  0  0  0
    4.2690   -3.3551    0.0000 H   0  0  0  0  0  0  0  0  0  0  0  0
    2.8660   -2.5451    0.0000 H   0  0  0  0  0  0  0  0  0  0  0  0
    7.2670    1.6384    0.0000 H   0  0  0  0  0  0  0  0  0  0  0  0
    8.5562    2.7951    0.0000 H   0  0  0  0  0  0  0  0  0  0  0  0
    2.0000   -1.0451    0.0000 H   0  0  0  0  0  0  0  0  0  0  0  0
   10.1413    3.1292    0.0000 H   0  0  0  0  0  0  0  0  0  0  0  0
   11.7877    2.5911    0.0000 H   0  0  0  0  0  0  0  0  0  0  0  0
    9.6992    0.7172    0.0000 H   0  0  0  0  0  0  0  0  0  0  0  0
   12.8696    1.3853    0.0000 H   0  0  0  0  0  0  0  0  0  0  0  0
   10.7812   -0.4886    0.0000 H   0  0  0  0  0  0  0  0  0  0  0  0
   13.2268   -0.3095    0.0000 H   0  0  0  0  0  0  0  0  0  0  0  0
  1 14  1  0  0  0  0
  1 36  1  0  0  0  0
  2 16  2  0  0  0  0
  3 24  1  0  0  0  0
  3 42  1  0  0  0  0
  4  9  1  0  0  0  0
  4 10  1  0  0  0  0
  4 30  1  0  0  0  0
  5 11  1  0  0  0  0
  5 16  1  0  0  0  0
  5 34  1  0  0  0  0
  6  7  1  0  0  0  0
  6  8  1  0  0  0  0
  6 10  2  0  0  0  0
  7  9  2  0  0  0  0
  7 12  1  0  0  0  0
  8 11  1  0  0  0  0
  8 25  1  0  0  0  0
  8 26  1  0  0  0  0
  9 13  1  0  0  0  0
 10 29  1  0  0  0  0
 11 27  1  0  0  0  0
 11 28  1  0  0  0  0
 12 14  2  0  0  0  0
 12 31  1  0  0  0  0
 13 15  2  0  0  0  0
 13 32  1  0  0  0  0
 14 15  1  0  0  0  0
 15 33  1  0  0  0  0
 16 17  1  0  0  0  0
 17 19  2  0  0  0  0
 17 35  1  0  0  0  0
 18 19  1  0  0  0  0
 18 20  2  0  0  0  0
 18 21  1  0  0  0  0
 19 37  1  0  0  0  0
 20 22  1  0  0  0  0
 20 38  1  0  0  0  0
 21 23  2  0  0  0  0
 21 39  1  0  0  0  0
 22 24  2  0  0  0  0
 22 40  1  0  0  0  0
 23 24  1  0  0  0  0
 23 41  1  0  0  0  0
M  END
>  <PUBCHEM_COMPOUND_CID>
10381448

>  <PUBCHEM_COMPOUND_CANONICALIZED>
1

>  <PUBCHEM_CACTVS_COMPLEXITY>
446

>  <PUBCHEM_CACTVS_HBOND_ACCEPTOR>
3

>  <PUBCHEM_CACTVS_HBOND_DONOR>
4

>  <PUBCHEM_CACTVS_ROTATABLE_BOND>
5

>  <PUBCHEM_CACTVS_SUBSKEYS>
AAADceB7MAAAAAAAAAAAAAAAAAAAAWAAAAAwYAAAAAAAAFgB9AAAHgAQCAAADAzBngQ8xvLJkgCoAzV3VACCgCAxIiAI2aA+bNgIJuLCkZOEcAhk1hHI2Yew0PIOoEABAAACAABAgAIAAAQAAAAAAAAAAA==

>  <PUBCHEM_IUPAC_OPENEYE_NAME>
(Z)-N-[2-(5-hydroxy-1H-indol-3-yl)ethyl]-3-(4-hydroxyphenyl)prop-2-enamide

>  <PUBCHEM_IUPAC_CAS_NAME>
(Z)-N-[2-(5-hydroxy-1H-indol-3-yl)ethyl]-3-(4-hydroxyphenyl)-2-propenamide

>  <PUBCHEM_IUPAC_NAME>
(Z)-N-[2-(5-hydroxy-1H-indol-3-yl)ethyl]-3-(4-hydroxyphenyl)prop-2-enamide

>  <PUBCHEM_IUPAC_SYSTEMATIC_NAME>
(Z)-3-(4-hydroxyphenyl)-N-[2-(5-oxidanyl-1H-indol-3-yl)ethyl]prop-2-enamide

>  <PUBCHEM_IUPAC_TRADITIONAL_NAME>
(Z)-N-[2-(5-hydroxy-1H-indol-3-yl)ethyl]-3-(4-hydroxyphenyl)acrylamide

>  <PUBCHEM_IUPAC_INCHI>
InChI=1S/C19H18N2O3/c22-15-4-1-13(2-5-15)3-8-19(24)20-10-9-14-12-21-18-7-6-16(23)11-17(14)18/h1-8,11-12,21-23H,9-10H2,(H,20,24)/b8-3-

>  <PUBCHEM_IUPAC_INCHIKEY>
WLZPAFGVOWCVMG-BAQGIRSFSA-N

>  <PUBCHEM_XLOGP3>
2.2

>  <PUBCHEM_EXACT_MASS>
322.132

>  <PUBCHEM_MOLECULAR_FORMULA>
C19H18N2O3

>  <PUBCHEM_MOLECULAR_WEIGHT>
322.364

>  <PUBCHEM_OPENEYE_CAN_SMILES>
C1=CC(=CC=C1C=CC(=O)NCCC2=CNC3=C2C=C(C=C3)O)O

>  <PUBCHEM_OPENEYE_ISO_SMILES>
C1=CC(=CC=C1/C=C\C(=O)NCCC2=CNC3=C2C=C(C=C3)O)O

>  <PUBCHEM_CACTVS_TPSA>
85.4

>  <PUBCHEM_MONOISOTOPIC_WEIGHT>
322.132

>  <PUBCHEM_TOTAL_CHARGE>
0

>  <PUBCHEM_HEAVY_ATOM_COUNT>
24

>  <PUBCHEM_ATOM_DEF_STEREO_COUNT>
0

>  <PUBCHEM_ATOM_UDEF_STEREO_COUNT>
0

>  <PUBCHEM_BOND_DEF_STEREO_COUNT>
1

>  <PUBCHEM_BOND_UDEF_STEREO_COUNT>
0

>  <PUBCHEM_ISOTOPIC_ATOM_COUNT>
0

>  <PUBCHEM_COMPONENT_COUNT>
1

>  <PUBCHEM_CACTVS_TAUTO_COUNT>
63

>  <PUBCHEM_COORDINATE_TYPE>
1
5
255

>  <PUBCHEM_BONDANNOTATIONS>
12  14  8
13  15  8
14  15  8
18  20  8
18  21  8
20  22  8
21  23  8
22  24  8
23  24  8
4  10  8
4  9  8
6  10  8
6  7  8
7  12  8
7  9  8
9  13  8

$$$$
