10398072
 OpenBabel06101807152D

 33 33  0  0  0  0  0  0  0  0999 V2000
    3.4030    1.4050    0.0000 O   0  0  0  0  0  0  0  0  0  0  0  0
    2.5369   -4.0950    0.0000 O   0  0  0  0  0  0  0  0  0  0  0  0
    3.4030   -1.5950    0.0000 C   0  0  0  0  0  0  0  0  0  0  0  0
    3.4030   -2.5950    0.0000 C   0  0  0  0  0  0  0  0  0  0  0  0
    4.2690   -1.0950    0.0000 C   0  0  0  0  0  0  0  0  0  0  0  0
    2.5369   -1.0950    0.0000 C   0  0  0  0  0  0  0  0  0  0  0  0
    3.4030    0.4050    0.0000 C   0  0  0  0  0  0  0  0  0  0  0  0
    2.5369   -3.0950    0.0000 C   0  0  0  0  0  0  0  0  0  0  0  0
    4.2690   -0.0950    0.0000 C   0  0  0  0  0  0  0  0  0  0  0  0
    2.5369   -0.0950    0.0000 C   0  0  0  0  0  0  0  0  0  0  0  0
    4.2690    1.9050    0.0000 C   0  0  0  0  0  0  0  0  0  0  0  0
    4.2690    2.9050    0.0000 C   0  0  0  0  0  0  0  0  0  0  0  0
    5.1350    3.4050    0.0000 C   0  0  0  0  0  0  0  0  0  0  0  0
    5.1350    4.4050    0.0000 C   0  0  0  0  0  0  0  0  0  0  0  0
    6.0010    2.9050    0.0000 C   0  0  0  0  0  0  0  0  0  0  0  0
    3.6150   -3.1776    0.0000 H   0  0  0  0  0  0  0  0  0  0  0  0
    4.0135   -2.4873    0.0000 H   0  0  0  0  0  0  0  0  0  0  0  0
    4.8059   -1.4050    0.0000 H   0  0  0  0  0  0  0  0  0  0  0  0
    2.0000   -1.4050    0.0000 H   0  0  0  0  0  0  0  0  0  0  0  0
    2.3249   -2.5124    0.0000 H   0  0  0  0  0  0  0  0  0  0  0  0
    1.9264   -3.2027    0.0000 H   0  0  0  0  0  0  0  0  0  0  0  0
    4.8059    0.2150    0.0000 H   0  0  0  0  0  0  0  0  0  0  0  0
    2.0000    0.2150    0.0000 H   0  0  0  0  0  0  0  0  0  0  0  0
    4.4810    1.3224    0.0000 H   0  0  0  0  0  0  0  0  0  0  0  0
    4.8796    2.0127    0.0000 H   0  0  0  0  0  0  0  0  0  0  0  0
    3.7320    3.2150    0.0000 H   0  0  0  0  0  0  0  0  0  0  0  0
    5.6910    2.3681    0.0000 H   0  0  0  0  0  0  0  0  0  0  0  0
    6.5380    2.5950    0.0000 H   0  0  0  0  0  0  0  0  0  0  0  0
    6.3110    3.4419    0.0000 H   0  0  0  0  0  0  0  0  0  0  0  0
    5.7550    4.4050    0.0000 H   0  0  0  0  0  0  0  0  0  0  0  0
    5.1350    5.0250    0.0000 H   0  0  0  0  0  0  0  0  0  0  0  0
    4.5150    4.4050    0.0000 H   0  0  0  0  0  0  0  0  0  0  0  0
    2.0000   -4.4050    0.0000 H   0  0  0  0  0  0  0  0  0  0  0  0
  1  7  1  0  0  0  0
  1 11  1  0  0  0  0
  2  8  1  0  0  0  0
  2 33  1  0  0  0  0
  3  4  1  0  0  0  0
  3  5  2  0  0  0  0
  3  6  1  0  0  0  0
  4  8  1  0  0  0  0
  4 16  1  0  0  0  0
  4 17  1  0  0  0  0
  5  9  1  0  0  0  0
  5 18  1  0  0  0  0
  6 10  2  0  0  0  0
  6 19  1  0  0  0  0
  7  9  2  0  0  0  0
  7 10  1  0  0  0  0
  8 20  1  0  0  0  0
  8 21  1  0  0  0  0
  9 22  1  0  0  0  0
 10 23  1  0  0  0  0
 11 12  1  0  0  0  0
 11 24  1  0  0  0  0
 11 25  1  0  0  0  0
 12 13  2  0  0  0  0
 12 26  1  0  0  0  0
 13 14  1  0  0  0  0
 13 15  1  0  0  0  0
 14 30  1  0  0  0  0
 14 31  1  0  0  0  0
 14 32  1  0  0  0  0
 15 27  1  0  0  0  0
 15 28  1  0  0  0  0
 15 29  1  0  0  0  0
M  END
>  <PUBCHEM_COMPOUND_CID>
10398072

>  <PUBCHEM_COMPOUND_CANONICALIZED>
1

>  <PUBCHEM_CACTVS_COMPLEXITY>
187

>  <PUBCHEM_CACTVS_HBOND_ACCEPTOR>
2

>  <PUBCHEM_CACTVS_HBOND_DONOR>
1

>  <PUBCHEM_CACTVS_ROTATABLE_BOND>
5

>  <PUBCHEM_CACTVS_SUBSKEYS>
AAADceBwMAAAAAAAAAAAAAAAAAAAAAAAAAAwAAAAAAAAAAABAAAAGgAACAAADASgmAIyBoAABgCAAiBCAAACCAAgIAAIiAAGCIgMNiKEMRqCeCCkwBEIqAeAwKAOIAAAAAAAAABAAAAAAAAAAAAAAAAAAA==

>  <PUBCHEM_IUPAC_OPENEYE_NAME>
2-[4-(3-methylbut-2-enoxy)phenyl]ethanol

>  <PUBCHEM_IUPAC_CAS_NAME>
2-[4-(3-methylbut-2-enoxy)phenyl]ethanol

>  <PUBCHEM_IUPAC_NAME>
2-[4-(3-methylbut-2-enoxy)phenyl]ethanol

>  <PUBCHEM_IUPAC_SYSTEMATIC_NAME>
2-[4-(3-methylbut-2-enoxy)phenyl]ethanol

>  <PUBCHEM_IUPAC_TRADITIONAL_NAME>
2-[4-(3-methylbut-2-enoxy)phenyl]ethanol

>  <PUBCHEM_IUPAC_INCHI>
InChI=1S/C13H18O2/c1-11(2)8-10-15-13-5-3-12(4-6-13)7-9-14/h3-6,8,14H,7,9-10H2,1-2H3

>  <PUBCHEM_IUPAC_INCHIKEY>
IBVFUNAQXWFZQB-UHFFFAOYSA-N

>  <PUBCHEM_XLOGP3_AA>
3

>  <PUBCHEM_EXACT_MASS>
206.131

>  <PUBCHEM_MOLECULAR_FORMULA>
C13H18O2

>  <PUBCHEM_MOLECULAR_WEIGHT>
206.285

>  <PUBCHEM_OPENEYE_CAN_SMILES>
CC(=CCOC1=CC=C(C=C1)CCO)C

>  <PUBCHEM_OPENEYE_ISO_SMILES>
CC(=CCOC1=CC=C(C=C1)CCO)C

>  <PUBCHEM_CACTVS_TPSA>
29.5

>  <PUBCHEM_MONOISOTOPIC_WEIGHT>
206.131

>  <PUBCHEM_TOTAL_CHARGE>
0

>  <PUBCHEM_HEAVY_ATOM_COUNT>
15

>  <PUBCHEM_ATOM_DEF_STEREO_COUNT>
0

>  <PUBCHEM_ATOM_UDEF_STEREO_COUNT>
0

>  <PUBCHEM_BOND_DEF_STEREO_COUNT>
0

>  <PUBCHEM_BOND_UDEF_STEREO_COUNT>
0

>  <PUBCHEM_ISOTOPIC_ATOM_COUNT>
0

>  <PUBCHEM_COMPONENT_COUNT>
1

>  <PUBCHEM_CACTVS_TAUTO_COUNT>
1

>  <PUBCHEM_COORDINATE_TYPE>
1
5
255

>  <PUBCHEM_BONDANNOTATIONS>
3  5  8
3  6  8
5  9  8
6  10  8
7  10  8
7  9  8

$$$$
