10392063
 OpenBabel06101807152D

 69 71  0  0  1  0  0  0  0  0999 V2000
    5.1350   -1.1440    0.0000 O   0  0  0  0  0  0  0  0  0  0  0  0
    6.8671   -1.1440    0.0000 O   0  0  0  0  0  0  0  0  0  0  0  0
    5.1350   -4.1440    0.0000 O   0  0  0  0  0  0  0  0  0  0  0  0
    3.4030   -3.1440    0.0000 O   0  0  0  0  0  0  0  0  0  0  0  0
    6.8671   -3.1440    0.0000 O   0  0  0  0  0  0  0  0  0  0  0  0
    6.0010    0.3560    0.0000 O   0  0  0  0  0  0  0  0  0  0  0  0
    2.5369   -1.6440    0.0000 O   0  0  0  0  0  0  0  0  0  0  0  0
   10.0991    2.7220    0.0000 O   0  0  0  0  0  0  0  0  0  0  0  0
    6.0010    3.3560    0.0000 O   0  0  0  0  0  0  0  0  0  0  0  0
   10.0991    0.9899    0.0000 O   0  0  0  0  0  0  0  0  0  0  0  0
    7.7331    3.3560    0.0000 O   0  0  0  0  0  0  0  0  0  0  0  0
   15.5991    3.5880    0.0000 O   0  0  0  0  0  0  0  0  0  0  0  0
    5.1350   -3.1440    0.0000 C   0  0  1  0  0  0  0  0  0  0  0  0
    4.2690   -2.6440    0.0000 C   0  0  1  0  0  0  0  0  0  0  0  0
    6.0010   -2.6440    0.0000 C   0  0  2  0  0  0  0  0  0  0  0  0
    4.2690   -1.6440    0.0000 C   0  0  1  0  0  0  0  0  0  0  0  0
    6.0010   -1.6440    0.0000 C   0  0  1  0  0  0  0  0  0  0  0  0
    3.4030   -1.1440    0.0000 C   0  0  0  0  0  0  0  0  0  0  0  0
    6.8671   -0.1440    0.0000 C   0  0  2  0  0  0  0  0  0  0  0  0
    7.7331    1.3560    0.0000 C   0  0  1  0  0  0  0  0  0  0  0  0
    7.7331    0.3560    0.0000 C   0  0  0  0  0  0  0  0  0  0  0  0
    6.8671    1.8560    0.0000 C   0  0  0  0  0  0  0  0  0  0  0  0
    8.5991    1.8560    0.0000 C   0  0  0  0  0  0  0  0  0  0  0  0
    6.0010    1.3560    0.0000 C   0  0  0  0  0  0  0  0  0  0  0  0
    8.5991   -0.1440    0.0000 C   0  0  0  0  0  0  0  0  0  0  0  0
    9.5991    1.8560    0.0000 C   0  0  0  0  0  0  0  0  0  0  0  0
    6.8671    2.8560    0.0000 C   0  0  0  0  0  0  0  0  0  0  0  0
    8.5991   -1.1440    0.0000 C   0  0  0  0  0  0  0  0  0  0  0  0
   11.0991    2.7220    0.0000 C   0  0  0  0  0  0  0  0  0  0  0  0
   11.5991    3.5880    0.0000 C   0  0  0  0  0  0  0  0  0  0  0  0
    6.0010    4.3560    0.0000 C   0  0  0  0  0  0  0  0  0  0  0  0
   12.5991    3.5880    0.0000 C   0  0  0  0  0  0  0  0  0  0  0  0
   13.0991    4.4540    0.0000 C   0  0  0  0  0  0  0  0  0  0  0  0
   13.0991    2.7220    0.0000 C   0  0  0  0  0  0  0  0  0  0  0  0
   14.0991    4.4540    0.0000 C   0  0  0  0  0  0  0  0  0  0  0  0
   14.0991    2.7220    0.0000 C   0  0  0  0  0  0  0  0  0  0  0  0
   14.5991    3.5880    0.0000 C   0  0  0  0  0  0  0  0  0  0  0  0
    5.6720   -3.4540    0.0000 H   0  0  0  0  0  0  0  0  0  0  0  0
    4.2690   -3.2640    0.0000 H   0  0  0  0  0  0  0  0  0  0  0  0
    6.5380   -2.3340    0.0000 H   0  0  0  0  0  0  0  0  0  0  0  0
    4.2690   -1.0240    0.0000 H   0  0  0  0  0  0  0  0  0  0  0  0
    6.0010   -1.0240    0.0000 H   0  0  0  0  0  0  0  0  0  0  0  0
    3.8015   -0.6691    0.0000 H   0  0  0  0  0  0  0  0  0  0  0  0
    3.0044   -0.6691    0.0000 H   0  0  0  0  0  0  0  0  0  0  0  0
    7.4040   -0.4540    0.0000 H   0  0  0  0  0  0  0  0  0  0  0  0
    8.2700    1.0460    0.0000 H   0  0  0  0  0  0  0  0  0  0  0  0
    4.5981   -4.4540    0.0000 H   0  0  0  0  0  0  0  0  0  0  0  0
    3.4030   -3.7640    0.0000 H   0  0  0  0  0  0  0  0  0  0  0  0
    6.8671   -3.7640    0.0000 H   0  0  0  0  0  0  0  0  0  0  0  0
    8.8112    2.4386    0.0000 H   0  0  0  0  0  0  0  0  0  0  0  0
    8.7596    1.2571    0.0000 H   0  0  0  0  0  0  0  0  0  0  0  0
    5.4641    1.6660    0.0000 H   0  0  0  0  0  0  0  0  0  0  0  0
    9.2191   -0.1440    0.0000 H   0  0  0  0  0  0  0  0  0  0  0  0
    2.0000   -1.3340    0.0000 H   0  0  0  0  0  0  0  0  0  0  0  0
    7.9791   -1.1440    0.0000 H   0  0  0  0  0  0  0  0  0  0  0  0
    8.5991   -1.7640    0.0000 H   0  0  0  0  0  0  0  0  0  0  0  0
    9.2191   -1.1440    0.0000 H   0  0  0  0  0  0  0  0  0  0  0  0
   10.9915    2.1114    0.0000 H   0  0  0  0  0  0  0  0  0  0  0  0
   11.6817    2.5099    0.0000 H   0  0  0  0  0  0  0  0  0  0  0  0
   11.7068    4.1986    0.0000 H   0  0  0  0  0  0  0  0  0  0  0  0
   11.0165    3.8001    0.0000 H   0  0  0  0  0  0  0  0  0  0  0  0
    6.6210    4.3560    0.0000 H   0  0  0  0  0  0  0  0  0  0  0  0
    6.0010    4.9760    0.0000 H   0  0  0  0  0  0  0  0  0  0  0  0
    5.3810    4.3560    0.0000 H   0  0  0  0  0  0  0  0  0  0  0  0
   12.7891    4.9910    0.0000 H   0  0  0  0  0  0  0  0  0  0  0  0
   12.7891    2.1850    0.0000 H   0  0  0  0  0  0  0  0  0  0  0  0
   14.4091    4.9910    0.0000 H   0  0  0  0  0  0  0  0  0  0  0  0
   14.4091    2.1850    0.0000 H   0  0  0  0  0  0  0  0  0  0  0  0
   15.9091    4.1250    0.0000 H   0  0  0  0  0  0  0  0  0  0  0  0
  1 16  1  0  0  0  0
  1 17  1  0  0  0  0
  3 47  1  0  0  0  0
  4 48  1  0  0  0  0
  5 49  1  0  0  0  0
  6 19  1  0  0  0  0
  6 24  1  0  0  0  0
  7 18  1  0  0  0  0
  7 54  1  0  0  0  0
  8 26  1  0  0  0  0
  8 29  1  0  0  0  0
  9 27  1  0  0  0  0
  9 31  1  0  0  0  0
 10 26  2  0  0  0  0
 11 27  2  0  0  0  0
 12 37  1  0  0  0  0
 12 69  1  0  0  0  0
 13  3  1  0  0  0  0
 13 14  1  6  0  0  0
 13 38  1  0  0  0  0
 14  4  1  0  0  0  0
 14 16  1  1  0  0  0
 14 39  1  0  0  0  0
 15  5  1  0  0  0  0
 15 13  1  1  0  0  0
 15 40  1  0  0  0  0
 16 18  1  0  0  0  0
 16 41  1  6  0  0  0
 17  2  1  0  0  0  0
 17 15  1  6  0  0  0
 17 42  1  0  0  0  0
 18 43  1  0  0  0  0
 18 44  1  0  0  0  0
 19  2  1  0  0  0  0
 19 21  1  0  0  0  0
 19 45  1  1  0  0  0
 20 21  1  0  0  0  0
 20 22  1  0  0  0  0
 20 23  1  0  0  0  0
 20 46  1  6  0  0  0
 21 25  2  0  0  0  0
 22 24  2  0  0  0  0
 22 27  1  0  0  0  0
 23 26  1  0  0  0  0
 23 50  1  0  0  0  0
 23 51  1  0  0  0  0
 24 52  1  0  0  0  0
 25 28  1  0  0  0  0
 25 53  1  0  0  0  0
 28 55  1  0  0  0  0
 28 56  1  0  0  0  0
 28 57  1  0  0  0  0
 29 30  1  0  0  0  0
 29 58  1  0  0  0  0
 29 59  1  0  0  0  0
 30 32  1  0  0  0  0
 30 60  1  0  0  0  0
 30 61  1  0  0  0  0
 31 62  1  0  0  0  0
 31 63  1  0  0  0  0
 31 64  1  0  0  0  0
 32 33  2  0  0  0  0
 32 34  1  0  0  0  0
 33 35  1  0  0  0  0
 33 65  1  0  0  0  0
 34 36  2  0  0  0  0
 34 66  1  0  0  0  0
 35 37  2  0  0  0  0
 35 67  1  0  0  0  0
 36 37  1  0  0  0  0
 36 68  1  0  0  0  0
M  END
>  <PUBCHEM_COMPOUND_CID>
10392063

>  <PUBCHEM_COMPOUND_CANONICALIZED>
1

>  <PUBCHEM_CACTVS_COMPLEXITY>
834

>  <PUBCHEM_CACTVS_HBOND_ACCEPTOR>
12

>  <PUBCHEM_CACTVS_HBOND_DONOR>
5

>  <PUBCHEM_CACTVS_ROTATABLE_BOND>
11

>  <PUBCHEM_CACTVS_SUBSKEYS>
AAADcfB4PAAAAAAAAAAAAAAAAAAAAAAAAAA0QIAAAAAAAAABAAAAGgAACAAADRSwmAMyDoAABgCIAiDSCAACCAAgIAAIiAEGCMgZNjKCMRKicAAlwBEPuIfI5qwOIAAAAAAAAABAAAAAAAAAAAAAAAAAAA==

>  <PUBCHEM_IUPAC_OPENEYE_NAME>
methyl (4S,5Z,6S)-5-ethylidene-4-[2-[2-(4-hydroxyphenyl)ethoxy]-2-oxo-ethyl]-6-[(2S,3R,4S,5S,6R)-3,4,5-trihydroxy-6-(hydroxymethyl)tetrahydropyran-2-yl]oxy-4H-pyran-3-carboxylate

>  <PUBCHEM_IUPAC_CAS_NAME>
(4S,5Z,6S)-5-ethylidene-4-[2-[2-(4-hydroxyphenyl)ethoxy]-2-oxoethyl]-6-[[(2S,3R,4S,5S,6R)-3,4,5-trihydroxy-6-(hydroxymethyl)-2-oxanyl]oxy]-4H-pyran-3-carboxylic acid methyl ester

>  <PUBCHEM_IUPAC_NAME>
methyl (4S,5Z,6S)-5-ethylidene-4-[2-[2-(4-hydroxyphenyl)ethoxy]-2-oxoethyl]-6-[(2S,3R,4S,5S,6R)-3,4,5-trihydroxy-6-(hydroxymethyl)oxan-2-yl]oxy-4H-pyran-3-carboxylate

>  <PUBCHEM_IUPAC_SYSTEMATIC_NAME>
methyl (4S,5Z,6S)-5-ethylidene-6-[(2S,3R,4S,5S,6R)-6-(hydroxymethyl)-3,4,5-tris(oxidanyl)oxan-2-yl]oxy-4-[2-[2-(4-hydroxyphenyl)ethoxy]-2-oxidanylidene-ethyl]-4H-pyran-3-carboxylate

>  <PUBCHEM_IUPAC_TRADITIONAL_NAME>
(4S,5Z,6S)-5-ethylidene-4-[2-[2-(4-hydroxyphenyl)ethoxy]-2-keto-ethyl]-6-[(2S,3R,4S,5S,6R)-3,4,5-trihydroxy-6-methylol-tetrahydropyran-2-yl]oxy-4H-pyran-3-carboxylic acid methyl ester

>  <PUBCHEM_IUPAC_INCHI>
InChI=1S/C25H32O12/c1-3-15-16(10-19(28)34-9-8-13-4-6-14(27)7-5-13)17(23(32)33-2)12-35-24(15)37-25-22(31)21(30)20(29)18(11-26)36-25/h3-7,12,16,18,20-22,24-27,29-31H,8-11H2,1-2H3/b15-3-/t16-,18+,20+,21-,22+,24-,25-/m0/s1

>  <PUBCHEM_IUPAC_INCHIKEY>
GMQXOLRKJQWPNB-FAWHCFPASA-N

>  <PUBCHEM_XLOGP3_AA>
-0.1

>  <PUBCHEM_EXACT_MASS>
524.189

>  <PUBCHEM_MOLECULAR_FORMULA>
C25H32O12

>  <PUBCHEM_MOLECULAR_WEIGHT>
524.519

>  <PUBCHEM_OPENEYE_CAN_SMILES>
CC=C1C(C(=COC1OC2C(C(C(C(O2)CO)O)O)O)C(=O)OC)CC(=O)OCCC3=CC=C(C=C3)O

>  <PUBCHEM_OPENEYE_ISO_SMILES>
C/C=C\1/[C@@H](C(=CO[C@H]1O[C@H]2[C@@H]([C@H]([C@@H]([C@H](O2)CO)O)O)O)C(=O)OC)CC(=O)OCCC3=CC=C(C=C3)O

>  <PUBCHEM_CACTVS_TPSA>
181

>  <PUBCHEM_MONOISOTOPIC_WEIGHT>
524.189

>  <PUBCHEM_TOTAL_CHARGE>
0

>  <PUBCHEM_HEAVY_ATOM_COUNT>
37

>  <PUBCHEM_ATOM_DEF_STEREO_COUNT>
7

>  <PUBCHEM_ATOM_UDEF_STEREO_COUNT>
0

>  <PUBCHEM_BOND_DEF_STEREO_COUNT>
1

>  <PUBCHEM_BOND_UDEF_STEREO_COUNT>
0

>  <PUBCHEM_ISOTOPIC_ATOM_COUNT>
0

>  <PUBCHEM_COMPONENT_COUNT>
1

>  <PUBCHEM_CACTVS_TAUTO_COUNT>
2

>  <PUBCHEM_COORDINATE_TYPE>
1
5
255

>  <PUBCHEM_BONDANNOTATIONS>
16  18  5
17  2  5
19  2  6
20  23  5
13  3  5
32  33  8
32  34  8
33  35  8
34  36  8
35  37  8
36  37  8
14  4  6
15  5  6

$$$$
