10449654
 OpenBabel06101807152D

 41 44  0  0  0  0  0  0  0  0999 V2000
    3.9061   -0.9226    0.0000 O   0  0  0  0  0  0  0  0  0  0  0  0
    7.4260   -0.9226    0.0000 O   0  0  0  0  0  0  0  0  0  0  0  0
    5.6660    2.1121    0.0000 O   0  0  0  0  0  0  0  0  0  0  0  0
    7.4144    2.1467    0.0000 O   0  0  0  0  0  0  0  0  0  0  0  0
   11.7884   -2.4221    0.0000 O   0  0  0  0  0  0  0  0  0  0  0  0
    3.0000   -0.4087    0.0000 C   0  0  0  0  0  0  0  0  0  0  0  0
    4.8000    0.6121    0.0000 C   0  0  0  0  0  0  0  0  0  0  0  0
    4.8000   -0.3879    0.0000 C   0  0  0  0  0  0  0  0  0  0  0  0
    3.0000    0.6329    0.0000 C   0  0  0  0  0  0  0  0  0  0  0  0
    2.0000   -0.4126    0.0000 C   0  0  0  0  0  0  0  0  0  0  0  0
    2.5033   -1.2767    0.0000 C   0  0  0  0  0  0  0  0  0  0  0  0
    3.9061    1.1467    0.0000 C   0  0  0  0  0  0  0  0  0  0  0  0
    6.5320    0.6121    0.0000 C   0  0  0  0  0  0  0  0  0  0  0  0
    5.6660    1.1121    0.0000 C   0  0  0  0  0  0  0  0  0  0  0  0
    6.5320   -0.3879    0.0000 C   0  0  0  0  0  0  0  0  0  0  0  0
    5.6660   -0.8879    0.0000 C   0  0  0  0  0  0  0  0  0  0  0  0
    7.4260    1.1467    0.0000 C   0  0  0  0  0  0  0  0  0  0  0  0
    8.3321   -0.4087    0.0000 C   0  0  0  0  0  0  0  0  0  0  0  0
    8.3321    0.6329    0.0000 C   0  0  0  0  0  0  0  0  0  0  0  0
    9.1962   -0.9121    0.0000 C   0  0  0  0  0  0  0  0  0  0  0  0
    9.1923   -1.9121    0.0000 C   0  0  0  0  0  0  0  0  0  0  0  0
   10.0641   -0.4154    0.0000 C   0  0  0  0  0  0  0  0  0  0  0  0
   10.0564   -2.4154    0.0000 C   0  0  0  0  0  0  0  0  0  0  0  0
   10.9282   -0.9188    0.0000 C   0  0  0  0  0  0  0  0  0  0  0  0
   10.9243   -1.9187    0.0000 C   0  0  0  0  0  0  0  0  0  0  0  0
    2.4643    0.9450    0.0000 H   0  0  0  0  0  0  0  0  0  0  0  0
    3.9132    1.7667    0.0000 H   0  0  0  0  0  0  0  0  0  0  0  0
    1.9976    0.2074    0.0000 H   0  0  0  0  0  0  0  0  0  0  0  0
    1.3800   -0.4150    0.0000 H   0  0  0  0  0  0  0  0  0  0  0  0
    1.9652   -0.9688    0.0000 H   0  0  0  0  0  0  0  0  0  0  0  0
    2.1954   -1.8148    0.0000 H   0  0  0  0  0  0  0  0  0  0  0  0
    3.0415   -1.5846    0.0000 H   0  0  0  0  0  0  0  0  0  0  0  0
    2.0024   -1.0326    0.0000 H   0  0  0  0  0  0  0  0  0  0  0  0
    5.6660   -1.5079    0.0000 H   0  0  0  0  0  0  0  0  0  0  0  0
    8.8678    0.9450    0.0000 H   0  0  0  0  0  0  0  0  0  0  0  0
    5.1291    2.4221    0.0000 H   0  0  0  0  0  0  0  0  0  0  0  0
    8.6542   -2.2200    0.0000 H   0  0  0  0  0  0  0  0  0  0  0  0
   10.0665    0.2046    0.0000 H   0  0  0  0  0  0  0  0  0  0  0  0
   10.0540   -3.0354    0.0000 H   0  0  0  0  0  0  0  0  0  0  0  0
   11.4663   -0.6108    0.0000 H   0  0  0  0  0  0  0  0  0  0  0  0
   12.3266   -2.1142    0.0000 H   0  0  0  0  0  0  0  0  0  0  0  0
  1  6  1  0  0  0  0
  1  8  1  0  0  0  0
  2 15  1  0  0  0  0
  2 18  1  0  0  0  0
  3 14  1  0  0  0  0
  3 36  1  0  0  0  0
  4 17  2  0  0  0  0
  5 25  1  0  0  0  0
  5 41  1  0  0  0  0
  6  9  1  0  0  0  0
  6 10  1  0  0  0  0
  6 11  1  0  0  0  0
  7  8  2  0  0  0  0
  7 12  1  0  0  0  0
  7 14  1  0  0  0  0
  8 16  1  0  0  0  0
  9 12  2  0  0  0  0
  9 26  1  0  0  0  0
 10 28  1  0  0  0  0
 10 29  1  0  0  0  0
 10 33  1  0  0  0  0
 11 30  1  0  0  0  0
 11 31  1  0  0  0  0
 11 32  1  0  0  0  0
 12 27  1  0  0  0  0
 13 14  2  0  0  0  0
 13 15  1  0  0  0  0
 13 17  1  0  0  0  0
 15 16  2  0  0  0  0
 16 34  1  0  0  0  0
 17 19  1  0  0  0  0
 18 19  2  0  0  0  0
 18 20  1  0  0  0  0
 19 35  1  0  0  0  0
 20 21  2  0  0  0  0
 20 22  1  0  0  0  0
 21 23  1  0  0  0  0
 21 37  1  0  0  0  0
 22 24  2  0  0  0  0
 22 38  1  0  0  0  0
 23 25  2  0  0  0  0
 23 39  1  0  0  0  0
 24 25  1  0  0  0  0
 24 40  1  0  0  0  0
M  END
>  <PUBCHEM_COMPOUND_CID>
10449654

>  <PUBCHEM_COMPOUND_CANONICALIZED>
1

>  <PUBCHEM_CACTVS_COMPLEXITY>
599

>  <PUBCHEM_CACTVS_HBOND_ACCEPTOR>
5

>  <PUBCHEM_CACTVS_HBOND_DONOR>
2

>  <PUBCHEM_CACTVS_ROTATABLE_BOND>
1

>  <PUBCHEM_CACTVS_SUBSKEYS>
AAADceB4OAAAAAAAAAAAAAAAAAAAAAAAAAAwYIEAAAAAAACBQAAAGgAACAAADESAmAAyBoAABgCIAqBSAAACCAAkIAAIiAEGCMgMJzaGNRqCeWCl4BUIuQeI7OzOIAACCAAIAABAAAQQABAAAAAAAAAAAA==

>  <PUBCHEM_IUPAC_OPENEYE_NAME>
5-hydroxy-8-(4-hydroxyphenyl)-2,2-dimethyl-pyrano[3,2-g]chromen-6-one

>  <PUBCHEM_IUPAC_CAS_NAME>
5-hydroxy-8-(4-hydroxyphenyl)-2,2-dimethyl-6-pyrano[3,2-g][1]benzopyranone

>  <PUBCHEM_IUPAC_NAME>
5-hydroxy-8-(4-hydroxyphenyl)-2,2-dimethylpyrano[3,2-g]chromen-6-one

>  <PUBCHEM_IUPAC_SYSTEMATIC_NAME>
8-(4-hydroxyphenyl)-2,2-dimethyl-5-oxidanyl-pyrano[3,2-g]chromen-6-one

>  <PUBCHEM_IUPAC_TRADITIONAL_NAME>
5-hydroxy-8-(4-hydroxyphenyl)-2,2-dimethyl-pyrano[3,2-g]chromen-6-one

>  <PUBCHEM_IUPAC_INCHI>
InChI=1S/C20H16O5/c1-20(2)8-7-13-16(25-20)10-17-18(19(13)23)14(22)9-15(24-17)11-3-5-12(21)6-4-11/h3-10,21,23H,1-2H3

>  <PUBCHEM_IUPAC_INCHIKEY>
YXOATFKTEDZPFL-UHFFFAOYSA-N

>  <PUBCHEM_XLOGP3_AA>
3.9

>  <PUBCHEM_EXACT_MASS>
336.1

>  <PUBCHEM_MOLECULAR_FORMULA>
C20H16O5

>  <PUBCHEM_MOLECULAR_WEIGHT>
336.343

>  <PUBCHEM_OPENEYE_CAN_SMILES>
CC1(C=CC2=C(O1)C=C3C(=C2O)C(=O)C=C(O3)C4=CC=C(C=C4)O)C

>  <PUBCHEM_OPENEYE_ISO_SMILES>
CC1(C=CC2=C(O1)C=C3C(=C2O)C(=O)C=C(O3)C4=CC=C(C=C4)O)C

>  <PUBCHEM_CACTVS_TPSA>
76

>  <PUBCHEM_MONOISOTOPIC_WEIGHT>
336.1

>  <PUBCHEM_TOTAL_CHARGE>
0

>  <PUBCHEM_HEAVY_ATOM_COUNT>
25

>  <PUBCHEM_ATOM_DEF_STEREO_COUNT>
0

>  <PUBCHEM_ATOM_UDEF_STEREO_COUNT>
0

>  <PUBCHEM_BOND_DEF_STEREO_COUNT>
0

>  <PUBCHEM_BOND_UDEF_STEREO_COUNT>
0

>  <PUBCHEM_ISOTOPIC_ATOM_COUNT>
0

>  <PUBCHEM_COMPONENT_COUNT>
1

>  <PUBCHEM_CACTVS_TAUTO_COUNT>
24

>  <PUBCHEM_COORDINATE_TYPE>
1
5
255

>  <PUBCHEM_BONDANNOTATIONS>
13  14  8
13  15  8
13  17  8
15  16  8
17  19  8
18  19  8
2  15  8
2  18  8
20  21  8
20  22  8
21  23  8
22  24  8
23  25  8
24  25  8
7  14  8
7  8  8
8  16  8

$$$$
