10472191
 OpenBabel06101807152D

 45 47  0  0  0  0  0  0  0  0999 V2000
    2.8660   -0.7351    0.0000 O   0  0  0  0  0  0  0  0  0  0  0  0
    9.6565    0.6388    0.0000 O   0  0  0  0  0  0  0  0  0  0  0  0
   12.9492   -0.4374    0.0000 O   0  0  0  0  0  0  0  0  0  0  0  0
    6.4103   -2.5398    0.0000 N   0  0  0  0  0  0  0  0  0  0  0  0
    8.0102    1.1769    0.0000 N   0  0  0  0  0  0  0  0  0  0  0  0
    6.4103   -0.9304    0.0000 C   0  0  0  0  0  0  0  0  0  0  0  0
    5.4641   -1.2351    0.0000 C   0  0  0  0  0  0  0  0  0  0  0  0
    6.7210    0.0201    0.0000 C   0  0  0  0  0  0  0  0  0  0  0  0
    5.4641   -2.2351    0.0000 C   0  0  0  0  0  0  0  0  0  0  0  0
    6.9939   -1.7351    0.0000 C   0  0  0  0  0  0  0  0  0  0  0  0
    7.6995    0.2264    0.0000 C   0  0  0  0  0  0  0  0  0  0  0  0
    4.5981   -0.7351    0.0000 C   0  0  0  0  0  0  0  0  0  0  0  0
    4.5981   -2.7351    0.0000 C   0  0  0  0  0  0  0  0  0  0  0  0
    3.7320   -1.2351    0.0000 C   0  0  0  0  0  0  0  0  0  0  0  0
    3.7320   -2.2351    0.0000 C   0  0  0  0  0  0  0  0  0  0  0  0
    8.9887    1.3831    0.0000 C   0  0  0  0  0  0  0  0  0  0  0  0
    9.2993    2.3336    0.0000 C   0  0  0  0  0  0  0  0  0  0  0  0
    2.0000   -1.2351    0.0000 C   0  0  0  0  0  0  0  0  0  0  0  0
   10.2778    2.5398    0.0000 C   0  0  0  0  0  0  0  0  0  0  0  0
   10.9457    1.7955    0.0000 C   0  0  0  0  0  0  0  0  0  0  0  0
   11.9242    2.0018    0.0000 C   0  0  0  0  0  0  0  0  0  0  0  0
   10.6350    0.8450    0.0000 C   0  0  0  0  0  0  0  0  0  0  0  0
   12.5920    1.2575    0.0000 C   0  0  0  0  0  0  0  0  0  0  0  0
   11.3029    0.1007    0.0000 C   0  0  0  0  0  0  0  0  0  0  0  0
   12.2814    0.3069    0.0000 C   0  0  0  0  0  0  0  0  0  0  0  0
    6.7004    0.6398    0.0000 H   0  0  0  0  0  0  0  0  0  0  0  0
    6.1072    0.1075    0.0000 H   0  0  0  0  0  0  0  0  0  0  0  0
    7.6139   -1.7351    0.0000 H   0  0  0  0  0  0  0  0  0  0  0  0
    7.7201   -0.3933    0.0000 H   0  0  0  0  0  0  0  0  0  0  0  0
    8.3133    0.1390    0.0000 H   0  0  0  0  0  0  0  0  0  0  0  0
    6.6029   -3.1292    0.0000 H   0  0  0  0  0  0  0  0  0  0  0  0
    4.5981   -0.1151    0.0000 H   0  0  0  0  0  0  0  0  0  0  0  0
    4.5981   -3.3551    0.0000 H   0  0  0  0  0  0  0  0  0  0  0  0
    3.1951   -2.5451    0.0000 H   0  0  0  0  0  0  0  0  0  0  0  0
    7.5961    1.6384    0.0000 H   0  0  0  0  0  0  0  0  0  0  0  0
    8.8853    2.7951    0.0000 H   0  0  0  0  0  0  0  0  0  0  0  0
   10.4704    3.1292    0.0000 H   0  0  0  0  0  0  0  0  0  0  0  0
    1.6900   -0.6982    0.0000 H   0  0  0  0  0  0  0  0  0  0  0  0
    1.4631   -1.5451    0.0000 H   0  0  0  0  0  0  0  0  0  0  0  0
    2.3100   -1.7720    0.0000 H   0  0  0  0  0  0  0  0  0  0  0  0
   12.1168    2.5911    0.0000 H   0  0  0  0  0  0  0  0  0  0  0  0
   10.0283    0.7172    0.0000 H   0  0  0  0  0  0  0  0  0  0  0  0
   13.1987    1.3853    0.0000 H   0  0  0  0  0  0  0  0  0  0  0  0
   11.1102   -0.4886    0.0000 H   0  0  0  0  0  0  0  0  0  0  0  0
   13.5559   -0.3095    0.0000 H   0  0  0  0  0  0  0  0  0  0  0  0
  1 14  1  0  0  0  0
  1 18  1  0  0  0  0
  2 16  2  0  0  0  0
  3 25  1  0  0  0  0
  3 45  1  0  0  0  0
  4  9  1  0  0  0  0
  4 10  1  0  0  0  0
  4 31  1  0  0  0  0
  5 11  1  0  0  0  0
  5 16  1  0  0  0  0
  5 35  1  0  0  0  0
  6  7  1  0  0  0  0
  6  8  1  0  0  0  0
  6 10  2  0  0  0  0
  7  9  2  0  0  0  0
  7 12  1  0  0  0  0
  8 11  1  0  0  0  0
  8 26  1  0  0  0  0
  8 27  1  0  0  0  0
  9 13  1  0  0  0  0
 10 28  1  0  0  0  0
 11 29  1  0  0  0  0
 11 30  1  0  0  0  0
 12 14  2  0  0  0  0
 12 32  1  0  0  0  0
 13 15  2  0  0  0  0
 13 33  1  0  0  0  0
 14 15  1  0  0  0  0
 15 34  1  0  0  0  0
 16 17  1  0  0  0  0
 17 19  2  0  0  0  0
 17 36  1  0  0  0  0
 18 38  1  0  0  0  0
 18 39  1  0  0  0  0
 18 40  1  0  0  0  0
 19 20  1  0  0  0  0
 19 37  1  0  0  0  0
 20 21  2  0  0  0  0
 20 22  1  0  0  0  0
 21 23  1  0  0  0  0
 21 41  1  0  0  0  0
 22 24  2  0  0  0  0
 22 42  1  0  0  0  0
 23 25  2  0  0  0  0
 23 43  1  0  0  0  0
 24 25  1  0  0  0  0
 24 44  1  0  0  0  0
M  END
>  <PUBCHEM_COMPOUND_CID>
10472191

>  <PUBCHEM_COMPOUND_CANONICALIZED>
1

>  <PUBCHEM_CACTVS_COMPLEXITY>
460

>  <PUBCHEM_CACTVS_HBOND_ACCEPTOR>
3

>  <PUBCHEM_CACTVS_HBOND_DONOR>
3

>  <PUBCHEM_CACTVS_ROTATABLE_BOND>
6

>  <PUBCHEM_CACTVS_SUBSKEYS>
AAADceB7MAAAAAAAAAAAAAAAAAAAAWAAAAAwYAAAAAAAAFgB9AAAHgAQCAAADAzBngY+xvLJlgCoAzV3VACCiCAxIiAI2aA+bNgMJuLGsZuEcChk1hHI+Yew0PIOoEABAAACAABAgAIAAAQAAAAAAAAAAA==

>  <PUBCHEM_IUPAC_OPENEYE_NAME>
(Z)-3-(4-hydroxyphenyl)-N-[2-(5-methoxy-1H-indol-3-yl)ethyl]prop-2-enamide

>  <PUBCHEM_IUPAC_CAS_NAME>
(Z)-3-(4-hydroxyphenyl)-N-[2-(5-methoxy-1H-indol-3-yl)ethyl]-2-propenamide

>  <PUBCHEM_IUPAC_NAME>
(Z)-3-(4-hydroxyphenyl)-N-[2-(5-methoxy-1H-indol-3-yl)ethyl]prop-2-enamide

>  <PUBCHEM_IUPAC_SYSTEMATIC_NAME>
(Z)-3-(4-hydroxyphenyl)-N-[2-(5-methoxy-1H-indol-3-yl)ethyl]prop-2-enamide

>  <PUBCHEM_IUPAC_TRADITIONAL_NAME>
(Z)-3-(4-hydroxyphenyl)-N-[2-(5-methoxy-1H-indol-3-yl)ethyl]acrylamide

>  <PUBCHEM_IUPAC_INCHI>
InChI=1S/C20H20N2O3/c1-25-17-7-8-19-18(12-17)15(13-22-19)10-11-21-20(24)9-4-14-2-5-16(23)6-3-14/h2-9,12-13,22-23H,10-11H2,1H3,(H,21,24)/b9-4-

>  <PUBCHEM_IUPAC_INCHIKEY>
DAYQHEUNAQSDHV-WTKPLQERSA-N

>  <PUBCHEM_XLOGP3>
2.5

>  <PUBCHEM_EXACT_MASS>
336.147

>  <PUBCHEM_MOLECULAR_FORMULA>
C20H20N2O3

>  <PUBCHEM_MOLECULAR_WEIGHT>
336.391

>  <PUBCHEM_OPENEYE_CAN_SMILES>
COC1=CC2=C(C=C1)NC=C2CCNC(=O)C=CC3=CC=C(C=C3)O

>  <PUBCHEM_OPENEYE_ISO_SMILES>
COC1=CC2=C(C=C1)NC=C2CCNC(=O)/C=C\C3=CC=C(C=C3)O

>  <PUBCHEM_CACTVS_TPSA>
74.4

>  <PUBCHEM_MONOISOTOPIC_WEIGHT>
336.147

>  <PUBCHEM_TOTAL_CHARGE>
0

>  <PUBCHEM_HEAVY_ATOM_COUNT>
25

>  <PUBCHEM_ATOM_DEF_STEREO_COUNT>
0

>  <PUBCHEM_ATOM_UDEF_STEREO_COUNT>
0

>  <PUBCHEM_BOND_DEF_STEREO_COUNT>
1

>  <PUBCHEM_BOND_UDEF_STEREO_COUNT>
0

>  <PUBCHEM_ISOTOPIC_ATOM_COUNT>
0

>  <PUBCHEM_COMPONENT_COUNT>
1

>  <PUBCHEM_CACTVS_TAUTO_COUNT>
7

>  <PUBCHEM_COORDINATE_TYPE>
1
5
255

>  <PUBCHEM_BONDANNOTATIONS>
12  14  8
13  15  8
14  15  8
20  21  8
20  22  8
21  23  8
22  24  8
23  25  8
24  25  8
4  10  8
4  9  8
6  10  8
6  7  8
7  12  8
7  9  8
9  13  8

$$$$
