10515775
 OpenBabel06101807152D

 29 31  0  0  0  0  0  0  0  0999 V2000
    6.3518    0.0563    0.0000 S   0  0  0  0  0  0  0  0  0  0  0  0
    8.0321   -0.5008    0.0000 S   0  0  0  0  0  0  0  0  0  0  0  0
    4.5274    1.4118    0.0000 O   0  0  0  0  0  0  0  0  0  0  0  0
    4.5274    0.4118    0.0000 N   0  0  0  0  0  0  0  0  0  0  0  0
    6.7328   -1.7031    0.0000 N   0  0  0  0  0  0  0  0  0  0  0  0
    5.0274   -1.1271    0.0000 C   0  0  0  0  0  0  0  0  0  0  0  0
    4.0274   -1.1271    0.0000 C   0  0  0  0  0  0  0  0  0  0  0  0
    3.7183   -0.1760    0.0000 C   0  0  0  0  0  0  0  0  0  0  0  0
    5.3364   -0.1760    0.0000 C   0  0  0  0  0  0  0  0  0  0  0  0
    5.7123   -1.9118    0.0000 C   0  0  0  0  0  0  0  0  0  0  0  0
    3.3424   -1.9118    0.0000 C   0  0  0  0  0  0  0  0  0  0  0  0
    2.7029    0.0563    0.0000 C   0  0  0  0  0  0  0  0  0  0  0  0
    2.3219   -1.7031    0.0000 C   0  0  0  0  0  0  0  0  0  0  0  0
    2.0000   -0.7124    0.0000 C   0  0  0  0  0  0  0  0  0  0  0  0
    7.0547   -0.7124    0.0000 C   0  0  0  0  0  0  0  0  0  0  0  0
    3.6613    1.9118    0.0000 C   0  0  0  0  0  0  0  0  0  0  0  0
    8.7040   -1.2413    0.0000 C   0  0  0  0  0  0  0  0  0  0  0  0
    5.1824   -2.2336    0.0000 H   0  0  0  0  0  0  0  0  0  0  0  0
    5.9387   -2.4890    0.0000 H   0  0  0  0  0  0  0  0  0  0  0  0
    3.5408   -2.4992    0.0000 H   0  0  0  0  0  0  0  0  0  0  0  0
    2.5182    0.6481    0.0000 H   0  0  0  0  0  0  0  0  0  0  0  0
    1.9088   -2.1654    0.0000 H   0  0  0  0  0  0  0  0  0  0  0  0
    1.3940   -0.5812    0.0000 H   0  0  0  0  0  0  0  0  0  0  0  0
    3.9713    2.4487    0.0000 H   0  0  0  0  0  0  0  0  0  0  0  0
    3.1244    2.2218    0.0000 H   0  0  0  0  0  0  0  0  0  0  0  0
    3.3513    1.3748    0.0000 H   0  0  0  0  0  0  0  0  0  0  0  0
    8.2449   -1.6580    0.0000 H   0  0  0  0  0  0  0  0  0  0  0  0
    9.1207   -1.7005    0.0000 H   0  0  0  0  0  0  0  0  0  0  0  0
    9.1632   -0.8247    0.0000 H   0  0  0  0  0  0  0  0  0  0  0  0
  1  9  1  0  0  0  0
  1 15  1  0  0  0  0
  2 15  1  0  0  0  0
  2 17  1  0  0  0  0
  3  4  1  0  0  0  0
  3 16  1  0  0  0  0
  4  8  1  0  0  0  0
  4  9  1  0  0  0  0
  5 10  1  0  0  0  0
  5 15  2  0  0  0  0
  6  7  1  0  0  0  0
  6  9  2  0  0  0  0
  6 10  1  0  0  0  0
  7  8  1  0  0  0  0
  7 11  2  0  0  0  0
  8 12  2  0  0  0  0
 10 18  1  0  0  0  0
 10 19  1  0  0  0  0
 11 13  1  0  0  0  0
 11 20  1  0  0  0  0
 12 14  1  0  0  0  0
 12 21  1  0  0  0  0
 13 14  2  0  0  0  0
 13 22  1  0  0  0  0
 14 23  1  0  0  0  0
 16 24  1  0  0  0  0
 16 25  1  0  0  0  0
 16 26  1  0  0  0  0
 17 27  1  0  0  0  0
 17 28  1  0  0  0  0
 17 29  1  0  0  0  0
M  END
>  <PUBCHEM_COMPOUND_CID>
10515775

>  <PUBCHEM_COMPOUND_CANONICALIZED>
1

>  <PUBCHEM_CACTVS_COMPLEXITY>
324

>  <PUBCHEM_CACTVS_HBOND_ACCEPTOR>
4

>  <PUBCHEM_CACTVS_HBOND_DONOR>
0

>  <PUBCHEM_CACTVS_ROTATABLE_BOND>
2

>  <PUBCHEM_CACTVS_SUBSKEYS>
AAADccBzIABgAAAAAAAAAAAAAAAAAWAAAAAwQAAAAAAAAFgB8AAAHgQEAAAADAjBXgaywfIYEAigAyRiRACC0SBhCjAomDAwZJgIIOLg0ZGEIAhggADIyAcQgMAOgAAAAAACAAAAAAAAAAQAAAAAAAAAAA==

>  <PUBCHEM_IUPAC_OPENEYE_NAME>
9-methoxy-2-methylsulfanyl-4H-[1,3]thiazino[6,5-b]indole

>  <PUBCHEM_IUPAC_CAS_NAME>
9-methoxy-2-(methylthio)-4H-[1,3]thiazino[6,5-b]indole

>  <PUBCHEM_IUPAC_NAME>
9-methoxy-2-methylsulfanyl-4H-[1,3]thiazino[6,5-b]indole

>  <PUBCHEM_IUPAC_SYSTEMATIC_NAME>
9-methoxy-2-methylsulfanyl-4H-[1,3]thiazino[6,5-b]indole

>  <PUBCHEM_IUPAC_TRADITIONAL_NAME>
9-methoxy-2-(methylthio)-4H-[1,3]thiazin[6,5-b]indole

>  <PUBCHEM_IUPAC_INCHI>
InChI=1S/C12H12N2OS2/c1-15-14-10-6-4-3-5-8(10)9-7-13-12(16-2)17-11(9)14/h3-6H,7H2,1-2H3

>  <PUBCHEM_IUPAC_INCHIKEY>
JCYHQSOLTRRNNC-UHFFFAOYSA-N

>  <PUBCHEM_XLOGP3_AA>
3.6

>  <PUBCHEM_EXACT_MASS>
264.039

>  <PUBCHEM_MOLECULAR_FORMULA>
C12H12N2OS2

>  <PUBCHEM_MOLECULAR_WEIGHT>
264.361

>  <PUBCHEM_OPENEYE_CAN_SMILES>
CON1C2=CC=CC=C2C3=C1SC(=NC3)SC

>  <PUBCHEM_OPENEYE_ISO_SMILES>
CON1C2=CC=CC=C2C3=C1SC(=NC3)SC

>  <PUBCHEM_CACTVS_TPSA>
77.1

>  <PUBCHEM_MONOISOTOPIC_WEIGHT>
264.039

>  <PUBCHEM_TOTAL_CHARGE>
0

>  <PUBCHEM_HEAVY_ATOM_COUNT>
17

>  <PUBCHEM_ATOM_DEF_STEREO_COUNT>
0

>  <PUBCHEM_ATOM_UDEF_STEREO_COUNT>
0

>  <PUBCHEM_BOND_DEF_STEREO_COUNT>
0

>  <PUBCHEM_BOND_UDEF_STEREO_COUNT>
0

>  <PUBCHEM_ISOTOPIC_ATOM_COUNT>
0

>  <PUBCHEM_COMPONENT_COUNT>
1

>  <PUBCHEM_CACTVS_TAUTO_COUNT>
1

>  <PUBCHEM_COORDINATE_TYPE>
1
5
255

>  <PUBCHEM_BONDANNOTATIONS>
11  13  8
12  14  8
13  14  8
4  8  8
4  9  8
6  7  8
6  9  8
7  11  8
7  8  8
8  12  8

$$$$
