10597338
 OpenBabel06101807152D

 46 49  0  0  0  0  0  0  0  0999 V2000
    6.3580   -0.2872    0.0000 O   0  0  0  0  0  0  0  0  0  0  0  0
    6.1817    1.1619    0.0000 O   0  0  0  0  0  0  0  0  0  0  0  0
    2.8660   -0.2526    0.0000 O   0  0  0  0  0  0  0  0  0  0  0  0
    7.9577   -1.8450    0.0000 O   0  0  0  0  0  0  0  0  0  0  0  0
    5.5417   -2.7243    0.0000 O   0  0  0  0  0  0  0  0  0  0  0  0
    8.2482    0.0492    0.0000 O   0  0  0  0  0  0  0  0  0  0  0  0
    5.3057    2.7002    0.0000 O   0  0  0  0  0  0  0  0  0  0  0  0
    4.5981   -0.2526    0.0000 C   0  0  0  0  0  0  0  0  0  0  0  0
    7.0917   -0.3449    0.0000 C   0  0  0  0  0  0  0  0  0  0  0  0
    5.4641    0.2474    0.0000 C   0  0  0  0  0  0  0  0  0  0  0  0
    5.2409   -1.0185    0.0000 C   0  0  0  0  0  0  0  0  0  0  0  0
    7.0917    0.6551    0.0000 C   0  0  0  0  0  0  0  0  0  0  0  0
    5.4641    1.2474    0.0000 C   0  0  0  0  0  0  0  0  0  0  0  0
    6.2257   -0.8449    0.0000 C   0  0  0  0  0  0  0  0  0  0  0  0
    3.7320    0.2474    0.0000 C   0  0  0  0  0  0  0  0  0  0  0  0
    7.9577    1.1550    0.0000 C   0  0  0  0  0  0  0  0  0  0  0  0
    7.9577   -0.8449    0.0000 C   0  0  0  0  0  0  0  0  0  0  0  0
    4.5981    1.7474    0.0000 C   0  0  0  0  0  0  0  0  0  0  0  0
    3.7320    1.2474    0.0000 C   0  0  0  0  0  0  0  0  0  0  0  0
    8.8238    0.6551    0.0000 C   0  0  0  0  0  0  0  0  0  0  0  0
    8.8238   -0.3449    0.0000 C   0  0  0  0  0  0  0  0  0  0  0  0
    6.3580    1.7821    0.0000 C   0  0  0  0  0  0  0  0  0  0  0  0
    7.9738    2.1966    0.0000 C   0  0  0  0  0  0  0  0  0  0  0  0
    4.8989   -1.9583    0.0000 C   0  0  0  0  0  0  0  0  0  0  0  0
    7.2641    1.2683    0.0000 C   0  0  0  0  0  0  0  0  0  0  0  0
    7.0757    2.7243    0.0000 C   0  0  0  0  0  0  0  0  0  0  0  0
    7.2641    0.2266    0.0000 C   0  0  0  0  0  0  0  0  0  0  0  0
    6.1737    2.2035    0.0000 C   0  0  0  0  0  0  0  0  0  0  0  0
    2.0000    0.2474    0.0000 C   0  0  0  0  0  0  0  0  0  0  0  0
    8.8238   -2.3450    0.0000 C   0  0  0  0  0  0  0  0  0  0  0  0
    6.6242   -1.3199    0.0000 H   0  0  0  0  0  0  0  0  0  0  0  0
    4.5981    2.3674    0.0000 H   0  0  0  0  0  0  0  0  0  0  0  0
    3.1951    1.5574    0.0000 H   0  0  0  0  0  0  0  0  0  0  0  0
    9.3607    0.9651    0.0000 H   0  0  0  0  0  0  0  0  0  0  0  0
    9.3607   -0.6549    0.0000 H   0  0  0  0  0  0  0  0  0  0  0  0
    6.3509    2.4021    0.0000 H   0  0  0  0  0  0  0  0  0  0  0  0
    8.5143    2.5003    0.0000 H   0  0  0  0  0  0  0  0  0  0  0  0
    4.2882   -2.0660    0.0000 H   0  0  0  0  0  0  0  0  0  0  0  0
    7.7998    1.5803    0.0000 H   0  0  0  0  0  0  0  0  0  0  0  0
    7.0781    3.3443    0.0000 H   0  0  0  0  0  0  0  0  0  0  0  0
    2.3100    0.7844    0.0000 H   0  0  0  0  0  0  0  0  0  0  0  0
    1.4631    0.5574    0.0000 H   0  0  0  0  0  0  0  0  0  0  0  0
    1.6900   -0.2895    0.0000 H   0  0  0  0  0  0  0  0  0  0  0  0
    8.5138   -2.8819    0.0000 H   0  0  0  0  0  0  0  0  0  0  0  0
    9.3607   -2.6550    0.0000 H   0  0  0  0  0  0  0  0  0  0  0  0
    9.1337   -1.8080    0.0000 H   0  0  0  0  0  0  0  0  0  0  0  0
  1 10  1  0  0  0  0
  1 27  1  0  0  0  0
  2 12  1  0  0  0  0
  2 28  1  0  0  0  0
  3 15  1  0  0  0  0
  3 29  1  0  0  0  0
  4 17  1  0  0  0  0
  4 30  1  0  0  0  0
  5 24  2  0  0  0  0
  6 27  2  0  0  0  0
  7 28  2  0  0  0  0
  8 10  1  0  0  0  0
  8 11  1  0  0  0  0
  8 15  2  0  0  0  0
  9 12  1  0  0  0  0
  9 14  1  0  0  0  0
  9 17  2  0  0  0  0
 10 13  2  0  0  0  0
 11 14  2  0  0  0  0
 11 24  1  0  0  0  0
 12 16  2  0  0  0  0
 13 18  1  0  0  0  0
 13 22  1  0  0  0  0
 14 31  1  0  0  0  0
 15 19  1  0  0  0  0
 16 20  1  0  0  0  0
 16 23  1  0  0  0  0
 17 21  1  0  0  0  0
 18 19  2  0  0  0  0
 18 32  1  0  0  0  0
 19 33  1  0  0  0  0
 20 21  2  0  0  0  0
 20 34  1  0  0  0  0
 21 35  1  0  0  0  0
 22 25  2  0  0  0  0
 22 36  1  0  0  0  0
 23 26  2  0  0  0  0
 23 37  1  0  0  0  0
 24 38  1  0  0  0  0
 25 27  1  0  0  0  0
 25 39  1  0  0  0  0
 26 28  1  0  0  0  0
 26 40  1  0  0  0  0
 29 41  1  0  0  0  0
 29 42  1  0  0  0  0
 29 43  1  0  0  0  0
 30 44  1  0  0  0  0
 30 45  1  0  0  0  0
 30 46  1  0  0  0  0
M  END
>  <PUBCHEM_COMPOUND_CID>
10597338

>  <PUBCHEM_COMPOUND_CANONICALIZED>
1

>  <PUBCHEM_CACTVS_COMPLEXITY>
782

>  <PUBCHEM_CACTVS_HBOND_ACCEPTOR>
7

>  <PUBCHEM_CACTVS_HBOND_DONOR>
0

>  <PUBCHEM_CACTVS_ROTATABLE_BOND>
5

>  <PUBCHEM_CACTVS_SUBSKEYS>
AAADceB4OAAAAAAAAAAAAAAAAAAAAAAAAAAwYIEAAAAAAACBQAAAGgAAAAAADASgmAIyDoAABACIAijSiAACCAAgIAAIiAEGCMgMJzKENRqCOiClwBUIqYeK6OyOIAACCAAIAABAAAQQABAAAAAAAAAAAA==

>  <PUBCHEM_IUPAC_OPENEYE_NAME>
(E)-2,3-bis(7-methoxy-2-oxo-chromen-8-yl)prop-2-enal

>  <PUBCHEM_IUPAC_CAS_NAME>
(E)-2,3-bis(7-methoxy-2-oxo-1-benzopyran-8-yl)-2-propenal

>  <PUBCHEM_IUPAC_NAME>
(E)-2,3-bis(7-methoxy-2-oxochromen-8-yl)prop-2-enal

>  <PUBCHEM_IUPAC_SYSTEMATIC_NAME>
(E)-2,3-bis(7-methoxy-2-oxidanylidene-chromen-8-yl)prop-2-enal

>  <PUBCHEM_IUPAC_TRADITIONAL_NAME>
(E)-2,3-bis(2-keto-7-methoxy-chromen-8-yl)acrolein

>  <PUBCHEM_IUPAC_INCHI>
InChI=1S/C23H16O7/c1-27-17-7-3-13-5-9-19(25)29-22(13)16(17)11-15(12-24)21-18(28-2)8-4-14-6-10-20(26)30-23(14)21/h3-12H,1-2H3/b15-11-

>  <PUBCHEM_IUPAC_INCHIKEY>
SXMLKPWAEMEUQE-PTNGSMBKSA-N

>  <PUBCHEM_XLOGP3_AA>
3.4

>  <PUBCHEM_EXACT_MASS>
404.09

>  <PUBCHEM_MOLECULAR_FORMULA>
C23H16O7

>  <PUBCHEM_MOLECULAR_WEIGHT>
404.374

>  <PUBCHEM_OPENEYE_CAN_SMILES>
COC1=C(C2=C(C=C1)C=CC(=O)O2)C=C(C=O)C3=C(C=CC4=C3OC(=O)C=C4)OC

>  <PUBCHEM_OPENEYE_ISO_SMILES>
COC1=C(C2=C(C=C1)C=CC(=O)O2)/C=C(/C=O)\C3=C(C=CC4=C3OC(=O)C=C4)OC

>  <PUBCHEM_CACTVS_TPSA>
88.1

>  <PUBCHEM_MONOISOTOPIC_WEIGHT>
404.09

>  <PUBCHEM_TOTAL_CHARGE>
0

>  <PUBCHEM_HEAVY_ATOM_COUNT>
30

>  <PUBCHEM_ATOM_DEF_STEREO_COUNT>
0

>  <PUBCHEM_ATOM_UDEF_STEREO_COUNT>
0

>  <PUBCHEM_BOND_DEF_STEREO_COUNT>
1

>  <PUBCHEM_BOND_UDEF_STEREO_COUNT>
0

>  <PUBCHEM_ISOTOPIC_ATOM_COUNT>
0

>  <PUBCHEM_COMPONENT_COUNT>
1

>  <PUBCHEM_CACTVS_TAUTO_COUNT>
1

>  <PUBCHEM_COORDINATE_TYPE>
1
5
255

>  <PUBCHEM_BONDANNOTATIONS>
1  10  8
1  27  8
10  13  8
12  16  8
13  18  8
13  22  8
15  19  8
16  20  8
16  23  8
17  21  8
18  19  8
2  12  8
2  28  8
20  21  8
22  25  8
23  26  8
25  27  8
26  28  8
8  10  8
8  15  8
9  12  8
9  17  8

$$$$
