10625101
 OpenBabel06101807152D

 92 93  0  0  0  0  0  0  0  0999 V2000
    7.9244   -4.8502    0.0000 O   0  0  0  0  0  0  0  0  0  0  0  0
    6.2781   -4.3122    0.0000 N   0  0  0  0  0  0  0  0  0  0  0  0
    4.6783   -8.0289    0.0000 N   0  0  0  0  0  0  0  0  0  0  0  0
   14.0131    2.6283    0.0000 C   0  0  0  0  0  0  0  0  0  0  0  0
   13.7024    1.6778    0.0000 C   0  0  0  0  0  0  0  0  0  0  0  0
   14.9916    2.8345    0.0000 C   0  0  0  0  0  0  0  0  0  0  0  0
   12.7239    1.4715    0.0000 C   0  0  0  0  0  0  0  0  0  0  0  0
   15.3023    3.7850    0.0000 C   0  0  0  0  0  0  0  0  0  0  0  0
   12.4133    0.5210    0.0000 C   0  0  0  0  0  0  0  0  0  0  0  0
   16.2808    3.9912    0.0000 C   0  0  0  0  0  0  0  0  0  0  0  0
   11.4348    0.3148    0.0000 C   0  0  0  0  0  0  0  0  0  0  0  0
   16.5914    4.9418    0.0000 C   0  0  0  0  0  0  0  0  0  0  0  0
   11.1241   -0.6357    0.0000 C   0  0  0  0  0  0  0  0  0  0  0  0
   17.5700    5.1480    0.0000 C   0  0  0  0  0  0  0  0  0  0  0  0
   10.1456   -0.8419    0.0000 C   0  0  0  0  0  0  0  0  0  0  0  0
   17.8806    6.0985    0.0000 C   0  0  0  0  0  0  0  0  0  0  0  0
    9.8349   -1.7924    0.0000 C   0  0  0  0  0  0  0  0  0  0  0  0
   18.8591    6.3047    0.0000 C   0  0  0  0  0  0  0  0  0  0  0  0
    8.8564   -1.9987    0.0000 C   0  0  0  0  0  0  0  0  0  0  0  0
   19.1698    7.2552    0.0000 C   0  0  0  0  0  0  0  0  0  0  0  0
    8.5458   -2.9492    0.0000 C   0  0  0  0  0  0  0  0  0  0  0  0
   20.1483    7.4615    0.0000 C   0  0  0  0  0  0  0  0  0  0  0  0
    7.5673   -3.1554    0.0000 C   0  0  0  0  0  0  0  0  0  0  0  0
   20.4590    8.4120    0.0000 C   0  0  0  0  0  0  0  0  0  0  0  0
    7.2566   -4.1059    0.0000 C   0  0  0  0  0  0  0  0  0  0  0  0
   21.4375    8.6182    0.0000 C   0  0  0  0  0  0  0  0  0  0  0  0
    5.9674   -5.2627    0.0000 C   0  0  0  0  0  0  0  0  0  0  0  0
    4.9889   -5.4689    0.0000 C   0  0  0  0  0  0  0  0  0  0  0  0
    4.6783   -6.4194    0.0000 C   0  0  0  0  0  0  0  0  0  0  0  0
    3.7320   -6.7241    0.0000 C   0  0  0  0  0  0  0  0  0  0  0  0
    3.7320   -7.7241    0.0000 C   0  0  0  0  0  0  0  0  0  0  0  0
    5.2619   -7.2241    0.0000 C   0  0  0  0  0  0  0  0  0  0  0  0
    2.8660   -6.2241    0.0000 C   0  0  0  0  0  0  0  0  0  0  0  0
    2.8660   -8.2241    0.0000 C   0  0  0  0  0  0  0  0  0  0  0  0
    2.0000   -6.7241    0.0000 C   0  0  0  0  0  0  0  0  0  0  0  0
    2.0000   -7.7241    0.0000 C   0  0  0  0  0  0  0  0  0  0  0  0
   13.9925    3.2479    0.0000 H   0  0  0  0  0  0  0  0  0  0  0  0
   13.3993    2.7156    0.0000 H   0  0  0  0  0  0  0  0  0  0  0  0
   13.7230    1.0581    0.0000 H   0  0  0  0  0  0  0  0  0  0  0  0
   14.3163    1.5904    0.0000 H   0  0  0  0  0  0  0  0  0  0  0  0
   15.0122    2.2148    0.0000 H   0  0  0  0  0  0  0  0  0  0  0  0
   15.6054    2.7472    0.0000 H   0  0  0  0  0  0  0  0  0  0  0  0
   12.7034    2.0912    0.0000 H   0  0  0  0  0  0  0  0  0  0  0  0
   12.1101    1.5589    0.0000 H   0  0  0  0  0  0  0  0  0  0  0  0
   15.2817    4.4047    0.0000 H   0  0  0  0  0  0  0  0  0  0  0  0
   14.6885    3.8724    0.0000 H   0  0  0  0  0  0  0  0  0  0  0  0
   12.4338   -0.0986    0.0000 H   0  0  0  0  0  0  0  0  0  0  0  0
   13.0271    0.4337    0.0000 H   0  0  0  0  0  0  0  0  0  0  0  0
   16.3013    3.3716    0.0000 H   0  0  0  0  0  0  0  0  0  0  0  0
   16.8946    3.9039    0.0000 H   0  0  0  0  0  0  0  0  0  0  0  0
   11.4142    0.9345    0.0000 H   0  0  0  0  0  0  0  0  0  0  0  0
   10.8210    0.4022    0.0000 H   0  0  0  0  0  0  0  0  0  0  0  0
   16.5709    5.5614    0.0000 H   0  0  0  0  0  0  0  0  0  0  0  0
   15.9776    5.0291    0.0000 H   0  0  0  0  0  0  0  0  0  0  0  0
   11.1447   -1.2554    0.0000 H   0  0  0  0  0  0  0  0  0  0  0  0
   11.7379   -0.7231    0.0000 H   0  0  0  0  0  0  0  0  0  0  0  0
   17.5905    4.5283    0.0000 H   0  0  0  0  0  0  0  0  0  0  0  0
   18.1838    5.0606    0.0000 H   0  0  0  0  0  0  0  0  0  0  0  0
   10.1250   -0.2223    0.0000 H   0  0  0  0  0  0  0  0  0  0  0  0
    9.5318   -0.7546    0.0000 H   0  0  0  0  0  0  0  0  0  0  0  0
   17.8601    6.7182    0.0000 H   0  0  0  0  0  0  0  0  0  0  0  0
   17.2668    6.1858    0.0000 H   0  0  0  0  0  0  0  0  0  0  0  0
    9.8555   -2.4121    0.0000 H   0  0  0  0  0  0  0  0  0  0  0  0
   10.4488   -1.8798    0.0000 H   0  0  0  0  0  0  0  0  0  0  0  0
   18.8797    5.6851    0.0000 H   0  0  0  0  0  0  0  0  0  0  0  0
   19.4729    6.2174    0.0000 H   0  0  0  0  0  0  0  0  0  0  0  0
    8.8359   -1.3790    0.0000 H   0  0  0  0  0  0  0  0  0  0  0  0
    8.2426   -1.9113    0.0000 H   0  0  0  0  0  0  0  0  0  0  0  0
   19.1492    7.8749    0.0000 H   0  0  0  0  0  0  0  0  0  0  0  0
   18.5560    7.3426    0.0000 H   0  0  0  0  0  0  0  0  0  0  0  0
    8.5663   -3.5688    0.0000 H   0  0  0  0  0  0  0  0  0  0  0  0
    9.1596   -3.0365    0.0000 H   0  0  0  0  0  0  0  0  0  0  0  0
   20.1689    6.8418    0.0000 H   0  0  0  0  0  0  0  0  0  0  0  0
   20.7621    7.3741    0.0000 H   0  0  0  0  0  0  0  0  0  0  0  0
    7.5467   -2.5358    0.0000 H   0  0  0  0  0  0  0  0  0  0  0  0
    6.9534   -3.0681    0.0000 H   0  0  0  0  0  0  0  0  0  0  0  0
   20.4384    9.0316    0.0000 H   0  0  0  0  0  0  0  0  0  0  0  0
   19.8451    8.4993    0.0000 H   0  0  0  0  0  0  0  0  0  0  0  0
   21.5653    8.0115    0.0000 H   0  0  0  0  0  0  0  0  0  0  0  0
   22.0441    8.7460    0.0000 H   0  0  0  0  0  0  0  0  0  0  0  0
   21.3096    9.2249    0.0000 H   0  0  0  0  0  0  0  0  0  0  0  0
    5.9880   -5.8823    0.0000 H   0  0  0  0  0  0  0  0  0  0  0  0
    6.5812   -5.3500    0.0000 H   0  0  0  0  0  0  0  0  0  0  0  0
    4.9684   -4.8492    0.0000 H   0  0  0  0  0  0  0  0  0  0  0  0
    4.3751   -5.3815    0.0000 H   0  0  0  0  0  0  0  0  0  0  0  0
    5.8640   -3.8507    0.0000 H   0  0  0  0  0  0  0  0  0  0  0  0
    5.8819   -7.2241    0.0000 H   0  0  0  0  0  0  0  0  0  0  0  0
    4.8709   -8.6182    0.0000 H   0  0  0  0  0  0  0  0  0  0  0  0
    2.8660   -5.6041    0.0000 H   0  0  0  0  0  0  0  0  0  0  0  0
    2.8660   -8.8441    0.0000 H   0  0  0  0  0  0  0  0  0  0  0  0
    1.4631   -6.4141    0.0000 H   0  0  0  0  0  0  0  0  0  0  0  0
    1.4631   -8.0341    0.0000 H   0  0  0  0  0  0  0  0  0  0  0  0
  1 25  2  0  0  0  0
  2 25  1  0  0  0  0
  2 27  1  0  0  0  0
  2 86  1  0  0  0  0
  3 31  1  0  0  0  0
  3 32  1  0  0  0  0
  3 88  1  0  0  0  0
  4  5  1  0  0  0  0
  4  6  1  0  0  0  0
  4 37  1  0  0  0  0
  4 38  1  0  0  0  0
  5  7  1  0  0  0  0
  5 39  1  0  0  0  0
  5 40  1  0  0  0  0
  6  8  1  0  0  0  0
  6 41  1  0  0  0  0
  6 42  1  0  0  0  0
  7  9  1  0  0  0  0
  7 43  1  0  0  0  0
  7 44  1  0  0  0  0
  8 10  1  0  0  0  0
  8 45  1  0  0  0  0
  8 46  1  0  0  0  0
  9 11  1  0  0  0  0
  9 47  1  0  0  0  0
  9 48  1  0  0  0  0
 10 12  1  0  0  0  0
 10 49  1  0  0  0  0
 10 50  1  0  0  0  0
 11 13  1  0  0  0  0
 11 51  1  0  0  0  0
 11 52  1  0  0  0  0
 12 14  1  0  0  0  0
 12 53  1  0  0  0  0
 12 54  1  0  0  0  0
 13 15  1  0  0  0  0
 13 55  1  0  0  0  0
 13 56  1  0  0  0  0
 14 16  1  0  0  0  0
 14 57  1  0  0  0  0
 14 58  1  0  0  0  0
 15 17  1  0  0  0  0
 15 59  1  0  0  0  0
 15 60  1  0  0  0  0
 16 18  1  0  0  0  0
 16 61  1  0  0  0  0
 16 62  1  0  0  0  0
 17 19  1  0  0  0  0
 17 63  1  0  0  0  0
 17 64  1  0  0  0  0
 18 20  1  0  0  0  0
 18 65  1  0  0  0  0
 18 66  1  0  0  0  0
 19 21  1  0  0  0  0
 19 67  1  0  0  0  0
 19 68  1  0  0  0  0
 20 22  1  0  0  0  0
 20 69  1  0  0  0  0
 20 70  1  0  0  0  0
 21 23  1  0  0  0  0
 21 71  1  0  0  0  0
 21 72  1  0  0  0  0
 22 24  1  0  0  0  0
 22 73  1  0  0  0  0
 22 74  1  0  0  0  0
 23 25  1  0  0  0  0
 23 75  1  0  0  0  0
 23 76  1  0  0  0  0
 24 26  1  0  0  0  0
 24 77  1  0  0  0  0
 24 78  1  0  0  0  0
 26 79  1  0  0  0  0
 26 80  1  0  0  0  0
 26 81  1  0  0  0  0
 27 28  1  0  0  0  0
 27 82  1  0  0  0  0
 27 83  1  0  0  0  0
 28 29  1  0  0  0  0
 28 84  1  0  0  0  0
 28 85  1  0  0  0  0
 29 30  1  0  0  0  0
 29 32  2  0  0  0  0
 30 31  1  0  0  0  0
 30 33  2  0  0  0  0
 31 34  2  0  0  0  0
 32 87  1  0  0  0  0
 33 35  1  0  0  0  0
 33 89  1  0  0  0  0
 34 36  1  0  0  0  0
 34 90  1  0  0  0  0
 35 36  2  0  0  0  0
 35 91  1  0  0  0  0
 36 92  1  0  0  0  0
M  END
>  <PUBCHEM_COMPOUND_CID>
10625101

>  <PUBCHEM_COMPOUND_CANONICALIZED>
1

>  <PUBCHEM_CACTVS_COMPLEXITY>
508

>  <PUBCHEM_CACTVS_HBOND_ACCEPTOR>
1

>  <PUBCHEM_CACTVS_HBOND_DONOR>
2

>  <PUBCHEM_CACTVS_ROTATABLE_BOND>
24

>  <PUBCHEM_CACTVS_SUBSKEYS>
AAADcfB/IAAAAAAAAAAAAAAAAAAAAWAAAAAwAAAAAAAAAFgB8AAAHgAQAAAADAjBngQ+wPLJkACoAzV3VACCgCAxAiAI2aE4ZJgIIPLAkZGEIAhglgDIyAcYiMCOgAAAAAACAAAAAAAAAAQAAAAAAAAAAA==

>  <PUBCHEM_IUPAC_OPENEYE_NAME>
N-[2-(1H-indol-3-yl)ethyl]tricosanamide

>  <PUBCHEM_IUPAC_CAS_NAME>
N-[2-(1H-indol-3-yl)ethyl]tricosanamide

>  <PUBCHEM_IUPAC_NAME>
N-[2-(1H-indol-3-yl)ethyl]tricosanamide

>  <PUBCHEM_IUPAC_SYSTEMATIC_NAME>
N-[2-(1H-indol-3-yl)ethyl]tricosanamide

>  <PUBCHEM_IUPAC_TRADITIONAL_NAME>
N-[2-(1H-indol-3-yl)ethyl]tricosanamide

>  <PUBCHEM_IUPAC_INCHI>
InChI=1S/C33H56N2O/c1-2-3-4-5-6-7-8-9-10-11-12-13-14-15-16-17-18-19-20-21-26-33(36)34-28-27-30-29-35-32-25-23-22-24-31(30)32/h22-25,29,35H,2-21,26-28H2,1H3,(H,34,36)

>  <PUBCHEM_IUPAC_INCHIKEY>
XJUYJAIYKWBPLY-UHFFFAOYSA-N

>  <PUBCHEM_XLOGP3>
12.9

>  <PUBCHEM_EXACT_MASS>
496.439

>  <PUBCHEM_MOLECULAR_FORMULA>
C33H56N2O

>  <PUBCHEM_MOLECULAR_WEIGHT>
496.824

>  <PUBCHEM_OPENEYE_CAN_SMILES>
CCCCCCCCCCCCCCCCCCCCCCC(=O)NCCC1=CNC2=CC=CC=C21

>  <PUBCHEM_OPENEYE_ISO_SMILES>
CCCCCCCCCCCCCCCCCCCCCCC(=O)NCCC1=CNC2=CC=CC=C21

>  <PUBCHEM_CACTVS_TPSA>
44.9

>  <PUBCHEM_MONOISOTOPIC_WEIGHT>
496.439

>  <PUBCHEM_TOTAL_CHARGE>
0

>  <PUBCHEM_HEAVY_ATOM_COUNT>
36

>  <PUBCHEM_ATOM_DEF_STEREO_COUNT>
0

>  <PUBCHEM_ATOM_UDEF_STEREO_COUNT>
0

>  <PUBCHEM_BOND_DEF_STEREO_COUNT>
0

>  <PUBCHEM_BOND_UDEF_STEREO_COUNT>
0

>  <PUBCHEM_ISOTOPIC_ATOM_COUNT>
0

>  <PUBCHEM_COMPONENT_COUNT>
1

>  <PUBCHEM_CACTVS_TAUTO_COUNT>
2

>  <PUBCHEM_COORDINATE_TYPE>
1
5
255

>  <PUBCHEM_BONDANNOTATIONS>
29  30  8
29  32  8
3  31  8
3  32  8
30  31  8
30  33  8
31  34  8
33  35  8
34  36  8
35  36  8

$$$$
