107126
 OpenBabel06101807152D

 35 35  0  0  1  0  0  0  0  0999 V2000
    7.6751   -1.3157    0.0000 O   0  0  0  0  0  0  0  0  0  0  0  0
    2.4608   -1.6759    0.0000 O   0  0  0  0  0  0  0  0  0  0  0  0
    3.6197   -2.9630    0.0000 O   0  0  0  0  0  0  0  0  0  0  0  0
    5.9150   -1.0370    0.0000 C   0  0  3  0  0  0  0  0  0  0  0  0
    5.1060   -1.6248    0.0000 C   0  0  3  0  0  0  0  0  0  0  0  0
    5.4150   -2.5758    0.0000 C   0  0  0  0  0  0  0  0  0  0  0  0
    5.9150   -0.0370    0.0000 C   0  0  0  0  0  0  0  0  0  0  0  0
    6.4150   -2.5758    0.0000 C   0  0  0  0  0  0  0  0  0  0  0  0
    6.7240   -1.6248    0.0000 C   0  0  0  0  0  0  0  0  0  0  0  0
    4.1550   -1.3157    0.0000 C   0  0  0  0  0  0  0  0  0  0  0  0
    6.7810    0.4630    0.0000 C   0  0  0  0  0  0  0  0  0  0  0  0
    6.7810    1.4630    0.0000 C   0  0  0  0  0  0  0  0  0  0  0  0
    3.4118   -1.9849    0.0000 C   0  0  0  0  0  0  0  0  0  0  0  0
    7.6471    1.9630    0.0000 C   0  0  0  0  0  0  0  0  0  0  0  0
    7.6471    2.9630    0.0000 C   0  0  0  0  0  0  0  0  0  0  0  0
    6.4675   -0.7555    0.0000 H   0  0  0  0  0  0  0  0  0  0  0  0
    4.6676   -2.0632    0.0000 H   0  0  0  0  0  0  0  0  0  0  0  0
    4.8086   -2.7047    0.0000 H   0  0  0  0  0  0  0  0  0  0  0  0
    5.4798   -3.1924    0.0000 H   0  0  0  0  0  0  0  0  0  0  0  0
    5.7030    0.5456    0.0000 H   0  0  0  0  0  0  0  0  0  0  0  0
    5.3044   -0.1446    0.0000 H   0  0  0  0  0  0  0  0  0  0  0  0
    6.3502   -3.1924    0.0000 H   0  0  0  0  0  0  0  0  0  0  0  0
    7.0215   -2.7047    0.0000 H   0  0  0  0  0  0  0  0  0  0  0  0
    4.4460   -0.7683    0.0000 H   0  0  0  0  0  0  0  0  0  0  0  0
    3.6664   -0.9340    0.0000 H   0  0  0  0  0  0  0  0  0  0  0  0
    6.9931   -0.1196    0.0000 H   0  0  0  0  0  0  0  0  0  0  0  0
    7.3916    0.5707    0.0000 H   0  0  0  0  0  0  0  0  0  0  0  0
    6.5690    2.0456    0.0000 H   0  0  0  0  0  0  0  0  0  0  0  0
    6.1705    1.3554    0.0000 H   0  0  0  0  0  0  0  0  0  0  0  0
    7.8591    1.3804    0.0000 H   0  0  0  0  0  0  0  0  0  0  0  0
    8.2577    2.0707    0.0000 H   0  0  0  0  0  0  0  0  0  0  0  0
    8.2671    2.9630    0.0000 H   0  0  0  0  0  0  0  0  0  0  0  0
    7.6471    3.5830    0.0000 H   0  0  0  0  0  0  0  0  0  0  0  0
    7.0271    2.9630    0.0000 H   0  0  0  0  0  0  0  0  0  0  0  0
    2.0000   -2.0907    0.0000 H   0  0  0  0  0  0  0  0  0  0  0  0
  1  9  2  0  0  0  0
  2 13  1  0  0  0  0
  2 35  1  0  0  0  0
  3 13  2  0  0  0  0
  4  5  1  0  0  0  0
  4  7  1  0  0  0  0
  4  9  1  0  0  0  0
  4 16  1  0  0  0  0
  5  6  1  0  0  0  0
  5 10  1  0  0  0  0
  5 17  1  0  0  0  0
  6  8  1  0  0  0  0
  6 18  1  0  0  0  0
  6 19  1  0  0  0  0
  7 11  1  0  0  0  0
  7 20  1  0  0  0  0
  7 21  1  0  0  0  0
  8  9  1  0  0  0  0
  8 22  1  0  0  0  0
  8 23  1  0  0  0  0
 10 13  1  0  0  0  0
 10 24  1  0  0  0  0
 10 25  1  0  0  0  0
 11 12  1  0  0  0  0
 11 26  1  0  0  0  0
 11 27  1  0  0  0  0
 12 14  1  0  0  0  0
 12 28  1  0  0  0  0
 12 29  1  0  0  0  0
 14 15  1  0  0  0  0
 14 30  1  0  0  0  0
 14 31  1  0  0  0  0
 15 32  1  0  0  0  0
 15 33  1  0  0  0  0
 15 34  1  0  0  0  0
M  END
>  <PUBCHEM_COMPOUND_CID>
107126

>  <PUBCHEM_COMPOUND_CANONICALIZED>
1

>  <PUBCHEM_CACTVS_COMPLEXITY>
235

>  <PUBCHEM_CACTVS_HBOND_ACCEPTOR>
3

>  <PUBCHEM_CACTVS_HBOND_DONOR>
1

>  <PUBCHEM_CACTVS_ROTATABLE_BOND>
6

>  <PUBCHEM_CACTVS_SUBSKEYS>
AAADceBwMAAAAAAAAAAAAAAAAAAAAYAAAAAAAAAAAAAAAAAAAAAAGgAACAAADQSAgAACCAAAAgAIAICQCAAAAAAAAAAAAAEAAAAAABIAAAAAQAAEAAAAAAGIzuCugAAAAAAAAAAAAAAAAAAAAAAACAAAAA==

>  <PUBCHEM_IUPAC_OPENEYE_NAME>
2-(3-oxo-2-pentyl-cyclopentyl)acetic acid

>  <PUBCHEM_IUPAC_CAS_NAME>
2-(3-oxo-2-pentylcyclopentyl)acetic acid

>  <PUBCHEM_IUPAC_NAME>
2-(3-oxo-2-pentylcyclopentyl)acetic acid

>  <PUBCHEM_IUPAC_SYSTEMATIC_NAME>
2-(3-oxidanylidene-2-pentyl-cyclopentyl)ethanoic acid

>  <PUBCHEM_IUPAC_TRADITIONAL_NAME>
2-(2-amyl-3-keto-cyclopentyl)acetic acid

>  <PUBCHEM_IUPAC_INCHI>
InChI=1S/C12H20O3/c1-2-3-4-5-10-9(8-12(14)15)6-7-11(10)13/h9-10H,2-8H2,1H3,(H,14,15)

>  <PUBCHEM_IUPAC_INCHIKEY>
PQEYTAGBXNEUQL-UHFFFAOYSA-N

>  <PUBCHEM_XLOGP3_AA>
2.3

>  <PUBCHEM_EXACT_MASS>
212.141

>  <PUBCHEM_MOLECULAR_FORMULA>
C12H20O3

>  <PUBCHEM_MOLECULAR_WEIGHT>
212.289

>  <PUBCHEM_OPENEYE_CAN_SMILES>
CCCCCC1C(CCC1=O)CC(=O)O

>  <PUBCHEM_OPENEYE_ISO_SMILES>
CCCCCC1C(CCC1=O)CC(=O)O

>  <PUBCHEM_CACTVS_TPSA>
54.4

>  <PUBCHEM_MONOISOTOPIC_WEIGHT>
212.141

>  <PUBCHEM_TOTAL_CHARGE>
0

>  <PUBCHEM_HEAVY_ATOM_COUNT>
15

>  <PUBCHEM_ATOM_DEF_STEREO_COUNT>
0

>  <PUBCHEM_ATOM_UDEF_STEREO_COUNT>
2

>  <PUBCHEM_BOND_DEF_STEREO_COUNT>
0

>  <PUBCHEM_BOND_UDEF_STEREO_COUNT>
0

>  <PUBCHEM_ISOTOPIC_ATOM_COUNT>
0

>  <PUBCHEM_COMPONENT_COUNT>
1

>  <PUBCHEM_CACTVS_TAUTO_COUNT>
3

>  <PUBCHEM_COORDINATE_TYPE>
1
5
255

>  <PUBCHEM_BONDANNOTATIONS>
4  7  3
5  10  3

$$$$
