10780552
 OpenBabel06101807152D

 38 40  0  0  0  0  0  0  0  0999 V2000
    5.5141    1.2690    0.0000 O   0  0  0  0  0  0  0  0  0  0  0  0
    7.2622   -1.7726    0.0000 O   0  0  0  0  0  0  0  0  0  0  0  0
    3.7817    1.2620    0.0000 O   0  0  0  0  0  0  0  0  0  0  0  0
    2.0000   -1.7967    0.0000 O   0  0  0  0  0  0  0  0  0  0  0  0
    8.1663   -0.2757    0.0000 O   0  0  0  0  0  0  0  0  0  0  0  0
    4.6641   -0.2726    0.0000 C   0  0  0  0  0  0  0  0  0  0  0  0
    5.5301    0.2274    0.0000 C   0  0  0  0  0  0  0  0  0  0  0  0
    4.6641   -1.2726    0.0000 C   0  0  0  0  0  0  0  0  0  0  0  0
    6.3961   -0.2726    0.0000 C   0  0  0  0  0  0  0  0  0  0  0  0
    6.3961   -1.2726    0.0000 C   0  0  0  0  0  0  0  0  0  0  0  0
    5.5301   -1.7726    0.0000 C   0  0  0  0  0  0  0  0  0  0  0  0
    3.7702    0.2621    0.0000 C   0  0  0  0  0  0  0  0  0  0  0  0
    3.7702   -1.8072    0.0000 C   0  0  0  0  0  0  0  0  0  0  0  0
    7.3062    0.2343    0.0000 C   0  0  0  0  0  0  0  0  0  0  0  0
    2.8641   -1.2934    0.0000 C   0  0  0  0  0  0  0  0  0  0  0  0
    2.8641   -0.2517    0.0000 C   0  0  0  0  0  0  0  0  0  0  0  0
    6.4121    1.7967    0.0000 C   0  0  0  0  0  0  0  0  0  0  0  0
    7.3142    1.2759    0.0000 C   0  0  0  0  0  0  0  0  0  0  0  0
    6.4082    2.7967    0.0000 C   0  0  0  0  0  0  0  0  0  0  0  0
    7.2622   -2.7726    0.0000 C   0  0  0  0  0  0  0  0  0  0  0  0
    2.9215    1.7720    0.0000 C   0  0  0  0  0  0  0  0  0  0  0  0
    2.0038   -2.7967    0.0000 C   0  0  0  0  0  0  0  0  0  0  0  0
    5.5301   -2.3926    0.0000 H   0  0  0  0  0  0  0  0  0  0  0  0
    3.7773   -2.4272    0.0000 H   0  0  0  0  0  0  0  0  0  0  0  0
    2.3284    0.0603    0.0000 H   0  0  0  0  0  0  0  0  0  0  0  0
    7.8523    1.5838    0.0000 H   0  0  0  0  0  0  0  0  0  0  0  0
    7.0282    2.7991    0.0000 H   0  0  0  0  0  0  0  0  0  0  0  0
    6.4059    3.4167    0.0000 H   0  0  0  0  0  0  0  0  0  0  0  0
    5.7882    2.7943    0.0000 H   0  0  0  0  0  0  0  0  0  0  0  0
    6.6422   -2.7726    0.0000 H   0  0  0  0  0  0  0  0  0  0  0  0
    7.2622   -3.3926    0.0000 H   0  0  0  0  0  0  0  0  0  0  0  0
    7.8822   -2.7726    0.0000 H   0  0  0  0  0  0  0  0  0  0  0  0
    3.2377    2.3053    0.0000 H   0  0  0  0  0  0  0  0  0  0  0  0
    2.3882    2.0882    0.0000 H   0  0  0  0  0  0  0  0  0  0  0  0
    2.6054    1.2387    0.0000 H   0  0  0  0  0  0  0  0  0  0  0  0
    1.3839   -2.7991    0.0000 H   0  0  0  0  0  0  0  0  0  0  0  0
    2.0062   -3.4167    0.0000 H   0  0  0  0  0  0  0  0  0  0  0  0
    2.6238   -2.7943    0.0000 H   0  0  0  0  0  0  0  0  0  0  0  0
  1  7  1  0  0  0  0
  1 17  1  0  0  0  0
  2 10  1  0  0  0  0
  2 20  1  0  0  0  0
  3 12  1  0  0  0  0
  3 21  1  0  0  0  0
  4 15  1  0  0  0  0
  4 22  1  0  0  0  0
  5 14  2  0  0  0  0
  6  7  1  0  0  0  0
  6  8  1  0  0  0  0
  6 12  2  0  0  0  0
  7  9  2  0  0  0  0
  8 11  1  0  0  0  0
  8 13  2  0  0  0  0
  9 10  1  0  0  0  0
  9 14  1  0  0  0  0
 10 11  2  0  0  0  0
 11 23  1  0  0  0  0
 12 16  1  0  0  0  0
 13 15  1  0  0  0  0
 13 24  1  0  0  0  0
 14 18  1  0  0  0  0
 15 16  2  0  0  0  0
 16 25  1  0  0  0  0
 17 18  2  0  0  0  0
 17 19  1  0  0  0  0
 18 26  1  0  0  0  0
 19 27  1  0  0  0  0
 19 28  1  0  0  0  0
 19 29  1  0  0  0  0
 20 30  1  0  0  0  0
 20 31  1  0  0  0  0
 20 32  1  0  0  0  0
 21 33  1  0  0  0  0
 21 34  1  0  0  0  0
 21 35  1  0  0  0  0
 22 36  1  0  0  0  0
 22 37  1  0  0  0  0
 22 38  1  0  0  0  0
M  END
>  <PUBCHEM_COMPOUND_CID>
10780552

>  <PUBCHEM_COMPOUND_CANONICALIZED>
1

>  <PUBCHEM_CACTVS_COMPLEXITY>
460

>  <PUBCHEM_CACTVS_HBOND_ACCEPTOR>
5

>  <PUBCHEM_CACTVS_HBOND_DONOR>
0

>  <PUBCHEM_CACTVS_ROTATABLE_BOND>
3

>  <PUBCHEM_CACTVS_SUBSKEYS>
AAADceB4OAAAAAAAAAAAAAAAAAAAAAAAAAAwYIAAAAAAAADBUAAAGgAAAAAADASAmAIyBsAABACIAqBSAAACCAAkIAAAiAEGCMgMJzaENRqCOWCl4BUIqQeI7PzO4AADCAAYAADAAAYQADAAAAAAAAAAAA==

>  <PUBCHEM_IUPAC_OPENEYE_NAME>
5,8,10-trimethoxy-2-methyl-benzo[h]chromen-4-one

>  <PUBCHEM_IUPAC_CAS_NAME>
5,8,10-trimethoxy-2-methyl-4-benzo[h][1]benzopyranone

>  <PUBCHEM_IUPAC_NAME>
5,8,10-trimethoxy-2-methylbenzo[h]chromen-4-one

>  <PUBCHEM_IUPAC_SYSTEMATIC_NAME>
5,8,10-trimethoxy-2-methyl-benzo[h]chromen-4-one

>  <PUBCHEM_IUPAC_TRADITIONAL_NAME>
5,8,10-trimethoxy-2-methyl-benzo[h]chromen-4-one

>  <PUBCHEM_IUPAC_INCHI>
InChI=1S/C17H16O5/c1-9-5-12(18)16-13(20-3)7-10-6-11(19-2)8-14(21-4)15(10)17(16)22-9/h5-8H,1-4H3

>  <PUBCHEM_IUPAC_INCHIKEY>
XIPRKZKXZRMYTO-UHFFFAOYSA-N

>  <PUBCHEM_XLOGP3_AA>
3.1

>  <PUBCHEM_EXACT_MASS>
300.1

>  <PUBCHEM_MOLECULAR_FORMULA>
C17H16O5

>  <PUBCHEM_MOLECULAR_WEIGHT>
300.31

>  <PUBCHEM_OPENEYE_CAN_SMILES>
CC1=CC(=O)C2=C(O1)C3=C(C=C(C=C3C=C2OC)OC)OC

>  <PUBCHEM_OPENEYE_ISO_SMILES>
CC1=CC(=O)C2=C(O1)C3=C(C=C(C=C3C=C2OC)OC)OC

>  <PUBCHEM_CACTVS_TPSA>
54

>  <PUBCHEM_MONOISOTOPIC_WEIGHT>
300.1

>  <PUBCHEM_TOTAL_CHARGE>
0

>  <PUBCHEM_HEAVY_ATOM_COUNT>
22

>  <PUBCHEM_ATOM_DEF_STEREO_COUNT>
0

>  <PUBCHEM_ATOM_UDEF_STEREO_COUNT>
0

>  <PUBCHEM_BOND_DEF_STEREO_COUNT>
0

>  <PUBCHEM_BOND_UDEF_STEREO_COUNT>
0

>  <PUBCHEM_ISOTOPIC_ATOM_COUNT>
0

>  <PUBCHEM_COMPONENT_COUNT>
1

>  <PUBCHEM_CACTVS_TAUTO_COUNT>
3

>  <PUBCHEM_COORDINATE_TYPE>
1
5
255

>  <PUBCHEM_BONDANNOTATIONS>
1  17  8
1  7  8
10  11  8
12  16  8
13  15  8
14  18  8
15  16  8
17  18  8
6  12  8
6  7  8
6  8  8
7  9  8
8  11  8
8  13  8
9  10  8
9  14  8

$$$$
