10792189
 OpenBabel06101807152D

 98 99  0  0  0  0  0  0  0  0999 V2000
    7.9244   -5.4286    0.0000 O   0  0  0  0  0  0  0  0  0  0  0  0
    6.2781   -4.8905    0.0000 N   0  0  0  0  0  0  0  0  0  0  0  0
    4.6783   -8.6072    0.0000 N   0  0  0  0  0  0  0  0  0  0  0  0
   14.9916    2.2561    0.0000 C   0  0  0  0  0  0  0  0  0  0  0  0
   14.0131    2.0499    0.0000 C   0  0  0  0  0  0  0  0  0  0  0  0
   15.3023    3.2066    0.0000 C   0  0  0  0  0  0  0  0  0  0  0  0
   13.7024    1.0994    0.0000 C   0  0  0  0  0  0  0  0  0  0  0  0
   16.2808    3.4129    0.0000 C   0  0  0  0  0  0  0  0  0  0  0  0
   12.7239    0.8932    0.0000 C   0  0  0  0  0  0  0  0  0  0  0  0
   16.5914    4.3634    0.0000 C   0  0  0  0  0  0  0  0  0  0  0  0
   12.4133   -0.0573    0.0000 C   0  0  0  0  0  0  0  0  0  0  0  0
   17.5700    4.5696    0.0000 C   0  0  0  0  0  0  0  0  0  0  0  0
   11.4348   -0.2636    0.0000 C   0  0  0  0  0  0  0  0  0  0  0  0
   17.8806    5.5201    0.0000 C   0  0  0  0  0  0  0  0  0  0  0  0
   11.1241   -1.2141    0.0000 C   0  0  0  0  0  0  0  0  0  0  0  0
   18.8591    5.7264    0.0000 C   0  0  0  0  0  0  0  0  0  0  0  0
   10.1456   -1.4203    0.0000 C   0  0  0  0  0  0  0  0  0  0  0  0
   19.1698    6.6769    0.0000 C   0  0  0  0  0  0  0  0  0  0  0  0
    9.8349   -2.3708    0.0000 C   0  0  0  0  0  0  0  0  0  0  0  0
   20.1483    6.8831    0.0000 C   0  0  0  0  0  0  0  0  0  0  0  0
    8.8564   -2.5770    0.0000 C   0  0  0  0  0  0  0  0  0  0  0  0
   20.4590    7.8336    0.0000 C   0  0  0  0  0  0  0  0  0  0  0  0
    8.5458   -3.5276    0.0000 C   0  0  0  0  0  0  0  0  0  0  0  0
   21.4375    8.0398    0.0000 C   0  0  0  0  0  0  0  0  0  0  0  0
    7.5673   -3.7338    0.0000 C   0  0  0  0  0  0  0  0  0  0  0  0
   21.7481    8.9904    0.0000 C   0  0  0  0  0  0  0  0  0  0  0  0
    7.2566   -4.6843    0.0000 C   0  0  0  0  0  0  0  0  0  0  0  0
   22.7266    9.1966    0.0000 C   0  0  0  0  0  0  0  0  0  0  0  0
    5.9674   -5.8410    0.0000 C   0  0  0  0  0  0  0  0  0  0  0  0
    4.9889   -6.0473    0.0000 C   0  0  0  0  0  0  0  0  0  0  0  0
    4.6783   -6.9978    0.0000 C   0  0  0  0  0  0  0  0  0  0  0  0
    3.7320   -7.3025    0.0000 C   0  0  0  0  0  0  0  0  0  0  0  0
    3.7320   -8.3025    0.0000 C   0  0  0  0  0  0  0  0  0  0  0  0
    5.2619   -7.8025    0.0000 C   0  0  0  0  0  0  0  0  0  0  0  0
    2.8660   -6.8025    0.0000 C   0  0  0  0  0  0  0  0  0  0  0  0
    2.8660   -8.8025    0.0000 C   0  0  0  0  0  0  0  0  0  0  0  0
    2.0000   -7.3025    0.0000 C   0  0  0  0  0  0  0  0  0  0  0  0
    2.0000   -8.3025    0.0000 C   0  0  0  0  0  0  0  0  0  0  0  0
   15.0122    1.6365    0.0000 H   0  0  0  0  0  0  0  0  0  0  0  0
   15.6054    2.1688    0.0000 H   0  0  0  0  0  0  0  0  0  0  0  0
   13.9925    2.6696    0.0000 H   0  0  0  0  0  0  0  0  0  0  0  0
   13.3993    2.1373    0.0000 H   0  0  0  0  0  0  0  0  0  0  0  0
   15.2817    3.8263    0.0000 H   0  0  0  0  0  0  0  0  0  0  0  0
   14.6885    3.2940    0.0000 H   0  0  0  0  0  0  0  0  0  0  0  0
   13.7230    0.4797    0.0000 H   0  0  0  0  0  0  0  0  0  0  0  0
   14.3163    1.0120    0.0000 H   0  0  0  0  0  0  0  0  0  0  0  0
   16.3013    2.7932    0.0000 H   0  0  0  0  0  0  0  0  0  0  0  0
   16.8946    3.3255    0.0000 H   0  0  0  0  0  0  0  0  0  0  0  0
   12.7034    1.5128    0.0000 H   0  0  0  0  0  0  0  0  0  0  0  0
   12.1101    0.9805    0.0000 H   0  0  0  0  0  0  0  0  0  0  0  0
   16.5709    4.9831    0.0000 H   0  0  0  0  0  0  0  0  0  0  0  0
   15.9776    4.4507    0.0000 H   0  0  0  0  0  0  0  0  0  0  0  0
   12.4338   -0.6770    0.0000 H   0  0  0  0  0  0  0  0  0  0  0  0
   13.0271   -0.1447    0.0000 H   0  0  0  0  0  0  0  0  0  0  0  0
   17.5905    3.9500    0.0000 H   0  0  0  0  0  0  0  0  0  0  0  0
   18.1838    4.4823    0.0000 H   0  0  0  0  0  0  0  0  0  0  0  0
   11.4142    0.3561    0.0000 H   0  0  0  0  0  0  0  0  0  0  0  0
   10.8210   -0.1762    0.0000 H   0  0  0  0  0  0  0  0  0  0  0  0
   17.8601    6.1398    0.0000 H   0  0  0  0  0  0  0  0  0  0  0  0
   17.2668    5.6075    0.0000 H   0  0  0  0  0  0  0  0  0  0  0  0
   11.1447   -1.8337    0.0000 H   0  0  0  0  0  0  0  0  0  0  0  0
   11.7379   -1.3014    0.0000 H   0  0  0  0  0  0  0  0  0  0  0  0
   18.8797    5.1067    0.0000 H   0  0  0  0  0  0  0  0  0  0  0  0
   19.4729    5.6390    0.0000 H   0  0  0  0  0  0  0  0  0  0  0  0
   10.1250   -0.8006    0.0000 H   0  0  0  0  0  0  0  0  0  0  0  0
    9.5318   -1.3330    0.0000 H   0  0  0  0  0  0  0  0  0  0  0  0
   19.1492    7.2965    0.0000 H   0  0  0  0  0  0  0  0  0  0  0  0
   18.5560    6.7642    0.0000 H   0  0  0  0  0  0  0  0  0  0  0  0
    9.8555   -2.9905    0.0000 H   0  0  0  0  0  0  0  0  0  0  0  0
   10.4488   -2.4582    0.0000 H   0  0  0  0  0  0  0  0  0  0  0  0
   20.1689    6.2634    0.0000 H   0  0  0  0  0  0  0  0  0  0  0  0
   20.7621    6.7957    0.0000 H   0  0  0  0  0  0  0  0  0  0  0  0
    8.8359   -1.9574    0.0000 H   0  0  0  0  0  0  0  0  0  0  0  0
    8.2426   -2.4897    0.0000 H   0  0  0  0  0  0  0  0  0  0  0  0
   20.4384    8.4533    0.0000 H   0  0  0  0  0  0  0  0  0  0  0  0
   19.8451    7.9210    0.0000 H   0  0  0  0  0  0  0  0  0  0  0  0
    8.5663   -4.1472    0.0000 H   0  0  0  0  0  0  0  0  0  0  0  0
    9.1596   -3.6149    0.0000 H   0  0  0  0  0  0  0  0  0  0  0  0
   21.4580    7.4202    0.0000 H   0  0  0  0  0  0  0  0  0  0  0  0
   22.0513    7.9525    0.0000 H   0  0  0  0  0  0  0  0  0  0  0  0
    7.5467   -3.1141    0.0000 H   0  0  0  0  0  0  0  0  0  0  0  0
    6.9534   -3.6464    0.0000 H   0  0  0  0  0  0  0  0  0  0  0  0
   21.7276    9.6100    0.0000 H   0  0  0  0  0  0  0  0  0  0  0  0
   21.1343    9.0777    0.0000 H   0  0  0  0  0  0  0  0  0  0  0  0
   22.8545    8.5899    0.0000 H   0  0  0  0  0  0  0  0  0  0  0  0
   23.3333    9.3244    0.0000 H   0  0  0  0  0  0  0  0  0  0  0  0
   22.5988    9.8032    0.0000 H   0  0  0  0  0  0  0  0  0  0  0  0
    5.9880   -6.4607    0.0000 H   0  0  0  0  0  0  0  0  0  0  0  0
    6.5812   -5.9284    0.0000 H   0  0  0  0  0  0  0  0  0  0  0  0
    5.8640   -4.4290    0.0000 H   0  0  0  0  0  0  0  0  0  0  0  0
    4.9684   -5.4276    0.0000 H   0  0  0  0  0  0  0  0  0  0  0  0
    4.3751   -5.9599    0.0000 H   0  0  0  0  0  0  0  0  0  0  0  0
    5.8819   -7.8025    0.0000 H   0  0  0  0  0  0  0  0  0  0  0  0
    4.8709   -9.1966    0.0000 H   0  0  0  0  0  0  0  0  0  0  0  0
    2.8660   -6.1825    0.0000 H   0  0  0  0  0  0  0  0  0  0  0  0
    2.8660   -9.4225    0.0000 H   0  0  0  0  0  0  0  0  0  0  0  0
    1.4631   -6.9925    0.0000 H   0  0  0  0  0  0  0  0  0  0  0  0
    1.4631   -8.6125    0.0000 H   0  0  0  0  0  0  0  0  0  0  0  0
  1 27  2  0  0  0  0
  2 27  1  0  0  0  0
  2 29  1  0  0  0  0
  2 90  1  0  0  0  0
  3 33  1  0  0  0  0
  3 34  1  0  0  0  0
  3 94  1  0  0  0  0
  4  5  1  0  0  0  0
  4  6  1  0  0  0  0
  4 39  1  0  0  0  0
  4 40  1  0  0  0  0
  5  7  1  0  0  0  0
  5 41  1  0  0  0  0
  5 42  1  0  0  0  0
  6  8  1  0  0  0  0
  6 43  1  0  0  0  0
  6 44  1  0  0  0  0
  7  9  1  0  0  0  0
  7 45  1  0  0  0  0
  7 46  1  0  0  0  0
  8 10  1  0  0  0  0
  8 47  1  0  0  0  0
  8 48  1  0  0  0  0
  9 11  1  0  0  0  0
  9 49  1  0  0  0  0
  9 50  1  0  0  0  0
 10 12  1  0  0  0  0
 10 51  1  0  0  0  0
 10 52  1  0  0  0  0
 11 13  1  0  0  0  0
 11 53  1  0  0  0  0
 11 54  1  0  0  0  0
 12 14  1  0  0  0  0
 12 55  1  0  0  0  0
 12 56  1  0  0  0  0
 13 15  1  0  0  0  0
 13 57  1  0  0  0  0
 13 58  1  0  0  0  0
 14 16  1  0  0  0  0
 14 59  1  0  0  0  0
 14 60  1  0  0  0  0
 15 17  1  0  0  0  0
 15 61  1  0  0  0  0
 15 62  1  0  0  0  0
 16 18  1  0  0  0  0
 16 63  1  0  0  0  0
 16 64  1  0  0  0  0
 17 19  1  0  0  0  0
 17 65  1  0  0  0  0
 17 66  1  0  0  0  0
 18 20  1  0  0  0  0
 18 67  1  0  0  0  0
 18 68  1  0  0  0  0
 19 21  1  0  0  0  0
 19 69  1  0  0  0  0
 19 70  1  0  0  0  0
 20 22  1  0  0  0  0
 20 71  1  0  0  0  0
 20 72  1  0  0  0  0
 21 23  1  0  0  0  0
 21 73  1  0  0  0  0
 21 74  1  0  0  0  0
 22 24  1  0  0  0  0
 22 75  1  0  0  0  0
 22 76  1  0  0  0  0
 23 25  1  0  0  0  0
 23 77  1  0  0  0  0
 23 78  1  0  0  0  0
 24 26  1  0  0  0  0
 24 79  1  0  0  0  0
 24 80  1  0  0  0  0
 25 27  1  0  0  0  0
 25 81  1  0  0  0  0
 25 82  1  0  0  0  0
 26 28  1  0  0  0  0
 26 83  1  0  0  0  0
 26 84  1  0  0  0  0
 28 85  1  0  0  0  0
 28 86  1  0  0  0  0
 28 87  1  0  0  0  0
 29 30  1  0  0  0  0
 29 88  1  0  0  0  0
 29 89  1  0  0  0  0
 30 31  1  0  0  0  0
 30 91  1  0  0  0  0
 30 92  1  0  0  0  0
 31 32  1  0  0  0  0
 31 34  2  0  0  0  0
 32 33  1  0  0  0  0
 32 35  2  0  0  0  0
 33 36  2  0  0  0  0
 34 93  1  0  0  0  0
 35 37  1  0  0  0  0
 35 95  1  0  0  0  0
 36 38  1  0  0  0  0
 36 96  1  0  0  0  0
 37 38  2  0  0  0  0
 37 97  1  0  0  0  0
 38 98  1  0  0  0  0
M  END
>  <PUBCHEM_COMPOUND_CID>
10792189

>  <PUBCHEM_COMPOUND_CANONICALIZED>
1

>  <PUBCHEM_CACTVS_COMPLEXITY>
536

>  <PUBCHEM_CACTVS_HBOND_ACCEPTOR>
1

>  <PUBCHEM_CACTVS_HBOND_DONOR>
2

>  <PUBCHEM_CACTVS_ROTATABLE_BOND>
26

>  <PUBCHEM_CACTVS_SUBSKEYS>
AAADcfB/IAAAAAAAAAAAAAAAAAAAAWAAAAAwAAAAAAAAAFgB8AAAHgAQAAAADAjBngQ+wPLJkACoAzV3VACCgCAxAiAI2aE4ZJgIIPLAkZGEIAhglgDIyAcYiMCOgAAAAAACAAAAAAAAAAQAAAAAAAAAAA==

>  <PUBCHEM_IUPAC_OPENEYE_NAME>
N-[2-(1H-indol-3-yl)ethyl]pentacosanamide

>  <PUBCHEM_IUPAC_CAS_NAME>
N-[2-(1H-indol-3-yl)ethyl]pentacosanamide

>  <PUBCHEM_IUPAC_NAME>
N-[2-(1H-indol-3-yl)ethyl]pentacosanamide

>  <PUBCHEM_IUPAC_SYSTEMATIC_NAME>
N-[2-(1H-indol-3-yl)ethyl]pentacosanamide

>  <PUBCHEM_IUPAC_TRADITIONAL_NAME>
N-[2-(1H-indol-3-yl)ethyl]pentacosanamide

>  <PUBCHEM_IUPAC_INCHI>
InChI=1S/C35H60N2O/c1-2-3-4-5-6-7-8-9-10-11-12-13-14-15-16-17-18-19-20-21-22-23-28-35(38)36-30-29-32-31-37-34-27-25-24-26-33(32)34/h24-27,31,37H,2-23,28-30H2,1H3,(H,36,38)

>  <PUBCHEM_IUPAC_INCHIKEY>
CMFSUURRQYFHDN-UHFFFAOYSA-N

>  <PUBCHEM_XLOGP3>
14

>  <PUBCHEM_EXACT_MASS>
524.471

>  <PUBCHEM_MOLECULAR_FORMULA>
C35H60N2O

>  <PUBCHEM_MOLECULAR_WEIGHT>
524.878

>  <PUBCHEM_OPENEYE_CAN_SMILES>
CCCCCCCCCCCCCCCCCCCCCCCCC(=O)NCCC1=CNC2=CC=CC=C21

>  <PUBCHEM_OPENEYE_ISO_SMILES>
CCCCCCCCCCCCCCCCCCCCCCCCC(=O)NCCC1=CNC2=CC=CC=C21

>  <PUBCHEM_CACTVS_TPSA>
44.9

>  <PUBCHEM_MONOISOTOPIC_WEIGHT>
524.471

>  <PUBCHEM_TOTAL_CHARGE>
0

>  <PUBCHEM_HEAVY_ATOM_COUNT>
38

>  <PUBCHEM_ATOM_DEF_STEREO_COUNT>
0

>  <PUBCHEM_ATOM_UDEF_STEREO_COUNT>
0

>  <PUBCHEM_BOND_DEF_STEREO_COUNT>
0

>  <PUBCHEM_BOND_UDEF_STEREO_COUNT>
0

>  <PUBCHEM_ISOTOPIC_ATOM_COUNT>
0

>  <PUBCHEM_COMPONENT_COUNT>
1

>  <PUBCHEM_CACTVS_TAUTO_COUNT>
2

>  <PUBCHEM_COORDINATE_TYPE>
1
5
255

>  <PUBCHEM_BONDANNOTATIONS>
3  33  8
3  34  8
31  32  8
31  34  8
32  33  8
32  35  8
33  36  8
35  37  8
36  38  8
37  38  8

$$$$
