10881419
 OpenBabel06101807152D

 38 41  0  0  0  0  0  0  0  0999 V2000
    2.8718    0.2548    0.0000 O   0  0  0  0  0  0  0  0  0  0  0  0
    4.6298   -2.8176    0.0000 O   0  0  0  0  0  0  0  0  0  0  0  0
    2.8560   -1.7934    0.0000 O   0  0  0  0  0  0  0  0  0  0  0  0
    6.9733   -2.2842    0.0000 O   0  0  0  0  0  0  0  0  0  0  0  0
    6.9919   -0.5267    0.0000 N   0  0  0  0  0  0  0  0  0  0  0  0
    5.5080   -0.2483    0.0000 C   0  0  0  0  0  0  0  0  0  0  0  0
    4.6419    0.2517    0.0000 C   0  0  0  0  0  0  0  0  0  0  0  0
    6.3740    0.2517    0.0000 C   0  0  0  0  0  0  0  0  0  0  0  0
    5.5240   -1.2898    0.0000 C   0  0  0  0  0  0  0  0  0  0  0  0
    4.6419    1.2517    0.0000 C   0  0  0  0  0  0  0  0  0  0  0  0
    5.5080    1.7517    0.0000 C   0  0  0  0  0  0  0  0  0  0  0  0
    3.7319   -0.2552    0.0000 C   0  0  0  0  0  0  0  0  0  0  0  0
    6.3740    1.2517    0.0000 C   0  0  0  0  0  0  0  0  0  0  0  0
    4.6260   -1.8176    0.0000 C   0  0  0  0  0  0  0  0  0  0  0  0
    6.5120   -1.3970    0.0000 C   0  0  0  0  0  0  0  0  0  0  0  0
    3.7239   -1.2968    0.0000 C   0  0  0  0  0  0  0  0  0  0  0  0
    3.7319    1.7585    0.0000 C   0  0  0  0  0  0  0  0  0  0  0  0
    5.5240    2.7932    0.0000 C   0  0  0  0  0  0  0  0  0  0  0  0
    3.7239    2.8001    0.0000 C   0  0  0  0  0  0  0  0  0  0  0  0
    4.6260    3.3209    0.0000 C   0  0  0  0  0  0  0  0  0  0  0  0
    2.0000   -0.2352    0.0000 C   0  0  0  0  0  0  0  0  0  0  0  0
    3.7658   -3.3209    0.0000 C   0  0  0  0  0  0  0  0  0  0  0  0
    2.8521   -2.7934    0.0000 C   0  0  0  0  0  0  0  0  0  0  0  0
    6.9109    1.5617    0.0000 H   0  0  0  0  0  0  0  0  0  0  0  0
    7.6098   -0.4750    0.0000 H   0  0  0  0  0  0  0  0  0  0  0  0
    3.1986    1.4423    0.0000 H   0  0  0  0  0  0  0  0  0  0  0  0
    6.0645    3.0969    0.0000 H   0  0  0  0  0  0  0  0  0  0  0  0
    3.1858    3.1080    0.0000 H   0  0  0  0  0  0  0  0  0  0  0  0
    4.6284    3.9409    0.0000 H   0  0  0  0  0  0  0  0  0  0  0  0
    1.6962    0.3053    0.0000 H   0  0  0  0  0  0  0  0  0  0  0  0
    1.4595   -0.5389    0.0000 H   0  0  0  0  0  0  0  0  0  0  0  0
    2.3038   -0.7756    0.0000 H   0  0  0  0  0  0  0  0  0  0  0  0
    3.4537   -2.7852    0.0000 H   0  0  0  0  0  0  0  0  0  0  0  0
    3.2300   -3.6330    0.0000 H   0  0  0  0  0  0  0  0  0  0  0  0
    4.0778   -3.8567    0.0000 H   0  0  0  0  0  0  0  0  0  0  0  0
    2.2321   -2.7910    0.0000 H   0  0  0  0  0  0  0  0  0  0  0  0
    2.8497   -3.4134    0.0000 H   0  0  0  0  0  0  0  0  0  0  0  0
    3.4721   -2.7958    0.0000 H   0  0  0  0  0  0  0  0  0  0  0  0
  1 12  1  0  0  0  0
  1 21  1  0  0  0  0
  2 14  1  0  0  0  0
  2 22  1  0  0  0  0
  3 16  1  0  0  0  0
  3 23  1  0  0  0  0
  4 15  2  0  0  0  0
  5  8  1  0  0  0  0
  5 15  1  0  0  0  0
  5 25  1  0  0  0  0
  6  7  2  0  0  0  0
  6  8  1  0  0  0  0
  6  9  1  0  0  0  0
  7 10  1  0  0  0  0
  7 12  1  0  0  0  0
  8 13  2  0  0  0  0
  9 14  2  0  0  0  0
  9 15  1  0  0  0  0
 10 11  1  0  0  0  0
 10 17  2  0  0  0  0
 11 13  1  0  0  0  0
 11 18  2  0  0  0  0
 12 16  2  0  0  0  0
 13 24  1  0  0  0  0
 14 16  1  0  0  0  0
 17 19  1  0  0  0  0
 17 26  1  0  0  0  0
 18 20  1  0  0  0  0
 18 27  1  0  0  0  0
 19 20  2  0  0  0  0
 19 28  1  0  0  0  0
 20 29  1  0  0  0  0
 21 30  1  0  0  0  0
 21 31  1  0  0  0  0
 21 32  1  0  0  0  0
 22 33  1  0  0  0  0
 22 34  1  0  0  0  0
 22 35  1  0  0  0  0
 23 36  1  0  0  0  0
 23 37  1  0  0  0  0
 23 38  1  0  0  0  0
M  END
>  <PUBCHEM_COMPOUND_CID>
10881419

>  <PUBCHEM_COMPOUND_CANONICALIZED>
1

>  <PUBCHEM_CACTVS_COMPLEXITY>
470

>  <PUBCHEM_CACTVS_HBOND_ACCEPTOR>
4

>  <PUBCHEM_CACTVS_HBOND_DONOR>
1

>  <PUBCHEM_CACTVS_ROTATABLE_BOND>
3

>  <PUBCHEM_CACTVS_SUBSKEYS>
AAADccB6OAAAAAAAAAAAAAAAAAAAAWAAAAAwYMAAAAAAAFjBVAAAHgAQAAAADAyBmAIyxsLABACIAiVSUACCCAAlIgAIiAEE7MgNJzbEtZuEMWpn9BXK6Qe+/P/O6AADSAAaQADQAAaQADSAAAAAAAAAAA==

>  <PUBCHEM_IUPAC_INCHI>
InChI=1S/C18H15NO4/c1-21-15-12-10-7-5-4-6-9(10)8-11-13(12)14(18(20)19-11)16(22-2)17(15)23-3/h4-8H,1-3H3,(H,19,20)

>  <PUBCHEM_IUPAC_INCHIKEY>
GYYIMUXZCUHECT-UHFFFAOYSA-N

>  <PUBCHEM_XLOGP3_AA>
3.2

>  <PUBCHEM_EXACT_MASS>
309.1

>  <PUBCHEM_MOLECULAR_FORMULA>
C18H15NO4

>  <PUBCHEM_MOLECULAR_WEIGHT>
309.321

>  <PUBCHEM_OPENEYE_CAN_SMILES>
COC1=C(C(=C2C3=C1C4=CC=CC=C4C=C3NC2=O)OC)OC

>  <PUBCHEM_OPENEYE_ISO_SMILES>
COC1=C(C(=C2C3=C1C4=CC=CC=C4C=C3NC2=O)OC)OC

>  <PUBCHEM_CACTVS_TPSA>
56.8

>  <PUBCHEM_MONOISOTOPIC_WEIGHT>
309.1

>  <PUBCHEM_TOTAL_CHARGE>
0

>  <PUBCHEM_HEAVY_ATOM_COUNT>
23

>  <PUBCHEM_ATOM_DEF_STEREO_COUNT>
0

>  <PUBCHEM_ATOM_UDEF_STEREO_COUNT>
0

>  <PUBCHEM_BOND_DEF_STEREO_COUNT>
0

>  <PUBCHEM_BOND_UDEF_STEREO_COUNT>
0

>  <PUBCHEM_ISOTOPIC_ATOM_COUNT>
0

>  <PUBCHEM_COMPONENT_COUNT>
1

>  <PUBCHEM_CACTVS_TAUTO_COUNT>
2

>  <PUBCHEM_COORDINATE_TYPE>
1
5
255

>  <PUBCHEM_BONDANNOTATIONS>
10  11  8
10  17  8
11  13  8
11  18  8
12  16  8
14  16  8
17  19  8
18  20  8
19  20  8
6  7  8
6  8  8
6  9  8
7  10  8
7  12  8
8  13  8
9  14  8

$$$$
