11015855
 OpenBabel06101807152D

 61 63  0  0  0  0  0  0  0  0999 V2000
   11.5942   -0.2704    0.0000 O   0  0  0  0  0  0  0  0  0  0  0  0
    9.8458    2.7642    0.0000 O   0  0  0  0  0  0  0  0  0  0  0  0
    8.0641   -0.2945    0.0000 O   0  0  0  0  0  0  0  0  0  0  0  0
   13.3262    1.7296    0.0000 O   0  0  0  0  0  0  0  0  0  0  0  0
   11.5942    2.7296    0.0000 O   0  0  0  0  0  0  0  0  0  0  0  0
   14.1923   -2.7704    0.0000 O   0  0  0  0  0  0  0  0  0  0  0  0
   15.9243   -1.7704    0.0000 O   0  0  0  0  0  0  0  0  0  0  0  0
    8.9282    1.2504    0.0000 C   0  0  0  0  0  0  0  0  0  0  0  0
    8.0641    1.7538    0.0000 C   0  0  0  0  0  0  0  0  0  0  0  0
   10.7282    1.2296    0.0000 C   0  0  0  0  0  0  0  0  0  0  0  0
    9.8342    1.7643    0.0000 C   0  0  0  0  0  0  0  0  0  0  0  0
   10.7282    0.2296    0.0000 C   0  0  0  0  0  0  0  0  0  0  0  0
    6.3320    1.7604    0.0000 C   0  0  0  0  0  0  0  0  0  0  0  0
    5.4641    1.2638    0.0000 C   0  0  0  0  0  0  0  0  0  0  0  0
    8.9282    0.2088    0.0000 C   0  0  0  0  0  0  0  0  0  0  0  0
    7.1961    1.2571    0.0000 C   0  0  0  0  0  0  0  0  0  0  0  0
    9.8342   -0.3051    0.0000 C   0  0  0  0  0  0  0  0  0  0  0  0
   11.5942    1.7296    0.0000 C   0  0  0  0  0  0  0  0  0  0  0  0
    4.6000    1.7671    0.0000 C   0  0  0  0  0  0  0  0  0  0  0  0
   12.4602    0.2296    0.0000 C   0  0  0  0  0  0  0  0  0  0  0  0
   12.4602    1.2296    0.0000 C   0  0  0  0  0  0  0  0  0  0  0  0
    6.3359    2.7604    0.0000 C   0  0  0  0  0  0  0  0  0  0  0  0
   13.3262   -0.2704    0.0000 C   0  0  0  0  0  0  0  0  0  0  0  0
    3.7320    1.2704    0.0000 C   0  0  0  0  0  0  0  0  0  0  0  0
    2.8680    1.7738    0.0000 C   0  0  0  0  0  0  0  0  0  0  0  0
   13.3262   -1.2704    0.0000 C   0  0  0  0  0  0  0  0  0  0  0  0
   14.1923    0.2296    0.0000 C   0  0  0  0  0  0  0  0  0  0  0  0
   14.1923   -1.7704    0.0000 C   0  0  0  0  0  0  0  0  0  0  0  0
   15.0583   -0.2704    0.0000 C   0  0  0  0  0  0  0  0  0  0  0  0
   15.0583   -1.2704    0.0000 C   0  0  0  0  0  0  0  0  0  0  0  0
    2.0000    1.2771    0.0000 C   0  0  0  0  0  0  0  0  0  0  0  0
    2.8718    2.7738    0.0000 C   0  0  0  0  0  0  0  0  0  0  0  0
   13.3262    2.7296    0.0000 C   0  0  0  0  0  0  0  0  0  0  0  0
    8.4644    2.2272    0.0000 H   0  0  0  0  0  0  0  0  0  0  0  0
    7.6674    2.2302    0.0000 H   0  0  0  0  0  0  0  0  0  0  0  0
    5.0637    0.7904    0.0000 H   0  0  0  0  0  0  0  0  0  0  0  0
    5.8608    0.7873    0.0000 H   0  0  0  0  0  0  0  0  0  0  0  0
    7.1937    0.6371    0.0000 H   0  0  0  0  0  0  0  0  0  0  0  0
    9.8414   -0.9250    0.0000 H   0  0  0  0  0  0  0  0  0  0  0  0
    5.0003    2.2405    0.0000 H   0  0  0  0  0  0  0  0  0  0  0  0
    4.2033    2.2436    0.0000 H   0  0  0  0  0  0  0  0  0  0  0  0
    6.9559    2.7580    0.0000 H   0  0  0  0  0  0  0  0  0  0  0  0
    6.3383    3.3804    0.0000 H   0  0  0  0  0  0  0  0  0  0  0  0
    5.7159    2.7628    0.0000 H   0  0  0  0  0  0  0  0  0  0  0  0
    3.7296    0.6505    0.0000 H   0  0  0  0  0  0  0  0  0  0  0  0
    9.3125    3.0804    0.0000 H   0  0  0  0  0  0  0  0  0  0  0  0
   12.7893   -1.5804    0.0000 H   0  0  0  0  0  0  0  0  0  0  0  0
   14.1923    0.8496    0.0000 H   0  0  0  0  0  0  0  0  0  0  0  0
    8.0664   -0.9145    0.0000 H   0  0  0  0  0  0  0  0  0  0  0  0
   15.5952    0.0396    0.0000 H   0  0  0  0  0  0  0  0  0  0  0  0
    1.6921    1.8153    0.0000 H   0  0  0  0  0  0  0  0  0  0  0  0
    1.4619    0.9692    0.0000 H   0  0  0  0  0  0  0  0  0  0  0  0
    2.3079    0.7390    0.0000 H   0  0  0  0  0  0  0  0  0  0  0  0
    3.4918    2.7714    0.0000 H   0  0  0  0  0  0  0  0  0  0  0  0
    2.8742    3.3938    0.0000 H   0  0  0  0  0  0  0  0  0  0  0  0
    2.2518    2.7762    0.0000 H   0  0  0  0  0  0  0  0  0  0  0  0
   13.9462    2.7296    0.0000 H   0  0  0  0  0  0  0  0  0  0  0  0
   13.3262    3.3496    0.0000 H   0  0  0  0  0  0  0  0  0  0  0  0
   12.7062    2.7296    0.0000 H   0  0  0  0  0  0  0  0  0  0  0  0
   14.7292   -3.0804    0.0000 H   0  0  0  0  0  0  0  0  0  0  0  0
   16.4612   -1.4604    0.0000 H   0  0  0  0  0  0  0  0  0  0  0  0
  1 12  1  0  0  0  0
  1 20  1  0  0  0  0
  2 11  1  0  0  0  0
  2 46  1  0  0  0  0
  3 15  1  0  0  0  0
  3 49  1  0  0  0  0
  4 21  1  0  0  0  0
  4 33  1  0  0  0  0
  5 18  2  0  0  0  0
  6 28  1  0  0  0  0
  6 60  1  0  0  0  0
  7 30  1  0  0  0  0
  7 61  1  0  0  0  0
  8  9  1  0  0  0  0
  8 11  1  0  0  0  0
  8 15  2  0  0  0  0
  9 16  1  0  0  0  0
  9 34  1  0  0  0  0
  9 35  1  0  0  0  0
 10 11  2  0  0  0  0
 10 12  1  0  0  0  0
 10 18  1  0  0  0  0
 12 17  2  0  0  0  0
 13 14  1  0  0  0  0
 13 16  2  0  0  0  0
 13 22  1  0  0  0  0
 14 19  1  0  0  0  0
 14 36  1  0  0  0  0
 14 37  1  0  0  0  0
 15 17  1  0  0  0  0
 16 38  1  0  0  0  0
 17 39  1  0  0  0  0
 18 21  1  0  0  0  0
 19 24  1  0  0  0  0
 19 40  1  0  0  0  0
 19 41  1  0  0  0  0
 20 21  2  0  0  0  0
 20 23  1  0  0  0  0
 22 42  1  0  0  0  0
 22 43  1  0  0  0  0
 22 44  1  0  0  0  0
 23 26  2  0  0  0  0
 23 27  1  0  0  0  0
 24 25  2  0  0  0  0
 24 45  1  0  0  0  0
 25 31  1  0  0  0  0
 25 32  1  0  0  0  0
 26 28  1  0  0  0  0
 26 47  1  0  0  0  0
 27 29  2  0  0  0  0
 27 48  1  0  0  0  0
 28 30  2  0  0  0  0
 29 30  1  0  0  0  0
 29 50  1  0  0  0  0
 31 51  1  0  0  0  0
 31 52  1  0  0  0  0
 31 53  1  0  0  0  0
 32 54  1  0  0  0  0
 32 55  1  0  0  0  0
 32 56  1  0  0  0  0
 33 57  1  0  0  0  0
 33 58  1  0  0  0  0
 33 59  1  0  0  0  0
M  END
>  <PUBCHEM_COMPOUND_CID>
11015855

>  <PUBCHEM_COMPOUND_CANONICALIZED>
1

>  <PUBCHEM_CACTVS_COMPLEXITY>
795

>  <PUBCHEM_CACTVS_HBOND_ACCEPTOR>
7

>  <PUBCHEM_CACTVS_HBOND_DONOR>
4

>  <PUBCHEM_CACTVS_ROTATABLE_BOND>
7

>  <PUBCHEM_CACTVS_SUBSKEYS>
AAADceB4OAAAAAAAAAAAAAAAAAAAAAAAAAAwYIAAAAAAAACBQAAAGgAACAAADASAmAIyBoAABgCIAqBSAAICCAAkIAAIiAFGiMgNJzaGNR6CeWGl4BUJuQfI7PzOIAADCAAIQABAAAYQABCAAAAAAAAAAA==

>  <PUBCHEM_IUPAC_OPENEYE_NAME>
2-(3,4-dihydroxyphenyl)-6-[(2E)-3,7-dimethylocta-2,6-dienyl]-5,7-dihydroxy-3-methoxy-chromen-4-one

>  <PUBCHEM_IUPAC_CAS_NAME>
2-(3,4-dihydroxyphenyl)-6-[(2E)-3,7-dimethylocta-2,6-dienyl]-5,7-dihydroxy-3-methoxy-1-benzopyran-4-one

>  <PUBCHEM_IUPAC_NAME>
2-(3,4-dihydroxyphenyl)-6-[(2E)-3,7-dimethylocta-2,6-dienyl]-5,7-dihydroxy-3-methoxychromen-4-one

>  <PUBCHEM_IUPAC_SYSTEMATIC_NAME>
2-[3,4-bis(oxidanyl)phenyl]-6-[(2E)-3,7-dimethylocta-2,6-dienyl]-3-methoxy-5,7-bis(oxidanyl)chromen-4-one

>  <PUBCHEM_IUPAC_TRADITIONAL_NAME>
2-(3,4-dihydroxyphenyl)-6-[(2E)-3,7-dimethylocta-2,6-dienyl]-5,7-dihydroxy-3-methoxy-chromone

>  <PUBCHEM_IUPAC_INCHI>
InChI=1S/C26H28O7/c1-14(2)6-5-7-15(3)8-10-17-19(28)13-21-22(23(17)30)24(31)26(32-4)25(33-21)16-9-11-18(27)20(29)12-16/h6,8-9,11-13,27-30H,5,7,10H2,1-4H3/b15-8+

>  <PUBCHEM_IUPAC_INCHIKEY>
SFMXXEOUUFGNQC-OVCLIPMQSA-N

>  <PUBCHEM_XLOGP3_AA>
6.3

>  <PUBCHEM_EXACT_MASS>
452.184

>  <PUBCHEM_MOLECULAR_FORMULA>
C26H28O7

>  <PUBCHEM_MOLECULAR_WEIGHT>
452.503

>  <PUBCHEM_OPENEYE_CAN_SMILES>
CC(=CCCC(=CCC1=C(C=C2C(=C1O)C(=O)C(=C(O2)C3=CC(=C(C=C3)O)O)OC)O)C)C

>  <PUBCHEM_OPENEYE_ISO_SMILES>
CC(=CCC/C(=C/CC1=C(C=C2C(=C1O)C(=O)C(=C(O2)C3=CC(=C(C=C3)O)O)OC)O)/C)C

>  <PUBCHEM_CACTVS_TPSA>
116

>  <PUBCHEM_MONOISOTOPIC_WEIGHT>
452.184

>  <PUBCHEM_TOTAL_CHARGE>
0

>  <PUBCHEM_HEAVY_ATOM_COUNT>
33

>  <PUBCHEM_ATOM_DEF_STEREO_COUNT>
0

>  <PUBCHEM_ATOM_UDEF_STEREO_COUNT>
0

>  <PUBCHEM_BOND_DEF_STEREO_COUNT>
1

>  <PUBCHEM_BOND_UDEF_STEREO_COUNT>
0

>  <PUBCHEM_ISOTOPIC_ATOM_COUNT>
0

>  <PUBCHEM_COMPONENT_COUNT>
1

>  <PUBCHEM_CACTVS_TAUTO_COUNT>
162

>  <PUBCHEM_COORDINATE_TYPE>
1
5
255

>  <PUBCHEM_BONDANNOTATIONS>
1  12  8
1  20  8
10  11  8
10  12  8
10  18  8
12  17  8
15  17  8
18  21  8
20  21  8
23  26  8
23  27  8
26  28  8
27  29  8
28  30  8
29  30  8
8  11  8
8  15  8

$$$$
