11100652
 OpenBabel06101807152D

 61 61  0  0  1  0  0  0  0  0999 V2000
    3.8660   -6.5950    0.0000 O   0  0  0  0  0  0  0  0  0  0  0  0
    9.9282    6.9050    0.0000 O   0  0  0  0  0  0  0  0  0  0  0  0
    3.0000   -4.0950    0.0000 C   0  0  0  0  0  0  0  0  0  0  0  0
    3.0000   -5.0950    0.0000 C   0  0  0  0  0  0  0  0  0  0  0  0
    3.8660   -5.5950    0.0000 C   0  0  1  0  0  0  0  0  0  0  0  0
    3.8660   -3.5950    0.0000 C   0  0  0  0  0  0  0  0  0  0  0  0
    4.7320   -5.0950    0.0000 C   0  0  0  0  0  0  0  0  0  0  0  0
    4.7320   -4.0950    0.0000 C   0  0  0  0  0  0  0  0  0  0  0  0
    2.0000   -4.0950    0.0000 C   0  0  0  0  0  0  0  0  0  0  0  0
    2.5000   -3.2290    0.0000 C   0  0  0  0  0  0  0  0  0  0  0  0
    3.8660   -2.5950    0.0000 C   0  0  0  0  0  0  0  0  0  0  0  0
    5.5981   -3.5950    0.0000 C   0  0  0  0  0  0  0  0  0  0  0  0
    4.7320   -2.0950    0.0000 C   0  0  0  0  0  0  0  0  0  0  0  0
    4.7320   -1.0950    0.0000 C   0  0  0  0  0  0  0  0  0  0  0  0
    3.8660   -0.5950    0.0000 C   0  0  0  0  0  0  0  0  0  0  0  0
    5.5981   -0.5950    0.0000 C   0  0  0  0  0  0  0  0  0  0  0  0
    5.5981    0.4050    0.0000 C   0  0  0  0  0  0  0  0  0  0  0  0
    6.4641    0.9050    0.0000 C   0  0  0  0  0  0  0  0  0  0  0  0
    6.4641    1.9050    0.0000 C   0  0  0  0  0  0  0  0  0  0  0  0
    5.5981    2.4050    0.0000 C   0  0  0  0  0  0  0  0  0  0  0  0
    7.3301    2.4050    0.0000 C   0  0  0  0  0  0  0  0  0  0  0  0
    7.3301    3.4050    0.0000 C   0  0  0  0  0  0  0  0  0  0  0  0
    8.1962    3.9050    0.0000 C   0  0  0  0  0  0  0  0  0  0  0  0
    8.1962    4.9050    0.0000 C   0  0  0  0  0  0  0  0  0  0  0  0
    9.0622    5.4050    0.0000 C   0  0  0  0  0  0  0  0  0  0  0  0
    9.9282    4.9050    0.0000 C   0  0  0  0  0  0  0  0  0  0  0  0
    9.0622    6.4050    0.0000 C   0  0  0  0  0  0  0  0  0  0  0  0
    2.3894   -4.9873    0.0000 H   0  0  0  0  0  0  0  0  0  0  0  0
    2.7880   -5.6776    0.0000 H   0  0  0  0  0  0  0  0  0  0  0  0
    4.4030   -5.9050    0.0000 H   0  0  0  0  0  0  0  0  0  0  0  0
    4.9441   -5.6776    0.0000 H   0  0  0  0  0  0  0  0  0  0  0  0
    5.3426   -4.9873    0.0000 H   0  0  0  0  0  0  0  0  0  0  0  0
    2.0000   -3.4750    0.0000 H   0  0  0  0  0  0  0  0  0  0  0  0
    1.3800   -4.0950    0.0000 H   0  0  0  0  0  0  0  0  0  0  0  0
    2.0000   -4.7150    0.0000 H   0  0  0  0  0  0  0  0  0  0  0  0
    3.0369   -2.9190    0.0000 H   0  0  0  0  0  0  0  0  0  0  0  0
    2.1900   -2.6920    0.0000 H   0  0  0  0  0  0  0  0  0  0  0  0
    1.9631   -3.5390    0.0000 H   0  0  0  0  0  0  0  0  0  0  0  0
    3.3291   -2.2850    0.0000 H   0  0  0  0  0  0  0  0  0  0  0  0
    5.9081   -4.1319    0.0000 H   0  0  0  0  0  0  0  0  0  0  0  0
    6.1350   -3.2850    0.0000 H   0  0  0  0  0  0  0  0  0  0  0  0
    5.2881   -3.0581    0.0000 H   0  0  0  0  0  0  0  0  0  0  0  0
    4.4030   -6.9050    0.0000 H   0  0  0  0  0  0  0  0  0  0  0  0
    5.2690   -2.4050    0.0000 H   0  0  0  0  0  0  0  0  0  0  0  0
    4.1760   -0.0581    0.0000 H   0  0  0  0  0  0  0  0  0  0  0  0
    3.3291   -0.2850    0.0000 H   0  0  0  0  0  0  0  0  0  0  0  0
    3.5560   -1.1319    0.0000 H   0  0  0  0  0  0  0  0  0  0  0  0
    6.1350   -0.9050    0.0000 H   0  0  0  0  0  0  0  0  0  0  0  0
    5.0611    0.7150    0.0000 H   0  0  0  0  0  0  0  0  0  0  0  0
    7.0010    0.5950    0.0000 H   0  0  0  0  0  0  0  0  0  0  0  0
    5.9081    2.9419    0.0000 H   0  0  0  0  0  0  0  0  0  0  0  0
    5.0611    2.7150    0.0000 H   0  0  0  0  0  0  0  0  0  0  0  0
    5.2881    1.8681    0.0000 H   0  0  0  0  0  0  0  0  0  0  0  0
    7.8671    2.0950    0.0000 H   0  0  0  0  0  0  0  0  0  0  0  0
    6.7932    3.7150    0.0000 H   0  0  0  0  0  0  0  0  0  0  0  0
    8.7331    3.5950    0.0000 H   0  0  0  0  0  0  0  0  0  0  0  0
    7.6592    5.2150    0.0000 H   0  0  0  0  0  0  0  0  0  0  0  0
    9.6182    4.3681    0.0000 H   0  0  0  0  0  0  0  0  0  0  0  0
   10.4651    4.5950    0.0000 H   0  0  0  0  0  0  0  0  0  0  0  0
   10.2382    5.4419    0.0000 H   0  0  0  0  0  0  0  0  0  0  0  0
    8.5252    6.7150    0.0000 H   0  0  0  0  0  0  0  0  0  0  0  0
  1 43  1  0  0  0  0
  2 27  2  0  0  0  0
  3  4  1  0  0  0  0
  3  6  1  0  0  0  0
  3  9  1  0  0  0  0
  3 10  1  0  0  0  0
  4  5  1  0  0  0  0
  4 28  1  0  0  0  0
  4 29  1  0  0  0  0
  5  1  1  0  0  0  0
  5  7  1  0  0  0  0
  5 30  1  6  0  0  0
  6  8  2  0  0  0  0
  6 11  1  0  0  0  0
  7  8  1  0  0  0  0
  7 31  1  0  0  0  0
  7 32  1  0  0  0  0
  8 12  1  0  0  0  0
  9 33  1  0  0  0  0
  9 34  1  0  0  0  0
  9 35  1  0  0  0  0
 10 36  1  0  0  0  0
 10 37  1  0  0  0  0
 10 38  1  0  0  0  0
 11 13  2  0  0  0  0
 11 39  1  0  0  0  0
 12 40  1  0  0  0  0
 12 41  1  0  0  0  0
 12 42  1  0  0  0  0
 13 14  1  0  0  0  0
 13 44  1  0  0  0  0
 14 15  1  0  0  0  0
 14 16  2  0  0  0  0
 15 45  1  0  0  0  0
 15 46  1  0  0  0  0
 15 47  1  0  0  0  0
 16 17  1  0  0  0  0
 16 48  1  0  0  0  0
 17 18  2  0  0  0  0
 17 49  1  0  0  0  0
 18 19  1  0  0  0  0
 18 50  1  0  0  0  0
 19 20  1  0  0  0  0
 19 21  2  0  0  0  0
 20 51  1  0  0  0  0
 20 52  1  0  0  0  0
 20 53  1  0  0  0  0
 21 22  1  0  0  0  0
 21 54  1  0  0  0  0
 22 23  2  0  0  0  0
 22 55  1  0  0  0  0
 23 24  1  0  0  0  0
 23 56  1  0  0  0  0
 24 25  2  0  0  0  0
 24 57  1  0  0  0  0
 25 26  1  0  0  0  0
 25 27  1  0  0  0  0
 26 58  1  0  0  0  0
 26 59  1  0  0  0  0
 26 60  1  0  0  0  0
 27 61  1  0  0  0  0
M  END
>  <PUBCHEM_COMPOUND_CID>
11100652

>  <PUBCHEM_COMPOUND_CANONICALIZED>
1

>  <PUBCHEM_CACTVS_COMPLEXITY>
734

>  <PUBCHEM_CACTVS_HBOND_ACCEPTOR>
2

>  <PUBCHEM_CACTVS_HBOND_DONOR>
1

>  <PUBCHEM_CACTVS_ROTATABLE_BOND>
7

>  <PUBCHEM_CACTVS_SUBSKEYS>
AAADcfB4MAAAAAAAAAAAAAAAAAAAAAAAAAAgAAAAAAAAAAAAAAAAGgAACAAADhSggAICAAAAAgCIAihSgAAAAAAgAAAICAEAAEgIEAIAAQAAQAAEwAAIgYOAgMAPAAAAAAAAAAAAAAAAAAAAAAAAAAAAAA==

>  <PUBCHEM_IUPAC_OPENEYE_NAME>
(2E,4E,6E,8E,10E,12E)-13-[(4R)-4-hydroxy-2,6,6-trimethyl-cyclohexen-1-yl]-2,7,11-trimethyl-trideca-2,4,6,8,10,12-hexaenal

>  <PUBCHEM_IUPAC_CAS_NAME>
(2E,4E,6E,8E,10E,12E)-13-[(4R)-4-hydroxy-2,6,6-trimethyl-1-cyclohexenyl]-2,7,11-trimethyltrideca-2,4,6,8,10,12-hexaenal

>  <PUBCHEM_IUPAC_NAME>
(2E,4E,6E,8E,10E,12E)-13-[(4R)-4-hydroxy-2,6,6-trimethylcyclohexen-1-yl]-2,7,11-trimethyltrideca-2,4,6,8,10,12-hexaenal

>  <PUBCHEM_IUPAC_SYSTEMATIC_NAME>
(2E,4E,6E,8E,10E,12E)-2,7,11-trimethyl-13-[(4R)-2,6,6-trimethyl-4-oxidanyl-cyclohexen-1-yl]trideca-2,4,6,8,10,12-hexaenal

>  <PUBCHEM_IUPAC_TRADITIONAL_NAME>
(2E,4E,6E,8E,10E,12E)-13-[(4R)-4-hydroxy-2,6,6-trimethyl-cyclohexen-1-yl]-2,7,11-trimethyl-trideca-2,4,6,8,10,12-hexaenal

>  <PUBCHEM_IUPAC_INCHI>
InChI=1S/C25H34O2/c1-19(10-7-8-11-21(3)18-26)12-9-13-20(2)14-15-24-22(4)16-23(27)17-25(24,5)6/h7-15,18,23,27H,16-17H2,1-6H3/b8-7+,12-9+,15-14+,19-10+,20-13+,21-11+/t23-/m1/s1

>  <PUBCHEM_IUPAC_INCHIKEY>
PAUIQDPAEDELMC-HEZGKBSMSA-N

>  <PUBCHEM_XLOGP3_AA>
6.2

>  <PUBCHEM_EXACT_MASS>
366.256

>  <PUBCHEM_MOLECULAR_FORMULA>
C25H34O2

>  <PUBCHEM_MOLECULAR_WEIGHT>
366.545

>  <PUBCHEM_OPENEYE_CAN_SMILES>
CC1=C(C(CC(C1)O)(C)C)C=CC(=CC=CC(=CC=CC=C(C)C=O)C)C

>  <PUBCHEM_OPENEYE_ISO_SMILES>
CC1=C(C(C[C@@H](C1)O)(C)C)/C=C/C(=C/C=C/C(=C/C=C/C=C(\C)/C=O)/C)/C

>  <PUBCHEM_CACTVS_TPSA>
37.3

>  <PUBCHEM_MONOISOTOPIC_WEIGHT>
366.256

>  <PUBCHEM_TOTAL_CHARGE>
0

>  <PUBCHEM_HEAVY_ATOM_COUNT>
27

>  <PUBCHEM_ATOM_DEF_STEREO_COUNT>
1

>  <PUBCHEM_ATOM_UDEF_STEREO_COUNT>
0

>  <PUBCHEM_BOND_DEF_STEREO_COUNT>
6

>  <PUBCHEM_BOND_UDEF_STEREO_COUNT>
0

>  <PUBCHEM_ISOTOPIC_ATOM_COUNT>
0

>  <PUBCHEM_COMPONENT_COUNT>
1

>  <PUBCHEM_CACTVS_TAUTO_COUNT>
1

>  <PUBCHEM_COORDINATE_TYPE>
1
5
255

>  <PUBCHEM_BONDANNOTATIONS>
5  1  5

$$$$
