11108126
 OpenBabel06101807152D

 33 35  0  0  1  0  0  0  0  0999 V2000
    7.3424    0.1671    0.0000 O   0  0  0  0  0  0  0  0  0  0  0  0
    9.9260   -0.6377    0.0000 O   0  0  0  0  0  0  0  0  0  0  0  0
    3.7702    0.3970    0.0000 O   0  0  0  0  0  0  0  0  0  0  0  0
    5.5301    1.3623    0.0000 O   0  0  0  0  0  0  0  0  0  0  0  0
    2.0000    0.3865    0.0000 O   0  0  0  0  0  0  0  0  0  0  0  0
    7.9260   -0.6377    0.0000 C   0  0  3  0  0  0  0  0  0  0  0  0
    8.9260   -0.6377    0.0000 C   0  0  0  0  0  0  0  0  0  0  0  0
    7.3424   -1.4424    0.0000 C   0  0  0  0  0  0  0  0  0  0  0  0
    6.3961   -1.1377    0.0000 C   0  0  0  0  0  0  0  0  0  0  0  0
    6.3961   -0.1377    0.0000 C   0  0  0  0  0  0  0  0  0  0  0  0
    8.9260   -1.6377    0.0000 C   0  0  0  0  0  0  0  0  0  0  0  0
    8.9260    0.3623    0.0000 C   0  0  0  0  0  0  0  0  0  0  0  0
    5.5301   -1.6377    0.0000 C   0  0  0  0  0  0  0  0  0  0  0  0
    5.5301    0.3623    0.0000 C   0  0  0  0  0  0  0  0  0  0  0  0
    4.6641   -1.1377    0.0000 C   0  0  0  0  0  0  0  0  0  0  0  0
    4.6641   -0.1377    0.0000 C   0  0  0  0  0  0  0  0  0  0  0  0
    3.7702   -1.6723    0.0000 C   0  0  0  0  0  0  0  0  0  0  0  0
    2.8641   -1.1585    0.0000 C   0  0  0  0  0  0  0  0  0  0  0  0
    2.8641   -0.1169    0.0000 C   0  0  0  0  0  0  0  0  0  0  0  0
    8.2077   -0.0854    0.0000 H   0  0  0  0  0  0  0  0  0  0  0  0
    7.0913   -2.0093    0.0000 H   0  0  0  0  0  0  0  0  0  0  0  0
    7.8798   -1.7516    0.0000 H   0  0  0  0  0  0  0  0  0  0  0  0
    9.5460    0.3623    0.0000 H   0  0  0  0  0  0  0  0  0  0  0  0
    8.9260    0.9823    0.0000 H   0  0  0  0  0  0  0  0  0  0  0  0
    8.3060   -1.6377    0.0000 H   0  0  0  0  0  0  0  0  0  0  0  0
    8.9260   -2.2577    0.0000 H   0  0  0  0  0  0  0  0  0  0  0  0
    9.5460   -1.6377    0.0000 H   0  0  0  0  0  0  0  0  0  0  0  0
    8.3060    0.3623    0.0000 H   0  0  0  0  0  0  0  0  0  0  0  0
    5.5301   -2.2577    0.0000 H   0  0  0  0  0  0  0  0  0  0  0  0
   10.2360   -1.1746    0.0000 H   0  0  0  0  0  0  0  0  0  0  0  0
    3.7773   -2.2923    0.0000 H   0  0  0  0  0  0  0  0  0  0  0  0
    4.9932    1.6723    0.0000 H   0  0  0  0  0  0  0  0  0  0  0  0
    2.3284   -1.4706    0.0000 H   0  0  0  0  0  0  0  0  0  0  0  0
  1  6  1  0  0  0  0
  1 10  1  0  0  0  0
  2  7  1  0  0  0  0
  2 30  1  0  0  0  0
  3 16  1  0  0  0  0
  3 19  1  0  0  0  0
  4 14  1  0  0  0  0
  4 32  1  0  0  0  0
  5 19  2  0  0  0  0
  6  7  1  0  0  0  0
  6  8  1  0  0  0  0
  6 20  1  0  0  0  0
  7 11  1  0  0  0  0
  7 12  1  0  0  0  0
  8  9  1  0  0  0  0
  8 21  1  0  0  0  0
  8 22  1  0  0  0  0
  9 10  2  0  0  0  0
  9 13  1  0  0  0  0
 10 14  1  0  0  0  0
 11 25  1  0  0  0  0
 11 26  1  0  0  0  0
 11 27  1  0  0  0  0
 12 23  1  0  0  0  0
 12 24  1  0  0  0  0
 12 28  1  0  0  0  0
 13 15  2  0  0  0  0
 13 29  1  0  0  0  0
 14 16  2  0  0  0  0
 15 16  1  0  0  0  0
 15 17  1  0  0  0  0
 17 18  2  0  0  0  0
 17 31  1  0  0  0  0
 18 19  1  0  0  0  0
 18 33  1  0  0  0  0
M  END
>  <PUBCHEM_COMPOUND_CID>
11108126

>  <PUBCHEM_COMPOUND_CANONICALIZED>
1

>  <PUBCHEM_CACTVS_COMPLEXITY>
416

>  <PUBCHEM_CACTVS_HBOND_ACCEPTOR>
5

>  <PUBCHEM_CACTVS_HBOND_DONOR>
2

>  <PUBCHEM_CACTVS_ROTATABLE_BOND>
1

>  <PUBCHEM_CACTVS_SUBSKEYS>
AAADccBwOAAAAAAAAAAAAAAAAAAAASAAAAAwQAAAAAAAAEiBAAAAGgAACAAADFSgmAIyDoAABgCIAiDSCAACCAAgIAAIiAAEiMgNJyKGMRqCeiOlwBULuYeA4PwOIAADCAAIQABAAAYQABCAAAAAAAAAAA==

>  <PUBCHEM_IUPAC_OPENEYE_NAME>
9-hydroxy-2-(1-hydroxy-1-methyl-ethyl)-2,3-dihydrofuro[3,2-g]chromen-7-one

>  <PUBCHEM_IUPAC_CAS_NAME>
9-hydroxy-2-(2-hydroxypropan-2-yl)-2,3-dihydrofuro[3,2-g][1]benzopyran-7-one

>  <PUBCHEM_IUPAC_NAME>
9-hydroxy-2-(2-hydroxypropan-2-yl)-2,3-dihydrofuro[3,2-g]chromen-7-one

>  <PUBCHEM_IUPAC_SYSTEMATIC_NAME>
9-oxidanyl-2-(2-oxidanylpropan-2-yl)-2,3-dihydrofuro[3,2-g]chromen-7-one

>  <PUBCHEM_IUPAC_TRADITIONAL_NAME>
9-hydroxy-2-(1-hydroxy-1-methyl-ethyl)-2,3-dihydrofuro[3,2-g]chromen-7-one

>  <PUBCHEM_IUPAC_INCHI>
InChI=1S/C14H14O5/c1-14(2,17)9-6-8-5-7-3-4-10(15)19-12(7)11(16)13(8)18-9/h3-5,9,16-17H,6H2,1-2H3

>  <PUBCHEM_IUPAC_INCHIKEY>
FVFQELHSZVFPDZ-UHFFFAOYSA-N

>  <PUBCHEM_XLOGP3_AA>
1.6

>  <PUBCHEM_EXACT_MASS>
262.084

>  <PUBCHEM_MOLECULAR_FORMULA>
C14H14O5

>  <PUBCHEM_MOLECULAR_WEIGHT>
262.261

>  <PUBCHEM_OPENEYE_CAN_SMILES>
CC(C)(C1CC2=C(O1)C(=C3C(=C2)C=CC(=O)O3)O)O

>  <PUBCHEM_OPENEYE_ISO_SMILES>
CC(C)(C1CC2=C(O1)C(=C3C(=C2)C=CC(=O)O3)O)O

>  <PUBCHEM_CACTVS_TPSA>
76

>  <PUBCHEM_MONOISOTOPIC_WEIGHT>
262.084

>  <PUBCHEM_TOTAL_CHARGE>
0

>  <PUBCHEM_HEAVY_ATOM_COUNT>
19

>  <PUBCHEM_ATOM_DEF_STEREO_COUNT>
0

>  <PUBCHEM_ATOM_UDEF_STEREO_COUNT>
1

>  <PUBCHEM_BOND_DEF_STEREO_COUNT>
0

>  <PUBCHEM_BOND_UDEF_STEREO_COUNT>
0

>  <PUBCHEM_ISOTOPIC_ATOM_COUNT>
0

>  <PUBCHEM_COMPONENT_COUNT>
1

>  <PUBCHEM_CACTVS_TAUTO_COUNT>
1

>  <PUBCHEM_COORDINATE_TYPE>
1
5
255

>  <PUBCHEM_BONDANNOTATIONS>
10  14  8
13  15  8
14  16  8
15  16  8
15  17  8
17  18  8
18  19  8
3  16  8
3  19  8
6  7  3
9  10  8
9  13  8

$$$$
