11127505
 OpenBabel06101807152D

 35 35  0  0  1  0  0  0  0  0999 V2000
    3.8660   -2.8450    0.0000 O   0  0  0  0  0  0  0  0  0  0  0  0
    3.8660    3.1550    0.0000 O   0  0  0  0  0  0  0  0  0  0  0  0
    3.0000   -0.3450    0.0000 C   0  0  0  0  0  0  0  0  0  0  0  0
    3.0000   -1.3450    0.0000 C   0  0  0  0  0  0  0  0  0  0  0  0
    3.8660   -1.8450    0.0000 C   0  0  1  0  0  0  0  0  0  0  0  0
    3.8660    0.1550    0.0000 C   0  0  0  0  0  0  0  0  0  0  0  0
    4.7320   -1.3450    0.0000 C   0  0  0  0  0  0  0  0  0  0  0  0
    4.7320   -0.3450    0.0000 C   0  0  0  0  0  0  0  0  0  0  0  0
    2.0000   -0.3450    0.0000 C   0  0  0  0  0  0  0  0  0  0  0  0
    2.5000    0.5210    0.0000 C   0  0  0  0  0  0  0  0  0  0  0  0
    3.8660    1.1550    0.0000 C   0  0  0  0  0  0  0  0  0  0  0  0
    5.5981    0.1550    0.0000 C   0  0  0  0  0  0  0  0  0  0  0  0
    4.7320    1.6550    0.0000 C   0  0  0  0  0  0  0  0  0  0  0  0
    4.7320    2.6550    0.0000 C   0  0  0  0  0  0  0  0  0  0  0  0
    5.5981    3.1550    0.0000 C   0  0  0  0  0  0  0  0  0  0  0  0
    2.3894   -1.2373    0.0000 H   0  0  0  0  0  0  0  0  0  0  0  0
    2.7880   -1.9276    0.0000 H   0  0  0  0  0  0  0  0  0  0  0  0
    4.4030   -2.1550    0.0000 H   0  0  0  0  0  0  0  0  0  0  0  0
    4.9441   -1.9276    0.0000 H   0  0  0  0  0  0  0  0  0  0  0  0
    5.3426   -1.2373    0.0000 H   0  0  0  0  0  0  0  0  0  0  0  0
    3.0369    0.8310    0.0000 H   0  0  0  0  0  0  0  0  0  0  0  0
    2.1900    1.0580    0.0000 H   0  0  0  0  0  0  0  0  0  0  0  0
    2.0000    0.2750    0.0000 H   0  0  0  0  0  0  0  0  0  0  0  0
    1.3800   -0.3450    0.0000 H   0  0  0  0  0  0  0  0  0  0  0  0
    2.0000   -0.9650    0.0000 H   0  0  0  0  0  0  0  0  0  0  0  0
    1.9631    0.2110    0.0000 H   0  0  0  0  0  0  0  0  0  0  0  0
    3.3291    1.4650    0.0000 H   0  0  0  0  0  0  0  0  0  0  0  0
    5.9081   -0.3819    0.0000 H   0  0  0  0  0  0  0  0  0  0  0  0
    6.1350    0.4650    0.0000 H   0  0  0  0  0  0  0  0  0  0  0  0
    5.2881    0.6919    0.0000 H   0  0  0  0  0  0  0  0  0  0  0  0
    4.4030   -3.1550    0.0000 H   0  0  0  0  0  0  0  0  0  0  0  0
    5.2690    1.3450    0.0000 H   0  0  0  0  0  0  0  0  0  0  0  0
    5.9081    2.6181    0.0000 H   0  0  0  0  0  0  0  0  0  0  0  0
    6.1350    3.4650    0.0000 H   0  0  0  0  0  0  0  0  0  0  0  0
    5.2881    3.6919    0.0000 H   0  0  0  0  0  0  0  0  0  0  0  0
  1 31  1  0  0  0  0
  2 14  2  0  0  0  0
  3  4  1  0  0  0  0
  3  6  1  0  0  0  0
  3  9  1  0  0  0  0
  3 10  1  0  0  0  0
  4  5  1  0  0  0  0
  4 16  1  0  0  0  0
  4 17  1  0  0  0  0
  5  1  1  0  0  0  0
  5  7  1  0  0  0  0
  5 18  1  6  0  0  0
  6  8  2  0  0  0  0
  6 11  1  0  0  0  0
  7  8  1  0  0  0  0
  7 19  1  0  0  0  0
  7 20  1  0  0  0  0
  8 12  1  0  0  0  0
  9 23  1  0  0  0  0
  9 24  1  0  0  0  0
  9 25  1  0  0  0  0
 10 21  1  0  0  0  0
 10 22  1  0  0  0  0
 10 26  1  0  0  0  0
 11 13  2  0  0  0  0
 11 27  1  0  0  0  0
 12 28  1  0  0  0  0
 12 29  1  0  0  0  0
 12 30  1  0  0  0  0
 13 14  1  0  0  0  0
 13 32  1  0  0  0  0
 14 15  1  0  0  0  0
 15 33  1  0  0  0  0
 15 34  1  0  0  0  0
 15 35  1  0  0  0  0
M  END
>  <PUBCHEM_COMPOUND_CID>
11127505

>  <PUBCHEM_COMPOUND_CANONICALIZED>
1

>  <PUBCHEM_CACTVS_COMPLEXITY>
321

>  <PUBCHEM_CACTVS_HBOND_ACCEPTOR>
2

>  <PUBCHEM_CACTVS_HBOND_DONOR>
1

>  <PUBCHEM_CACTVS_ROTATABLE_BOND>
2

>  <PUBCHEM_CACTVS_SUBSKEYS>
AAADceBwMAAAAAAAAAAAAAAAAAAAAAAAAAAgAAAAAAAAAAAAAAAAGgAACAAADhSggAICAAAAAgCIAqBSAAAAAAAgAAAICAAAAEgIEAIAAAAAQAAEwAAIgYOAgMAPAAAAAAAAAAAAAAAAAAAAAAAAAAAAAA==

>  <PUBCHEM_IUPAC_OPENEYE_NAME>
(E)-4-[(4R)-4-hydroxy-2,6,6-trimethyl-cyclohexen-1-yl]but-3-en-2-one

>  <PUBCHEM_IUPAC_CAS_NAME>
(E)-4-[(4R)-4-hydroxy-2,6,6-trimethyl-1-cyclohexenyl]-3-buten-2-one

>  <PUBCHEM_IUPAC_NAME>
(E)-4-[(4R)-4-hydroxy-2,6,6-trimethylcyclohexen-1-yl]but-3-en-2-one

>  <PUBCHEM_IUPAC_SYSTEMATIC_NAME>
(E)-4-[(4R)-2,6,6-trimethyl-4-oxidanyl-cyclohexen-1-yl]but-3-en-2-one

>  <PUBCHEM_IUPAC_TRADITIONAL_NAME>
(E)-4-[(4R)-4-hydroxy-2,6,6-trimethyl-cyclohexen-1-yl]but-3-en-2-one

>  <PUBCHEM_IUPAC_INCHI>
InChI=1S/C13H20O2/c1-9-7-11(15)8-13(3,4)12(9)6-5-10(2)14/h5-6,11,15H,7-8H2,1-4H3/b6-5+/t11-/m1/s1

>  <PUBCHEM_IUPAC_INCHIKEY>
HFRZSVYKDDZRQY-MVIFTORASA-N

>  <PUBCHEM_XLOGP3_AA>
1.6

>  <PUBCHEM_EXACT_MASS>
208.146

>  <PUBCHEM_MOLECULAR_FORMULA>
C13H20O2

>  <PUBCHEM_MOLECULAR_WEIGHT>
208.301

>  <PUBCHEM_OPENEYE_CAN_SMILES>
CC1=C(C(CC(C1)O)(C)C)C=CC(=O)C

>  <PUBCHEM_OPENEYE_ISO_SMILES>
CC1=C(C(C[C@@H](C1)O)(C)C)/C=C/C(=O)C

>  <PUBCHEM_CACTVS_TPSA>
37.3

>  <PUBCHEM_MONOISOTOPIC_WEIGHT>
208.146

>  <PUBCHEM_TOTAL_CHARGE>
0

>  <PUBCHEM_HEAVY_ATOM_COUNT>
15

>  <PUBCHEM_ATOM_DEF_STEREO_COUNT>
1

>  <PUBCHEM_ATOM_UDEF_STEREO_COUNT>
0

>  <PUBCHEM_BOND_DEF_STEREO_COUNT>
1

>  <PUBCHEM_BOND_UDEF_STEREO_COUNT>
0

>  <PUBCHEM_ISOTOPIC_ATOM_COUNT>
0

>  <PUBCHEM_COMPONENT_COUNT>
1

>  <PUBCHEM_CACTVS_TAUTO_COUNT>
12

>  <PUBCHEM_COORDINATE_TYPE>
1
5
255

>  <PUBCHEM_BONDANNOTATIONS>
5  1  5

$$$$
