11143989
 OpenBabel06101807152D

 54 58  0  0  0  0  0  0  0  0999 V2000
    4.6258   -3.6578    0.0000 O   0  0  0  0  0  0  0  0  0  0  0  0
    4.6501    0.4964    0.0000 O   0  0  0  0  0  0  0  0  0  0  0  0
    6.3813    3.6506    0.0000 O   0  0  0  0  0  0  0  0  0  0  0  0
    2.8641   -2.5487    0.0000 O   0  0  0  0  0  0  0  0  0  0  0  0
    7.2482   -1.0036    0.0000 O   0  0  0  0  0  0  0  0  0  0  0  0
    8.1523    0.4933    0.0000 O   0  0  0  0  0  0  0  0  0  0  0  0
    5.5654   -4.2003    0.0000 C   0  0  0  0  0  0  0  0  0  0  0  0
    6.5008   -3.6506    0.0000 C   0  0  0  0  0  0  0  0  0  0  0  0
    6.4841   -2.5657    0.0000 C   0  0  0  0  0  0  0  0  0  0  0  0
    5.5322   -2.0451    0.0000 C   0  0  0  0  0  0  0  0  0  0  0  0
    4.6341   -2.5728    0.0000 C   0  0  0  0  0  0  0  0  0  0  0  0
    5.5161   -1.0036    0.0000 C   0  0  0  0  0  0  0  0  0  0  0  0
    6.0687   -5.0644    0.0000 C   0  0  0  0  0  0  0  0  0  0  0  0
    5.0687   -5.0682    0.0000 C   0  0  0  0  0  0  0  0  0  0  0  0
    4.6501   -0.5036    0.0000 C   0  0  0  0  0  0  0  0  0  0  0  0
    3.7320   -2.0520    0.0000 C   0  0  0  0  0  0  0  0  0  0  0  0
    6.3821   -0.5036    0.0000 C   0  0  0  0  0  0  0  0  0  0  0  0
    6.3821    0.4964    0.0000 C   0  0  0  0  0  0  0  0  0  0  0  0
    3.7401   -1.0104    0.0000 C   0  0  0  0  0  0  0  0  0  0  0  0
    5.5161    0.9964    0.0000 C   0  0  0  0  0  0  0  0  0  0  0  0
    7.3168    4.2003    0.0000 C   0  0  0  0  0  0  0  0  0  0  0  0
    7.3002    2.0449    0.0000 C   0  0  0  0  0  0  0  0  0  0  0  0
    7.2921    1.0033    0.0000 C   0  0  0  0  0  0  0  0  0  0  0  0
    6.3981    2.5657    0.0000 C   0  0  0  0  0  0  0  0  0  0  0  0
    5.5000    2.0379    0.0000 C   0  0  0  0  0  0  0  0  0  0  0  0
    8.2564    3.6578    0.0000 C   0  0  0  0  0  0  0  0  0  0  0  0
    8.2480    2.5728    0.0000 C   0  0  0  0  0  0  0  0  0  0  0  0
    7.8134    5.0682    0.0000 C   0  0  0  0  0  0  0  0  0  0  0  0
    6.8134    5.0644    0.0000 C   0  0  0  0  0  0  0  0  0  0  0  0
    2.0000   -2.0453    0.0000 C   0  0  0  0  0  0  0  0  0  0  0  0
    6.7188   -4.2310    0.0000 H   0  0  0  0  0  0  0  0  0  0  0  0
    7.1100   -3.5351    0.0000 H   0  0  0  0  0  0  0  0  0  0  0  0
    7.0965   -2.6624    0.0000 H   0  0  0  0  0  0  0  0  0  0  0  0
    6.6841   -1.9788    0.0000 H   0  0  0  0  0  0  0  0  0  0  0  0
    5.5330   -5.3764    0.0000 H   0  0  0  0  0  0  0  0  0  0  0  0
    6.3808   -5.6001    0.0000 H   0  0  0  0  0  0  0  0  0  0  0  0
    6.6045   -4.7523    0.0000 H   0  0  0  0  0  0  0  0  0  0  0  0
    4.5306   -4.7603    0.0000 H   0  0  0  0  0  0  0  0  0  0  0  0
    4.7608   -5.6064    0.0000 H   0  0  0  0  0  0  0  0  0  0  0  0
    5.6068   -5.3762    0.0000 H   0  0  0  0  0  0  0  0  0  0  0  0
    3.2068   -0.6942    0.0000 H   0  0  0  0  0  0  0  0  0  0  0  0
    4.9596    2.3417    0.0000 H   0  0  0  0  0  0  0  0  0  0  0  0
    8.7945    3.9657    0.0000 H   0  0  0  0  0  0  0  0  0  0  0  0
    8.7814    2.2566    0.0000 H   0  0  0  0  0  0  0  0  0  0  0  0
    7.3492    5.3764    0.0000 H   0  0  0  0  0  0  0  0  0  0  0  0
    6.5014    5.6001    0.0000 H   0  0  0  0  0  0  0  0  0  0  0  0
    6.2777    4.7523    0.0000 H   0  0  0  0  0  0  0  0  0  0  0  0
    8.3516    4.7603    0.0000 H   0  0  0  0  0  0  0  0  0  0  0  0
    8.1214    5.6064    0.0000 H   0  0  0  0  0  0  0  0  0  0  0  0
    7.2753    5.3762    0.0000 H   0  0  0  0  0  0  0  0  0  0  0  0
    8.6928    0.7971    0.0000 H   0  0  0  0  0  0  0  0  0  0  0  0
    2.3121   -1.5096    0.0000 H   0  0  0  0  0  0  0  0  0  0  0  0
    1.4643   -1.7333    0.0000 H   0  0  0  0  0  0  0  0  0  0  0  0
    1.6879   -2.5811    0.0000 H   0  0  0  0  0  0  0  0  0  0  0  0
  1  7  1  0  0  0  0
  1 11  1  0  0  0  0
  2 15  1  0  0  0  0
  2 20  1  0  0  0  0
  3 21  1  0  0  0  0
  3 24  1  0  0  0  0
  4 16  1  0  0  0  0
  4 30  1  0  0  0  0
  5 17  2  0  0  0  0
  6 23  1  0  0  0  0
  6 51  1  0  0  0  0
  7  8  1  0  0  0  0
  7 13  1  0  0  0  0
  7 14  1  0  0  0  0
  8  9  1  0  0  0  0
  8 31  1  0  0  0  0
  8 32  1  0  0  0  0
  9 10  1  0  0  0  0
  9 33  1  0  0  0  0
  9 34  1  0  0  0  0
 10 11  1  0  0  0  0
 10 12  2  0  0  0  0
 11 16  2  0  0  0  0
 12 15  1  0  0  0  0
 12 17  1  0  0  0  0
 13 35  1  0  0  0  0
 13 36  1  0  0  0  0
 13 37  1  0  0  0  0
 14 38  1  0  0  0  0
 14 39  1  0  0  0  0
 14 40  1  0  0  0  0
 15 19  2  0  0  0  0
 16 19  1  0  0  0  0
 17 18  1  0  0  0  0
 18 20  1  0  0  0  0
 18 23  2  0  0  0  0
 19 41  1  0  0  0  0
 20 25  2  0  0  0  0
 21 26  1  0  0  0  0
 21 28  1  0  0  0  0
 21 29  1  0  0  0  0
 22 23  1  0  0  0  0
 22 24  2  0  0  0  0
 22 27  1  0  0  0  0
 24 25  1  0  0  0  0
 25 42  1  0  0  0  0
 26 27  2  0  0  0  0
 26 43  1  0  0  0  0
 27 44  1  0  0  0  0
 28 48  1  0  0  0  0
 28 49  1  0  0  0  0
 28 50  1  0  0  0  0
 29 45  1  0  0  0  0
 29 46  1  0  0  0  0
 29 47  1  0  0  0  0
 30 52  1  0  0  0  0
 30 53  1  0  0  0  0
 30 54  1  0  0  0  0
M  END
>  <PUBCHEM_COMPOUND_CID>
11143989

>  <PUBCHEM_COMPOUND_CANONICALIZED>
1

>  <PUBCHEM_CACTVS_COMPLEXITY>
729

>  <PUBCHEM_CACTVS_HBOND_ACCEPTOR>
6

>  <PUBCHEM_CACTVS_HBOND_DONOR>
1

>  <PUBCHEM_CACTVS_ROTATABLE_BOND>
1

>  <PUBCHEM_CACTVS_SUBSKEYS>
AAADceB4OAAAAAAAAAAAAAAAAAAAAAAAAAA0aIECAAAAAACRQAAAGgAACAAADESAmAIyBoAABgCIAqBSAAACCAAkIAAIiAEGiMgNJzaGNBqCeWKl4BUKuQfK7PzOoQADCAAYQABCAAYQADCAAAAAAAAAAA==

>  <PUBCHEM_IUPAC_INCHI>
InChI=1S/C24H24O6/c1-23(2)8-6-12-14(29-23)10-16-19(20(12)25)21(26)18-13-7-9-24(3,4)30-22(13)17(27-5)11-15(18)28-16/h6,8,10-11,25H,7,9H2,1-5H3

>  <PUBCHEM_IUPAC_INCHIKEY>
KPEKAHVOTOEHJF-UHFFFAOYSA-N

>  <PUBCHEM_XLOGP3_AA>
5

>  <PUBCHEM_EXACT_MASS>
408.157

>  <PUBCHEM_MOLECULAR_FORMULA>
C24H24O6

>  <PUBCHEM_MOLECULAR_WEIGHT>
408.45

>  <PUBCHEM_OPENEYE_CAN_SMILES>
CC1(CCC2=C3C(=CC(=C2O1)OC)OC4=CC5=C(C=CC(O5)(C)C)C(=C4C3=O)O)C

>  <PUBCHEM_OPENEYE_ISO_SMILES>
CC1(CCC2=C3C(=CC(=C2O1)OC)OC4=CC5=C(C=CC(O5)(C)C)C(=C4C3=O)O)C

>  <PUBCHEM_CACTVS_TPSA>
74.2

>  <PUBCHEM_MONOISOTOPIC_WEIGHT>
408.157

>  <PUBCHEM_TOTAL_CHARGE>
0

>  <PUBCHEM_HEAVY_ATOM_COUNT>
30

>  <PUBCHEM_ATOM_DEF_STEREO_COUNT>
0

>  <PUBCHEM_ATOM_UDEF_STEREO_COUNT>
0

>  <PUBCHEM_BOND_DEF_STEREO_COUNT>
0

>  <PUBCHEM_BOND_UDEF_STEREO_COUNT>
0

>  <PUBCHEM_ISOTOPIC_ATOM_COUNT>
0

>  <PUBCHEM_COMPONENT_COUNT>
1

>  <PUBCHEM_CACTVS_TAUTO_COUNT>
19

>  <PUBCHEM_COORDINATE_TYPE>
1
5
255

>  <PUBCHEM_BONDANNOTATIONS>
10  11  8
10  12  8
11  16  8
12  15  8
12  17  8
15  19  8
16  19  8
17  18  8
18  20  8
18  23  8
2  15  8
2  20  8
20  25  8
22  23  8
22  24  8
24  25  8

$$$$
