11163864
 OpenBabel06101807152D

 46 49  0  0  0  0  0  0  0  0999 V2000
    5.4407    2.7993    0.0000 O   0  0  0  0  0  0  0  0  0  0  0  0
    3.6590   -0.2595    0.0000 O   0  0  0  0  0  0  0  0  0  0  0  0
    9.8412    3.3098    0.0000 O   0  0  0  0  0  0  0  0  0  0  0  0
    2.0000   -3.3098    0.0000 O   0  0  0  0  0  0  0  0  0  0  0  0
    6.3231    0.2647    0.0000 C   0  0  0  0  0  0  0  0  0  0  0  0
    7.1892   -0.2353    0.0000 C   0  0  0  0  0  0  0  0  0  0  0  0
    6.3231    1.2647    0.0000 C   0  0  0  0  0  0  0  0  0  0  0  0
    8.0552    0.2647    0.0000 C   0  0  0  0  0  0  0  0  0  0  0  0
    8.0552    1.2647    0.0000 C   0  0  0  0  0  0  0  0  0  0  0  0
    7.1892    1.7647    0.0000 C   0  0  0  0  0  0  0  0  0  0  0  0
    5.4292   -0.2700    0.0000 C   0  0  0  0  0  0  0  0  0  0  0  0
    5.4292    1.7994    0.0000 C   0  0  0  0  0  0  0  0  0  0  0  0
    5.4407   -1.2699    0.0000 C   0  0  0  0  0  0  0  0  0  0  0  0
    4.5231    0.2439    0.0000 C   0  0  0  0  0  0  0  0  0  0  0  0
    8.9652    1.7715    0.0000 C   0  0  0  0  0  0  0  0  0  0  0  0
    7.1731    2.8062    0.0000 C   0  0  0  0  0  0  0  0  0  0  0  0
    4.5231    1.2855    0.0000 C   0  0  0  0  0  0  0  0  0  0  0  0
    4.5806   -1.7799    0.0000 C   0  0  0  0  0  0  0  0  0  0  0  0
    8.9732    2.8131    0.0000 C   0  0  0  0  0  0  0  0  0  0  0  0
    8.0711    3.3340    0.0000 C   0  0  0  0  0  0  0  0  0  0  0  0
    3.7088   -1.2899    0.0000 C   0  0  0  0  0  0  0  0  0  0  0  0
    4.5921   -2.7798    0.0000 C   0  0  0  0  0  0  0  0  0  0  0  0
    4.5806    3.3093    0.0000 C   0  0  0  0  0  0  0  0  0  0  0  0
    2.8486   -1.7999    0.0000 C   0  0  0  0  0  0  0  0  0  0  0  0
    3.7319   -3.2898    0.0000 C   0  0  0  0  0  0  0  0  0  0  0  0
    2.8602   -2.7998    0.0000 C   0  0  0  0  0  0  0  0  0  0  0  0
    6.7906   -0.7103    0.0000 H   0  0  0  0  0  0  0  0  0  0  0  0
    7.5877   -0.7103    0.0000 H   0  0  0  0  0  0  0  0  0  0  0  0
    8.2672   -0.3179    0.0000 H   0  0  0  0  0  0  0  0  0  0  0  0
    8.6657    0.3724    0.0000 H   0  0  0  0  0  0  0  0  0  0  0  0
    5.6595   -1.8500    0.0000 H   0  0  0  0  0  0  0  0  0  0  0  0
    6.0500   -1.1552    0.0000 H   0  0  0  0  0  0  0  0  0  0  0  0
    9.4985    1.4554    0.0000 H   0  0  0  0  0  0  0  0  0  0  0  0
    3.9874    1.5976    0.0000 H   0  0  0  0  0  0  0  0  0  0  0  0
    6.6326    3.1100    0.0000 H   0  0  0  0  0  0  0  0  0  0  0  0
    8.0687    3.9539    0.0000 H   0  0  0  0  0  0  0  0  0  0  0  0
    3.7016   -0.6700    0.0000 H   0  0  0  0  0  0  0  0  0  0  0  0
    5.1326   -3.0836    0.0000 H   0  0  0  0  0  0  0  0  0  0  0  0
    3.1209    0.0485    0.0000 H   0  0  0  0  0  0  0  0  0  0  0  0
    4.8968    3.8426    0.0000 H   0  0  0  0  0  0  0  0  0  0  0  0
    4.0472    3.6254    0.0000 H   0  0  0  0  0  0  0  0  0  0  0  0
    4.2644    2.7760    0.0000 H   0  0  0  0  0  0  0  0  0  0  0  0
    2.3081   -1.4961    0.0000 H   0  0  0  0  0  0  0  0  0  0  0  0
    3.7391   -3.9098    0.0000 H   0  0  0  0  0  0  0  0  0  0  0  0
    9.8435    3.9298    0.0000 H   0  0  0  0  0  0  0  0  0  0  0  0
    2.0072   -3.9298    0.0000 H   0  0  0  0  0  0  0  0  0  0  0  0
  1 12  1  0  0  0  0
  1 23  1  0  0  0  0
  2 14  1  0  0  0  0
  2 39  1  0  0  0  0
  3 19  1  0  0  0  0
  3 45  1  0  0  0  0
  4 26  1  0  0  0  0
  4 46  1  0  0  0  0
  5  6  1  0  0  0  0
  5  7  1  0  0  0  0
  5 11  2  0  0  0  0
  6  8  1  0  0  0  0
  6 27  1  0  0  0  0
  6 28  1  0  0  0  0
  7 10  1  0  0  0  0
  7 12  2  0  0  0  0
  8  9  1  0  0  0  0
  8 29  1  0  0  0  0
  8 30  1  0  0  0  0
  9 10  2  0  0  0  0
  9 15  1  0  0  0  0
 10 16  1  0  0  0  0
 11 13  1  0  0  0  0
 11 14  1  0  0  0  0
 12 17  1  0  0  0  0
 13 18  1  0  0  0  0
 13 31  1  0  0  0  0
 13 32  1  0  0  0  0
 14 17  2  0  0  0  0
 15 19  2  0  0  0  0
 15 33  1  0  0  0  0
 16 20  2  0  0  0  0
 16 35  1  0  0  0  0
 17 34  1  0  0  0  0
 18 21  2  0  0  0  0
 18 22  1  0  0  0  0
 19 20  1  0  0  0  0
 20 36  1  0  0  0  0
 21 24  1  0  0  0  0
 21 37  1  0  0  0  0
 22 25  2  0  0  0  0
 22 38  1  0  0  0  0
 23 40  1  0  0  0  0
 23 41  1  0  0  0  0
 23 42  1  0  0  0  0
 24 26  2  0  0  0  0
 24 43  1  0  0  0  0
 25 26  1  0  0  0  0
 25 44  1  0  0  0  0
M  END
>  <PUBCHEM_COMPOUND_CID>
11163864

>  <PUBCHEM_COMPOUND_CANONICALIZED>
1

>  <PUBCHEM_CACTVS_COMPLEXITY>
461

>  <PUBCHEM_CACTVS_HBOND_ACCEPTOR>
4

>  <PUBCHEM_CACTVS_HBOND_DONOR>
3

>  <PUBCHEM_CACTVS_ROTATABLE_BOND>
3

>  <PUBCHEM_CACTVS_SUBSKEYS>
AAADceB4OAAAAAAAAAAAAAAAAAAAAAAAAAAwYMGAAAAAAADBUAAAGgAACAAADASAmAIyBoAABgCAAiBCAAACCAAgIAAIiAAGCIgMJyKGMRqAcCAlwBUIuAeA4PwOoAADCAAYAADAAAYQADAAAAAAAAAAAA==

>  <PUBCHEM_IUPAC_OPENEYE_NAME>
1-[(4-hydroxyphenyl)methyl]-4-methoxy-9,10-dihydrophenanthrene-2,7-diol

>  <PUBCHEM_IUPAC_CAS_NAME>
1-[(4-hydroxyphenyl)methyl]-4-methoxy-9,10-dihydrophenanthrene-2,7-diol

>  <PUBCHEM_IUPAC_NAME>
1-[(4-hydroxyphenyl)methyl]-4-methoxy-9,10-dihydrophenanthrene-2,7-diol

>  <PUBCHEM_IUPAC_SYSTEMATIC_NAME>
1-[(4-hydroxyphenyl)methyl]-4-methoxy-9,10-dihydrophenanthrene-2,7-diol

>  <PUBCHEM_IUPAC_TRADITIONAL_NAME>
1-(4-hydroxybenzyl)-4-methoxy-9,10-dihydrophenanthrene-2,7-diol

>  <PUBCHEM_IUPAC_INCHI>
InChI=1S/C22H20O4/c1-26-21-12-20(25)19(10-13-2-5-15(23)6-3-13)18-8-4-14-11-16(24)7-9-17(14)22(18)21/h2-3,5-7,9,11-12,23-25H,4,8,10H2,1H3

>  <PUBCHEM_IUPAC_INCHIKEY>
XNPQRYUNKPQOPF-UHFFFAOYSA-N

>  <PUBCHEM_XLOGP3_AA>
4.7

>  <PUBCHEM_EXACT_MASS>
348.136

>  <PUBCHEM_MOLECULAR_FORMULA>
C22H20O4

>  <PUBCHEM_MOLECULAR_WEIGHT>
348.398

>  <PUBCHEM_OPENEYE_CAN_SMILES>
COC1=CC(=C(C2=C1C3=C(CC2)C=C(C=C3)O)CC4=CC=C(C=C4)O)O

>  <PUBCHEM_OPENEYE_ISO_SMILES>
COC1=CC(=C(C2=C1C3=C(CC2)C=C(C=C3)O)CC4=CC=C(C=C4)O)O

>  <PUBCHEM_CACTVS_TPSA>
69.9

>  <PUBCHEM_MONOISOTOPIC_WEIGHT>
348.136

>  <PUBCHEM_TOTAL_CHARGE>
0

>  <PUBCHEM_HEAVY_ATOM_COUNT>
26

>  <PUBCHEM_ATOM_DEF_STEREO_COUNT>
0

>  <PUBCHEM_ATOM_UDEF_STEREO_COUNT>
0

>  <PUBCHEM_BOND_DEF_STEREO_COUNT>
0

>  <PUBCHEM_BOND_UDEF_STEREO_COUNT>
0

>  <PUBCHEM_ISOTOPIC_ATOM_COUNT>
0

>  <PUBCHEM_COMPONENT_COUNT>
1

>  <PUBCHEM_CACTVS_TAUTO_COUNT>
318

>  <PUBCHEM_COORDINATE_TYPE>
1
5
255

>  <PUBCHEM_BONDANNOTATIONS>
10  16  8
11  14  8
12  17  8
14  17  8
15  19  8
16  20  8
18  21  8
18  22  8
19  20  8
21  24  8
22  25  8
24  26  8
25  26  8
5  11  8
5  7  8
7  12  8
9  10  8
9  15  8

$$$$
