11166301
 OpenBabel06101807152D

 60 62  0  0  1  0  0  0  0  0999 V2000
    7.7331    0.5950    0.0000 O   0  0  0  0  0  0  0  0  0  0  0  0
    6.0010   -0.4050    0.0000 O   0  0  0  0  0  0  0  0  0  0  0  0
    4.2690   -0.4050    0.0000 O   0  0  0  0  0  0  0  0  0  0  0  0
    6.0010    2.5950    0.0000 O   0  0  0  0  0  0  0  0  0  0  0  0
    9.4651    0.5950    0.0000 O   0  0  0  0  0  0  0  0  0  0  0  0
    7.7331    3.5950    0.0000 O   0  0  0  0  0  0  0  0  0  0  0  0
    9.4651    2.5950    0.0000 O   0  0  0  0  0  0  0  0  0  0  0  0
    6.0010   -2.4050    0.0000 O   0  0  0  0  0  0  0  0  0  0  0  0
    4.2690   -3.4050    0.0000 O   0  0  0  0  0  0  0  0  0  0  0  0
    2.5369   -2.4050    0.0000 O   0  0  0  0  0  0  0  0  0  0  0  0
    6.8671    1.0950    0.0000 C   0  0  1  0  0  0  0  0  0  0  0  0
    6.8671    2.0950    0.0000 C   0  0  2  0  0  0  0  0  0  0  0  0
    7.7331    2.5950    0.0000 C   0  0  1  0  0  0  0  0  0  0  0  0
    8.5991    2.0950    0.0000 C   0  0  2  0  0  0  0  0  0  0  0  0
    5.1350   -1.9050    0.0000 C   0  0  1  0  0  0  0  0  0  0  0  0
    5.1350   -0.9050    0.0000 C   0  0  2  0  0  0  0  0  0  0  0  0
    4.2690   -2.4050    0.0000 C   0  0  1  0  0  0  0  0  0  0  0  0
    3.4030   -1.9050    0.0000 C   0  0  2  0  0  0  0  0  0  0  0  0
    8.5991    1.0950    0.0000 C   0  0  1  0  0  0  0  0  0  0  0  0
    6.0010    0.5950    0.0000 C   0  0  0  0  0  0  0  0  0  0  0  0
    3.4030   -0.9050    0.0000 C   0  0  2  0  0  0  0  0  0  0  0  0
    2.5369   -0.4050    0.0000 C   0  0  0  0  0  0  0  0  0  0  0  0
    9.4651   -0.4050    0.0000 C   0  0  0  0  0  0  0  0  0  0  0  0
   10.3312   -0.9050    0.0000 C   0  0  0  0  0  0  0  0  0  0  0  0
   10.3312   -1.9050    0.0000 C   0  0  0  0  0  0  0  0  0  0  0  0
    9.4651   -2.4050    0.0000 C   0  0  0  0  0  0  0  0  0  0  0  0
   11.1972   -2.4050    0.0000 C   0  0  0  0  0  0  0  0  0  0  0  0
    9.4651   -3.4050    0.0000 C   0  0  0  0  0  0  0  0  0  0  0  0
   11.1972   -3.4050    0.0000 C   0  0  0  0  0  0  0  0  0  0  0  0
   10.3312   -3.9050    0.0000 C   0  0  0  0  0  0  0  0  0  0  0  0
    6.8671    0.4750    0.0000 H   0  0  0  0  0  0  0  0  0  0  0  0
    6.3301    1.7850    0.0000 H   0  0  0  0  0  0  0  0  0  0  0  0
    7.1962    2.9050    0.0000 H   0  0  0  0  0  0  0  0  0  0  0  0
    8.5991    2.7150    0.0000 H   0  0  0  0  0  0  0  0  0  0  0  0
    5.1350   -2.5250    0.0000 H   0  0  0  0  0  0  0  0  0  0  0  0
    5.1350   -0.2850    0.0000 H   0  0  0  0  0  0  0  0  0  0  0  0
    3.7320   -2.7150    0.0000 H   0  0  0  0  0  0  0  0  0  0  0  0
    2.8660   -1.5950    0.0000 H   0  0  0  0  0  0  0  0  0  0  0  0
    8.5991    0.4750    0.0000 H   0  0  0  0  0  0  0  0  0  0  0  0
    5.7890    1.1776    0.0000 H   0  0  0  0  0  0  0  0  0  0  0  0
    5.3905    0.4873    0.0000 H   0  0  0  0  0  0  0  0  0  0  0  0
    3.4030   -0.2850    0.0000 H   0  0  0  0  0  0  0  0  0  0  0  0
    2.8469    0.1319    0.0000 H   0  0  0  0  0  0  0  0  0  0  0  0
    2.0000   -0.0950    0.0000 H   0  0  0  0  0  0  0  0  0  0  0  0
    2.2269   -0.9419    0.0000 H   0  0  0  0  0  0  0  0  0  0  0  0
    6.0010    3.2150    0.0000 H   0  0  0  0  0  0  0  0  0  0  0  0
    8.2700    3.9050    0.0000 H   0  0  0  0  0  0  0  0  0  0  0  0
   10.0021    2.2850    0.0000 H   0  0  0  0  0  0  0  0  0  0  0  0
    6.5380   -2.0950    0.0000 H   0  0  0  0  0  0  0  0  0  0  0  0
    3.7320   -3.7150    0.0000 H   0  0  0  0  0  0  0  0  0  0  0  0
    2.0000   -2.0950    0.0000 H   0  0  0  0  0  0  0  0  0  0  0  0
    8.8546   -0.2973    0.0000 H   0  0  0  0  0  0  0  0  0  0  0  0
    9.2531   -0.9876    0.0000 H   0  0  0  0  0  0  0  0  0  0  0  0
   10.9417   -1.0127    0.0000 H   0  0  0  0  0  0  0  0  0  0  0  0
   10.5432   -0.3224    0.0000 H   0  0  0  0  0  0  0  0  0  0  0  0
    8.9282   -2.0950    0.0000 H   0  0  0  0  0  0  0  0  0  0  0  0
   11.7341   -2.0950    0.0000 H   0  0  0  0  0  0  0  0  0  0  0  0
    8.9282   -3.7150    0.0000 H   0  0  0  0  0  0  0  0  0  0  0  0
   11.7341   -3.7150    0.0000 H   0  0  0  0  0  0  0  0  0  0  0  0
   10.3312   -4.5250    0.0000 H   0  0  0  0  0  0  0  0  0  0  0  0
  1 11  1  0  0  0  0
  1 19  1  0  0  0  0
  2 20  1  0  0  0  0
  3 16  1  0  0  0  0
  3 21  1  0  0  0  0
  4 46  1  0  0  0  0
  5 23  1  0  0  0  0
  6 47  1  0  0  0  0
  7 48  1  0  0  0  0
  8 49  1  0  0  0  0
  9 50  1  0  0  0  0
 10 51  1  0  0  0  0
 11 12  1  1  0  0  0
 11 20  1  0  0  0  0
 11 31  1  0  0  0  0
 12  4  1  0  0  0  0
 12 13  1  6  0  0  0
 12 32  1  0  0  0  0
 13  6  1  0  0  0  0
 13 14  1  1  0  0  0
 13 33  1  0  0  0  0
 14  7  1  0  0  0  0
 14 19  1  6  0  0  0
 14 34  1  0  0  0  0
 15  8  1  0  0  0  0
 15 16  1  1  0  0  0
 15 35  1  0  0  0  0
 16  2  1  0  0  0  0
 16 36  1  6  0  0  0
 17  9  1  0  0  0  0
 17 15  1  1  0  0  0
 17 37  1  0  0  0  0
 18 10  1  0  0  0  0
 18 17  1  6  0  0  0
 18 38  1  0  0  0  0
 19  5  1  0  0  0  0
 19 39  1  1  0  0  0
 20 40  1  0  0  0  0
 20 41  1  0  0  0  0
 21 18  1  1  0  0  0
 21 22  1  0  0  0  0
 21 42  1  0  0  0  0
 22 43  1  0  0  0  0
 22 44  1  0  0  0  0
 22 45  1  0  0  0  0
 23 24  1  0  0  0  0
 23 52  1  0  0  0  0
 23 53  1  0  0  0  0
 24 25  1  0  0  0  0
 24 54  1  0  0  0  0
 24 55  1  0  0  0  0
 25 26  2  0  0  0  0
 25 27  1  0  0  0  0
 26 28  1  0  0  0  0
 26 56  1  0  0  0  0
 27 29  2  0  0  0  0
 27 57  1  0  0  0  0
 28 30  2  0  0  0  0
 28 58  1  0  0  0  0
 29 30  1  0  0  0  0
 29 59  1  0  0  0  0
 30 60  1  0  0  0  0
M  END
>  <PUBCHEM_COMPOUND_CID>
11166301

>  <PUBCHEM_COMPOUND_CANONICALIZED>
1

>  <PUBCHEM_CACTVS_COMPLEXITY>
516

>  <PUBCHEM_CACTVS_HBOND_ACCEPTOR>
10

>  <PUBCHEM_CACTVS_HBOND_DONOR>
6

>  <PUBCHEM_CACTVS_ROTATABLE_BOND>
7

>  <PUBCHEM_CACTVS_SUBSKEYS>
AAADceB4PAAAAAAAAAAAAAAAAAAAAAAAAAA0SIAAAAAAAAABAAAAGgAACAAADBSwmAMyCIAABgCAAiBCAAACAAAgAAAIiAAAAIgZMCKAERCiYAAlwAEPiAfA4KwOAAAAAAAAAAAAAAAAAAAAAAAAAAAAAA==

>  <PUBCHEM_IUPAC_OPENEYE_NAME>
(2S,3R,4R,5R,6R)-2-methyl-6-[[(2R,3S,4S,5R,6R)-3,4,5-trihydroxy-6-(2-phenylethoxy)tetrahydropyran-2-yl]methoxy]tetrahydropyran-3,4,5-triol

>  <PUBCHEM_IUPAC_CAS_NAME>
(2S,3R,4R,5R,6R)-2-methyl-6-[[(2R,3S,4S,5R,6R)-3,4,5-trihydroxy-6-(2-phenylethoxy)-2-oxanyl]methoxy]oxane-3,4,5-triol

>  <PUBCHEM_IUPAC_NAME>
(2S,3R,4R,5R,6R)-2-methyl-6-[[(2R,3S,4S,5R,6R)-3,4,5-trihydroxy-6-(2-phenylethoxy)oxan-2-yl]methoxy]oxane-3,4,5-triol

>  <PUBCHEM_IUPAC_SYSTEMATIC_NAME>
(2S,3R,4R,5R,6R)-2-methyl-6-[[(2R,3S,4S,5R,6R)-3,4,5-tris(oxidanyl)-6-(2-phenylethoxy)oxan-2-yl]methoxy]oxane-3,4,5-triol

>  <PUBCHEM_IUPAC_TRADITIONAL_NAME>
(2S,3R,4R,5R,6R)-2-methyl-6-[[(2R,3S,4S,5R,6R)-3,4,5-trihydroxy-6-phenethoxy-tetrahydropyran-2-yl]methoxy]tetrahydropyran-3,4,5-triol

>  <PUBCHEM_IUPAC_INCHI>
InChI=1S/C20H30O10/c1-10-13(21)15(23)17(25)20(29-10)28-9-12-14(22)16(24)18(26)19(30-12)27-8-7-11-5-3-2-4-6-11/h2-6,10,12-26H,7-9H2,1H3/t10-,12+,13-,14+,15+,16-,17+,18+,19+,20+/m0/s1

>  <PUBCHEM_IUPAC_INCHIKEY>
OKUGUNDXBGUFPA-OCGSKHJZSA-N

>  <PUBCHEM_XLOGP3_AA>
-1.7

>  <PUBCHEM_EXACT_MASS>
430.184

>  <PUBCHEM_MOLECULAR_FORMULA>
C20H30O10

>  <PUBCHEM_MOLECULAR_WEIGHT>
430.45

>  <PUBCHEM_OPENEYE_CAN_SMILES>
CC1C(C(C(C(O1)OCC2C(C(C(C(O2)OCCC3=CC=CC=C3)O)O)O)O)O)O

>  <PUBCHEM_OPENEYE_ISO_SMILES>
C[C@H]1[C@@H]([C@H]([C@H]([C@@H](O1)OC[C@@H]2[C@H]([C@@H]([C@H]([C@@H](O2)OCCC3=CC=CC=C3)O)O)O)O)O)O

>  <PUBCHEM_CACTVS_TPSA>
158

>  <PUBCHEM_MONOISOTOPIC_WEIGHT>
430.184

>  <PUBCHEM_TOTAL_CHARGE>
0

>  <PUBCHEM_HEAVY_ATOM_COUNT>
30

>  <PUBCHEM_ATOM_DEF_STEREO_COUNT>
10

>  <PUBCHEM_ATOM_UDEF_STEREO_COUNT>
0

>  <PUBCHEM_BOND_DEF_STEREO_COUNT>
0

>  <PUBCHEM_BOND_UDEF_STEREO_COUNT>
0

>  <PUBCHEM_ISOTOPIC_ATOM_COUNT>
0

>  <PUBCHEM_COMPONENT_COUNT>
1

>  <PUBCHEM_CACTVS_TAUTO_COUNT>
1

>  <PUBCHEM_COORDINATE_TYPE>
1
5
255

>  <PUBCHEM_BONDANNOTATIONS>
18  10  5
11  20  6
16  2  5
21  22  6
25  26  8
25  27  8
26  28  8
27  29  8
28  30  8
29  30  8
12  4  5
19  5  6
13  6  6
14  7  5
15  8  6
17  9  6

$$$$
