11275633
 OpenBabel06101807152D

 25 26  0  0  0  0  0  0  0  0999 V2000
    5.5321   -0.3100    0.0000 O   0  0  0  0  0  0  0  0  0  0  0  0
    4.6660   -1.8100    0.0000 O   0  0  0  0  0  0  0  0  0  0  0  0
    3.8000    0.6900    0.0000 C   0  0  0  0  0  0  0  0  0  0  0  0
    3.8000   -0.3100    0.0000 C   0  0  0  0  0  0  0  0  0  0  0  0
    4.6660    1.1900    0.0000 C   0  0  0  0  0  0  0  0  0  0  0  0
    2.9061    1.2247    0.0000 C   0  0  0  0  0  0  0  0  0  0  0  0
    5.5321    0.6900    0.0000 C   0  0  0  0  0  0  0  0  0  0  0  0
    2.9061   -0.8447    0.0000 C   0  0  0  0  0  0  0  0  0  0  0  0
    4.6660   -0.8100    0.0000 C   0  0  0  0  0  0  0  0  0  0  0  0
    2.0000    0.7108    0.0000 C   0  0  0  0  0  0  0  0  0  0  0  0
    2.0000   -0.3308    0.0000 C   0  0  0  0  0  0  0  0  0  0  0  0
    6.3981    1.1900    0.0000 C   0  0  0  0  0  0  0  0  0  0  0  0
    7.2641    0.6900    0.0000 C   0  0  0  0  0  0  0  0  0  0  0  0
    8.1301    1.1900    0.0000 C   0  0  0  0  0  0  0  0  0  0  0  0
    8.9962    0.6900    0.0000 C   0  0  0  0  0  0  0  0  0  0  0  0
    4.6660    1.8100    0.0000 H   0  0  0  0  0  0  0  0  0  0  0  0
    2.9132    1.8446    0.0000 H   0  0  0  0  0  0  0  0  0  0  0  0
    2.9132   -1.4646    0.0000 H   0  0  0  0  0  0  0  0  0  0  0  0
    1.4643    1.0229    0.0000 H   0  0  0  0  0  0  0  0  0  0  0  0
    1.4643   -0.6429    0.0000 H   0  0  0  0  0  0  0  0  0  0  0  0
    6.3981    1.8100    0.0000 H   0  0  0  0  0  0  0  0  0  0  0  0
    7.2641    0.0700    0.0000 H   0  0  0  0  0  0  0  0  0  0  0  0
    8.1301    1.8100    0.0000 H   0  0  0  0  0  0  0  0  0  0  0  0
    8.9962    0.0700    0.0000 H   0  0  0  0  0  0  0  0  0  0  0  0
    9.5331    1.0000    0.0000 H   0  0  0  0  0  0  0  0  0  0  0  0
  1  7  1  0  0  0  0
  1  9  1  0  0  0  0
  2  9  2  0  0  0  0
  3  4  1  0  0  0  0
  3  5  1  0  0  0  0
  3  6  2  0  0  0  0
  4  8  2  0  0  0  0
  4  9  1  0  0  0  0
  5  7  2  0  0  0  0
  5 16  1  0  0  0  0
  6 10  1  0  0  0  0
  6 17  1  0  0  0  0
  7 12  1  0  0  0  0
  8 11  1  0  0  0  0
  8 18  1  0  0  0  0
 10 11  2  0  0  0  0
 10 19  1  0  0  0  0
 11 20  1  0  0  0  0
 12 13  2  0  0  0  0
 12 21  1  0  0  0  0
 13 14  1  0  0  0  0
 13 22  1  0  0  0  0
 14 15  2  0  0  0  0
 14 23  1  0  0  0  0
 15 24  1  0  0  0  0
 15 25  1  0  0  0  0
M  END
>  <PUBCHEM_COMPOUND_CID>
11275633

>  <PUBCHEM_COMPOUND_CANONICALIZED>
1

>  <PUBCHEM_CACTVS_COMPLEXITY>
325

>  <PUBCHEM_CACTVS_HBOND_ACCEPTOR>
2

>  <PUBCHEM_CACTVS_HBOND_DONOR>
0

>  <PUBCHEM_CACTVS_ROTATABLE_BOND>
2

>  <PUBCHEM_CACTVS_SUBSKEYS>
AAADccBwMAAAAAAAAAAAAAAAAAAAAAAAAAAwQAAAAAAAAACBAAAAGgAAAAAADASAmAAwCIAABACIAiDSCAACCAAkIAAIiAEACMgIJjKANRiCMQAkwAEIqYeIyKCOgAAAAAAQAAAAAAAAACAAAAAAAAAAAA==

>  <PUBCHEM_IUPAC_OPENEYE_NAME>
3-[(1E)-buta-1,3-dienyl]isochromen-1-one

>  <PUBCHEM_IUPAC_CAS_NAME>
3-[(1E)-buta-1,3-dienyl]-2-benzopyran-1-one

>  <PUBCHEM_IUPAC_NAME>
3-[(1E)-buta-1,3-dienyl]isochromen-1-one

>  <PUBCHEM_IUPAC_SYSTEMATIC_NAME>
3-[(1E)-buta-1,3-dienyl]isochromen-1-one

>  <PUBCHEM_IUPAC_TRADITIONAL_NAME>
3-[(1E)-buta-1,3-dienyl]isocoumarin

>  <PUBCHEM_IUPAC_INCHI>
InChI=1S/C13H10O2/c1-2-3-7-11-9-10-6-4-5-8-12(10)13(14)15-11/h2-9H,1H2/b7-3+

>  <PUBCHEM_IUPAC_INCHIKEY>
NCJLODXKOVAPFB-XVNBXDOJSA-N

>  <PUBCHEM_XLOGP3_AA>
3.3

>  <PUBCHEM_EXACT_MASS>
198.068

>  <PUBCHEM_MOLECULAR_FORMULA>
C13H10O2

>  <PUBCHEM_MOLECULAR_WEIGHT>
198.221

>  <PUBCHEM_OPENEYE_CAN_SMILES>
C=CC=CC1=CC2=CC=CC=C2C(=O)O1

>  <PUBCHEM_OPENEYE_ISO_SMILES>
C=C/C=C/C1=CC2=CC=CC=C2C(=O)O1

>  <PUBCHEM_CACTVS_TPSA>
26.3

>  <PUBCHEM_MONOISOTOPIC_WEIGHT>
198.068

>  <PUBCHEM_TOTAL_CHARGE>
0

>  <PUBCHEM_HEAVY_ATOM_COUNT>
15

>  <PUBCHEM_ATOM_DEF_STEREO_COUNT>
0

>  <PUBCHEM_ATOM_UDEF_STEREO_COUNT>
0

>  <PUBCHEM_BOND_DEF_STEREO_COUNT>
1

>  <PUBCHEM_BOND_UDEF_STEREO_COUNT>
0

>  <PUBCHEM_ISOTOPIC_ATOM_COUNT>
0

>  <PUBCHEM_COMPONENT_COUNT>
1

>  <PUBCHEM_CACTVS_TAUTO_COUNT>
1

>  <PUBCHEM_COORDINATE_TYPE>
1
5
255

>  <PUBCHEM_BONDANNOTATIONS>
1  7  8
1  9  8
10  11  8
3  4  8
3  5  8
3  6  8
4  8  8
4  9  8
5  7  8
6  10  8
8  11  8

$$$$
