11289514
 OpenBabel06101807152D

 40 41  0  0  0  0  0  0  0  0999 V2000
    9.8622    0.4827    0.0000 O   0  0  0  0  0  0  0  0  0  0  0  0
    5.5321   -0.0173    0.0000 O   0  0  0  0  0  0  0  0  0  0  0  0
   10.7282   -1.0173    0.0000 O   0  0  0  0  0  0  0  0  0  0  0  0
    4.6660   -1.5173    0.0000 O   0  0  0  0  0  0  0  0  0  0  0  0
   12.4603   -0.0173    0.0000 C   0  0  0  0  0  0  0  0  0  0  0  0
   11.5942    0.4827    0.0000 C   0  0  0  0  0  0  0  0  0  0  0  0
   13.3263    0.4827    0.0000 C   0  0  0  0  0  0  0  0  0  0  0  0
   12.4603   -1.0173    0.0000 C   0  0  0  0  0  0  0  0  0  0  0  0
   10.7282   -0.0173    0.0000 C   0  0  0  0  0  0  0  0  0  0  0  0
    3.8000    0.9827    0.0000 C   0  0  0  0  0  0  0  0  0  0  0  0
    3.8000   -0.0173    0.0000 C   0  0  0  0  0  0  0  0  0  0  0  0
    5.5321    0.9827    0.0000 C   0  0  0  0  0  0  0  0  0  0  0  0
    4.6660    1.4827    0.0000 C   0  0  0  0  0  0  0  0  0  0  0  0
    2.9061    1.5173    0.0000 C   0  0  0  0  0  0  0  0  0  0  0  0
    2.9061   -0.5520    0.0000 C   0  0  0  0  0  0  0  0  0  0  0  0
    6.3981    1.4827    0.0000 C   0  0  0  0  0  0  0  0  0  0  0  0
    4.6660   -0.5173    0.0000 C   0  0  0  0  0  0  0  0  0  0  0  0
    2.0000    1.0035    0.0000 C   0  0  0  0  0  0  0  0  0  0  0  0
    2.0000   -0.0381    0.0000 C   0  0  0  0  0  0  0  0  0  0  0  0
    8.9962   -0.0173    0.0000 C   0  0  0  0  0  0  0  0  0  0  0  0
    7.2641    0.9827    0.0000 C   0  0  0  0  0  0  0  0  0  0  0  0
    8.1301    0.4827    0.0000 C   0  0  0  0  0  0  0  0  0  0  0  0
   12.9972   -0.3273    0.0000 H   0  0  0  0  0  0  0  0  0  0  0  0
   11.9928    0.9576    0.0000 H   0  0  0  0  0  0  0  0  0  0  0  0
   11.1957    0.9576    0.0000 H   0  0  0  0  0  0  0  0  0  0  0  0
   11.8403   -1.0173    0.0000 H   0  0  0  0  0  0  0  0  0  0  0  0
   13.6363   -0.0543    0.0000 H   0  0  0  0  0  0  0  0  0  0  0  0
   13.8632    0.7927    0.0000 H   0  0  0  0  0  0  0  0  0  0  0  0
   13.0163    1.0196    0.0000 H   0  0  0  0  0  0  0  0  0  0  0  0
   12.4603   -1.6373    0.0000 H   0  0  0  0  0  0  0  0  0  0  0  0
   13.0803   -1.0173    0.0000 H   0  0  0  0  0  0  0  0  0  0  0  0
    4.6660    2.1027    0.0000 H   0  0  0  0  0  0  0  0  0  0  0  0
    2.9132    2.1373    0.0000 H   0  0  0  0  0  0  0  0  0  0  0  0
    2.9132   -1.1720    0.0000 H   0  0  0  0  0  0  0  0  0  0  0  0
    6.7966    1.9576    0.0000 H   0  0  0  0  0  0  0  0  0  0  0  0
    5.9996    1.9576    0.0000 H   0  0  0  0  0  0  0  0  0  0  0  0
    1.4643    1.3156    0.0000 H   0  0  0  0  0  0  0  0  0  0  0  0
    1.4643   -0.3502    0.0000 H   0  0  0  0  0  0  0  0  0  0  0  0
    8.5976   -0.4923    0.0000 H   0  0  0  0  0  0  0  0  0  0  0  0
    9.3947   -0.4923    0.0000 H   0  0  0  0  0  0  0  0  0  0  0  0
  1  9  1  0  0  0  0
  1 20  1  0  0  0  0
  2 12  1  0  0  0  0
  2 17  1  0  0  0  0
  3  9  2  0  0  0  0
  4 17  2  0  0  0  0
  5  6  1  0  0  0  0
  5  7  1  0  0  0  0
  5  8  1  0  0  0  0
  5 23  1  0  0  0  0
  6  9  1  0  0  0  0
  6 24  1  0  0  0  0
  6 25  1  0  0  0  0
  7 27  1  0  0  0  0
  7 28  1  0  0  0  0
  7 29  1  0  0  0  0
  8 26  1  0  0  0  0
  8 30  1  0  0  0  0
  8 31  1  0  0  0  0
 10 11  1  0  0  0  0
 10 13  1  0  0  0  0
 10 14  2  0  0  0  0
 11 15  2  0  0  0  0
 11 17  1  0  0  0  0
 12 13  2  0  0  0  0
 12 16  1  0  0  0  0
 13 32  1  0  0  0  0
 14 18  1  0  0  0  0
 14 33  1  0  0  0  0
 15 19  1  0  0  0  0
 15 34  1  0  0  0  0
 16 21  1  0  0  0  0
 16 35  1  0  0  0  0
 16 36  1  0  0  0  0
 18 19  2  0  0  0  0
 18 37  1  0  0  0  0
 19 38  1  0  0  0  0
 20 22  1  0  0  0  0
 20 39  1  0  0  0  0
 20 40  1  0  0  0  0
 21 22  3  0  0  0  0
M  END
>  <PUBCHEM_COMPOUND_CID>
11289514

>  <PUBCHEM_COMPOUND_CANONICALIZED>
1

>  <PUBCHEM_CACTVS_COMPLEXITY>
518

>  <PUBCHEM_CACTVS_HBOND_ACCEPTOR>
4

>  <PUBCHEM_CACTVS_HBOND_DONOR>
0

>  <PUBCHEM_CACTVS_ROTATABLE_BOND>
5

>  <PUBCHEM_CACTVS_SUBSKEYS>
AAADceB4OAAAAAAAAAAAAAAAAAAAAAAAAAAwQAAAAAAAAACBAAAAGgAAAAAADQSgmAIyCIAABADIEiDSCAgCCAAkIAAIiAEACMgIJjKANRiCMQAkwAEIqYeIyKCOgAAAAAAQAAAAAAAAACAAAAAAAAAAAA==

>  <PUBCHEM_IUPAC_OPENEYE_NAME>
4-(1-oxoisochromen-3-yl)but-2-ynyl 3-methylbutanoate

>  <PUBCHEM_IUPAC_CAS_NAME>
3-methylbutanoic acid 4-(1-oxo-2-benzopyran-3-yl)but-2-ynyl ester

>  <PUBCHEM_IUPAC_NAME>
4-(1-oxoisochromen-3-yl)but-2-ynyl 3-methylbutanoate

>  <PUBCHEM_IUPAC_SYSTEMATIC_NAME>
4-(1-oxidanylideneisochromen-3-yl)but-2-ynyl 3-methylbutanoate

>  <PUBCHEM_IUPAC_TRADITIONAL_NAME>
3-methylbutyric acid 4-(1-ketoisochromen-3-yl)but-2-ynyl ester

>  <PUBCHEM_IUPAC_INCHI>
InChI=1S/C18H18O4/c1-13(2)11-17(19)21-10-6-5-8-15-12-14-7-3-4-9-16(14)18(20)22-15/h3-4,7,9,12-13H,8,10-11H2,1-2H3

>  <PUBCHEM_IUPAC_INCHIKEY>
VOVINARUPGPNJR-UHFFFAOYSA-N

>  <PUBCHEM_XLOGP3_AA>
3.6

>  <PUBCHEM_EXACT_MASS>
298.121

>  <PUBCHEM_MOLECULAR_FORMULA>
C18H18O4

>  <PUBCHEM_MOLECULAR_WEIGHT>
298.338

>  <PUBCHEM_OPENEYE_CAN_SMILES>
CC(C)CC(=O)OCC#CCC1=CC2=CC=CC=C2C(=O)O1

>  <PUBCHEM_OPENEYE_ISO_SMILES>
CC(C)CC(=O)OCC#CCC1=CC2=CC=CC=C2C(=O)O1

>  <PUBCHEM_CACTVS_TPSA>
52.6

>  <PUBCHEM_MONOISOTOPIC_WEIGHT>
298.121

>  <PUBCHEM_TOTAL_CHARGE>
0

>  <PUBCHEM_HEAVY_ATOM_COUNT>
22

>  <PUBCHEM_ATOM_DEF_STEREO_COUNT>
0

>  <PUBCHEM_ATOM_UDEF_STEREO_COUNT>
0

>  <PUBCHEM_BOND_DEF_STEREO_COUNT>
0

>  <PUBCHEM_BOND_UDEF_STEREO_COUNT>
0

>  <PUBCHEM_ISOTOPIC_ATOM_COUNT>
0

>  <PUBCHEM_COMPONENT_COUNT>
1

>  <PUBCHEM_CACTVS_TAUTO_COUNT>
4

>  <PUBCHEM_COORDINATE_TYPE>
1
5
255

>  <PUBCHEM_BONDANNOTATIONS>
10  11  8
10  13  8
10  14  8
11  15  8
11  17  8
12  13  8
14  18  8
15  19  8
18  19  8
2  12  8
2  17  8

$$$$
