11290991
 OpenBabel06101807152D

 46 49  0  0  0  0  0  0  0  0999 V2000
    3.6590   -0.2526    0.0000 O   0  0  0  0  0  0  0  0  0  0  0  0
    5.4407    2.8061    0.0000 O   0  0  0  0  0  0  0  0  0  0  0  0
    6.3013    3.3030    0.0000 O   0  0  0  0  0  0  0  0  0  0  0  0
    2.0000   -3.3030    0.0000 O   0  0  0  0  0  0  0  0  0  0  0  0
    6.3231    0.2715    0.0000 C   0  0  0  0  0  0  0  0  0  0  0  0
    7.1892   -0.2285    0.0000 C   0  0  0  0  0  0  0  0  0  0  0  0
    8.0552    0.2715    0.0000 C   0  0  0  0  0  0  0  0  0  0  0  0
    6.3231    1.2715    0.0000 C   0  0  0  0  0  0  0  0  0  0  0  0
    7.1892    1.7715    0.0000 C   0  0  0  0  0  0  0  0  0  0  0  0
    8.0552    1.2715    0.0000 C   0  0  0  0  0  0  0  0  0  0  0  0
    5.4292   -0.2631    0.0000 C   0  0  0  0  0  0  0  0  0  0  0  0
    5.4407   -1.2631    0.0000 C   0  0  0  0  0  0  0  0  0  0  0  0
    5.4292    1.8062    0.0000 C   0  0  0  0  0  0  0  0  0  0  0  0
    4.5231    0.2507    0.0000 C   0  0  0  0  0  0  0  0  0  0  0  0
    7.1731    2.8130    0.0000 C   0  0  0  0  0  0  0  0  0  0  0  0
    4.5231    1.2923    0.0000 C   0  0  0  0  0  0  0  0  0  0  0  0
    8.9652    1.7784    0.0000 C   0  0  0  0  0  0  0  0  0  0  0  0
    4.5806   -1.7730    0.0000 C   0  0  0  0  0  0  0  0  0  0  0  0
    8.0711    3.3408    0.0000 C   0  0  0  0  0  0  0  0  0  0  0  0
    8.9732    2.8200    0.0000 C   0  0  0  0  0  0  0  0  0  0  0  0
    3.7088   -1.2831    0.0000 C   0  0  0  0  0  0  0  0  0  0  0  0
    4.5921   -2.7730    0.0000 C   0  0  0  0  0  0  0  0  0  0  0  0
    2.8486   -1.7931    0.0000 C   0  0  0  0  0  0  0  0  0  0  0  0
    3.7319   -3.2830    0.0000 C   0  0  0  0  0  0  0  0  0  0  0  0
    2.7911    0.2440    0.0000 C   0  0  0  0  0  0  0  0  0  0  0  0
    2.8602   -2.7930    0.0000 C   0  0  0  0  0  0  0  0  0  0  0  0
    6.7906   -0.7034    0.0000 H   0  0  0  0  0  0  0  0  0  0  0  0
    7.5877   -0.7034    0.0000 H   0  0  0  0  0  0  0  0  0  0  0  0
    8.2672   -0.3111    0.0000 H   0  0  0  0  0  0  0  0  0  0  0  0
    8.6657    0.3792    0.0000 H   0  0  0  0  0  0  0  0  0  0  0  0
    5.6595   -1.8432    0.0000 H   0  0  0  0  0  0  0  0  0  0  0  0
    6.0500   -1.1484    0.0000 H   0  0  0  0  0  0  0  0  0  0  0  0
    3.9874    1.6044    0.0000 H   0  0  0  0  0  0  0  0  0  0  0  0
    9.4985    1.4622    0.0000 H   0  0  0  0  0  0  0  0  0  0  0  0
    8.0687    3.9608    0.0000 H   0  0  0  0  0  0  0  0  0  0  0  0
    9.5113    3.1279    0.0000 H   0  0  0  0  0  0  0  0  0  0  0  0
    3.7016   -0.6631    0.0000 H   0  0  0  0  0  0  0  0  0  0  0  0
    5.1326   -3.0768    0.0000 H   0  0  0  0  0  0  0  0  0  0  0  0
    4.9074    3.1223    0.0000 H   0  0  0  0  0  0  0  0  0  0  0  0
    6.2942    3.9230    0.0000 H   0  0  0  0  0  0  0  0  0  0  0  0
    2.3081   -1.4893    0.0000 H   0  0  0  0  0  0  0  0  0  0  0  0
    3.7391   -3.9029    0.0000 H   0  0  0  0  0  0  0  0  0  0  0  0
    3.0990    0.7822    0.0000 H   0  0  0  0  0  0  0  0  0  0  0  0
    2.2529    0.5520    0.0000 H   0  0  0  0  0  0  0  0  0  0  0  0
    2.4832   -0.2941    0.0000 H   0  0  0  0  0  0  0  0  0  0  0  0
    2.0072   -3.9230    0.0000 H   0  0  0  0  0  0  0  0  0  0  0  0
  1 14  1  0  0  0  0
  1 25  1  0  0  0  0
  2 13  1  0  0  0  0
  2 39  1  0  0  0  0
  3 15  1  0  0  0  0
  3 40  1  0  0  0  0
  4 26  1  0  0  0  0
  4 46  1  0  0  0  0
  5  6  1  0  0  0  0
  5  8  2  0  0  0  0
  5 11  1  0  0  0  0
  6  7  1  0  0  0  0
  6 27  1  0  0  0  0
  6 28  1  0  0  0  0
  7 10  1  0  0  0  0
  7 29  1  0  0  0  0
  7 30  1  0  0  0  0
  8  9  1  0  0  0  0
  8 13  1  0  0  0  0
  9 10  2  0  0  0  0
  9 15  1  0  0  0  0
 10 17  1  0  0  0  0
 11 12  1  0  0  0  0
 11 14  2  0  0  0  0
 12 18  1  0  0  0  0
 12 31  1  0  0  0  0
 12 32  1  0  0  0  0
 13 16  2  0  0  0  0
 14 16  1  0  0  0  0
 15 19  2  0  0  0  0
 16 33  1  0  0  0  0
 17 20  2  0  0  0  0
 17 34  1  0  0  0  0
 18 21  2  0  0  0  0
 18 22  1  0  0  0  0
 19 20  1  0  0  0  0
 19 35  1  0  0  0  0
 20 36  1  0  0  0  0
 21 23  1  0  0  0  0
 21 37  1  0  0  0  0
 22 24  2  0  0  0  0
 22 38  1  0  0  0  0
 23 26  2  0  0  0  0
 23 41  1  0  0  0  0
 24 26  1  0  0  0  0
 24 42  1  0  0  0  0
 25 43  1  0  0  0  0
 25 44  1  0  0  0  0
 25 45  1  0  0  0  0
M  END
>  <PUBCHEM_COMPOUND_CID>
11290991

>  <PUBCHEM_COMPOUND_CANONICALIZED>
1

>  <PUBCHEM_CACTVS_COMPLEXITY>
461

>  <PUBCHEM_CACTVS_HBOND_ACCEPTOR>
4

>  <PUBCHEM_CACTVS_HBOND_DONOR>
3

>  <PUBCHEM_CACTVS_ROTATABLE_BOND>
3

>  <PUBCHEM_CACTVS_SUBSKEYS>
AAADceB4OAAAAAAAAAAAAAAAAAAAAAAAAAAwYMGAAAAAAADBUAAAGgAACAAADASAmAIyBoAABgCAAiBCAAACCAAgIAAIiAAGCIgMJyKGMRqAcCAlwBUIuAfA4PwOoAADCAAYAADAAAYQADAAAAAAAAAAAA==

>  <PUBCHEM_IUPAC_OPENEYE_NAME>
1-[(4-hydroxyphenyl)methyl]-2-methoxy-9,10-dihydrophenanthrene-4,5-diol

>  <PUBCHEM_IUPAC_CAS_NAME>
1-[(4-hydroxyphenyl)methyl]-2-methoxy-9,10-dihydrophenanthrene-4,5-diol

>  <PUBCHEM_IUPAC_NAME>
1-[(4-hydroxyphenyl)methyl]-2-methoxy-9,10-dihydrophenanthrene-4,5-diol

>  <PUBCHEM_IUPAC_SYSTEMATIC_NAME>
1-[(4-hydroxyphenyl)methyl]-2-methoxy-9,10-dihydrophenanthrene-4,5-diol

>  <PUBCHEM_IUPAC_TRADITIONAL_NAME>
1-(4-hydroxybenzyl)-2-methoxy-9,10-dihydrophenanthrene-4,5-diol

>  <PUBCHEM_IUPAC_INCHI>
InChI=1S/C22H20O4/c1-26-20-12-19(25)22-16(10-7-14-3-2-4-18(24)21(14)22)17(20)11-13-5-8-15(23)9-6-13/h2-6,8-9,12,23-25H,7,10-11H2,1H3

>  <PUBCHEM_IUPAC_INCHIKEY>
AONJBADGZUCIGR-UHFFFAOYSA-N

>  <PUBCHEM_XLOGP3_AA>
4.7

>  <PUBCHEM_EXACT_MASS>
348.136

>  <PUBCHEM_MOLECULAR_FORMULA>
C22H20O4

>  <PUBCHEM_MOLECULAR_WEIGHT>
348.398

>  <PUBCHEM_OPENEYE_CAN_SMILES>
COC1=C(C2=C(C(=C1)O)C3=C(CC2)C=CC=C3O)CC4=CC=C(C=C4)O

>  <PUBCHEM_OPENEYE_ISO_SMILES>
COC1=C(C2=C(C(=C1)O)C3=C(CC2)C=CC=C3O)CC4=CC=C(C=C4)O

>  <PUBCHEM_CACTVS_TPSA>
69.9

>  <PUBCHEM_MONOISOTOPIC_WEIGHT>
348.136

>  <PUBCHEM_TOTAL_CHARGE>
0

>  <PUBCHEM_HEAVY_ATOM_COUNT>
26

>  <PUBCHEM_ATOM_DEF_STEREO_COUNT>
0

>  <PUBCHEM_ATOM_UDEF_STEREO_COUNT>
0

>  <PUBCHEM_BOND_DEF_STEREO_COUNT>
0

>  <PUBCHEM_BOND_UDEF_STEREO_COUNT>
0

>  <PUBCHEM_ISOTOPIC_ATOM_COUNT>
0

>  <PUBCHEM_COMPONENT_COUNT>
1

>  <PUBCHEM_CACTVS_TAUTO_COUNT>
998

>  <PUBCHEM_COORDINATE_TYPE>
1
5
255

>  <PUBCHEM_BONDANNOTATIONS>
10  17  8
11  14  8
13  16  8
14  16  8
15  19  8
17  20  8
18  21  8
18  22  8
19  20  8
21  23  8
22  24  8
23  26  8
24  26  8
5  11  8
5  8  8
8  13  8
9  10  8
9  15  8

$$$$
