11302483
 OpenBabel06101807152D

 46 49  0  0  0  0  0  0  0  0999 V2000
    7.7892    1.4710    0.0000 O   0  0  0  0  0  0  0  0  0  0  0  0
    6.0075   -1.5878    0.0000 O   0  0  0  0  0  0  0  0  0  0  0  0
    8.6498    1.9678    0.0000 O   0  0  0  0  0  0  0  0  0  0  0  0
    2.5357   -1.5261    0.0000 O   0  0  0  0  0  0  0  0  0  0  0  0
    9.5376   -1.5636    0.0000 C   0  0  0  0  0  0  0  0  0  0  0  0
    8.6716   -1.0636    0.0000 C   0  0  0  0  0  0  0  0  0  0  0  0
    8.6716   -0.0636    0.0000 C   0  0  0  0  0  0  0  0  0  0  0  0
   10.4037   -1.0636    0.0000 C   0  0  0  0  0  0  0  0  0  0  0  0
    9.5376    0.4364    0.0000 C   0  0  0  0  0  0  0  0  0  0  0  0
   10.4037   -0.0636    0.0000 C   0  0  0  0  0  0  0  0  0  0  0  0
    7.7777    0.4710    0.0000 C   0  0  0  0  0  0  0  0  0  0  0  0
    6.8716   -0.0428    0.0000 C   0  0  0  0  0  0  0  0  0  0  0  0
    7.7777   -1.5983    0.0000 C   0  0  0  0  0  0  0  0  0  0  0  0
    6.8716   -1.0844    0.0000 C   0  0  0  0  0  0  0  0  0  0  0  0
    6.0075    0.4605    0.0000 C   0  0  0  0  0  0  0  0  0  0  0  0
    9.5216    1.4779    0.0000 C   0  0  0  0  0  0  0  0  0  0  0  0
   11.3137    0.4432    0.0000 C   0  0  0  0  0  0  0  0  0  0  0  0
   10.4196    2.0056    0.0000 C   0  0  0  0  0  0  0  0  0  0  0  0
   11.3217    1.4848    0.0000 C   0  0  0  0  0  0  0  0  0  0  0  0
    5.1396   -0.0361    0.0000 C   0  0  0  0  0  0  0  0  0  0  0  0
    4.2755    0.4672    0.0000 C   0  0  0  0  0  0  0  0  0  0  0  0
    5.1357   -1.0361    0.0000 C   0  0  0  0  0  0  0  0  0  0  0  0
    6.0114   -2.5878    0.0000 C   0  0  0  0  0  0  0  0  0  0  0  0
    3.4075   -0.0295    0.0000 C   0  0  0  0  0  0  0  0  0  0  0  0
    4.2678   -1.5328    0.0000 C   0  0  0  0  0  0  0  0  0  0  0  0
    3.4037   -1.0295    0.0000 C   0  0  0  0  0  0  0  0  0  0  0  0
    9.1391   -2.0386    0.0000 H   0  0  0  0  0  0  0  0  0  0  0  0
    9.9362   -2.0386    0.0000 H   0  0  0  0  0  0  0  0  0  0  0  0
   10.6157   -1.6462    0.0000 H   0  0  0  0  0  0  0  0  0  0  0  0
   11.0143   -0.9560    0.0000 H   0  0  0  0  0  0  0  0  0  0  0  0
    7.7848   -2.2183    0.0000 H   0  0  0  0  0  0  0  0  0  0  0  0
    6.4079    0.9339    0.0000 H   0  0  0  0  0  0  0  0  0  0  0  0
    5.6108    0.9370    0.0000 H   0  0  0  0  0  0  0  0  0  0  0  0
   11.8470    0.1270    0.0000 H   0  0  0  0  0  0  0  0  0  0  0  0
   10.4172    2.6256    0.0000 H   0  0  0  0  0  0  0  0  0  0  0  0
   11.8598    1.7927    0.0000 H   0  0  0  0  0  0  0  0  0  0  0  0
    7.2559    1.7871    0.0000 H   0  0  0  0  0  0  0  0  0  0  0  0
    4.2779    1.0872    0.0000 H   0  0  0  0  0  0  0  0  0  0  0  0
    5.6715   -1.3482    0.0000 H   0  0  0  0  0  0  0  0  0  0  0  0
    8.6427    2.5878    0.0000 H   0  0  0  0  0  0  0  0  0  0  0  0
    5.3914   -2.5902    0.0000 H   0  0  0  0  0  0  0  0  0  0  0  0
    6.0138   -3.2078    0.0000 H   0  0  0  0  0  0  0  0  0  0  0  0
    6.6314   -2.5854    0.0000 H   0  0  0  0  0  0  0  0  0  0  0  0
    2.8718    0.2826    0.0000 H   0  0  0  0  0  0  0  0  0  0  0  0
    4.2654   -2.1528    0.0000 H   0  0  0  0  0  0  0  0  0  0  0  0
    2.0000   -1.2140    0.0000 H   0  0  0  0  0  0  0  0  0  0  0  0
  1 11  1  0  0  0  0
  1 37  1  0  0  0  0
  2 14  1  0  0  0  0
  2 23  1  0  0  0  0
  3 16  1  0  0  0  0
  3 40  1  0  0  0  0
  4 26  1  0  0  0  0
  4 46  1  0  0  0  0
  5  6  1  0  0  0  0
  5  8  1  0  0  0  0
  5 27  1  0  0  0  0
  5 28  1  0  0  0  0
  6  7  1  0  0  0  0
  6 13  2  0  0  0  0
  7  9  1  0  0  0  0
  7 11  2  0  0  0  0
  8 10  1  0  0  0  0
  8 29  1  0  0  0  0
  8 30  1  0  0  0  0
  9 10  2  0  0  0  0
  9 16  1  0  0  0  0
 10 17  1  0  0  0  0
 11 12  1  0  0  0  0
 12 14  2  0  0  0  0
 12 15  1  0  0  0  0
 13 14  1  0  0  0  0
 13 31  1  0  0  0  0
 15 20  1  0  0  0  0
 15 32  1  0  0  0  0
 15 33  1  0  0  0  0
 16 18  2  0  0  0  0
 17 19  2  0  0  0  0
 17 34  1  0  0  0  0
 18 19  1  0  0  0  0
 18 35  1  0  0  0  0
 19 36  1  0  0  0  0
 20 21  2  0  0  0  0
 20 22  1  0  0  0  0
 21 24  1  0  0  0  0
 21 38  1  0  0  0  0
 22 25  2  0  0  0  0
 22 39  1  0  0  0  0
 23 41  1  0  0  0  0
 23 42  1  0  0  0  0
 23 43  1  0  0  0  0
 24 26  2  0  0  0  0
 24 44  1  0  0  0  0
 25 26  1  0  0  0  0
 25 45  1  0  0  0  0
M  END
>  <PUBCHEM_COMPOUND_CID>
11302483

>  <PUBCHEM_COMPOUND_CANONICALIZED>
1

>  <PUBCHEM_CACTVS_COMPLEXITY>
461

>  <PUBCHEM_CACTVS_HBOND_ACCEPTOR>
4

>  <PUBCHEM_CACTVS_HBOND_DONOR>
3

>  <PUBCHEM_CACTVS_ROTATABLE_BOND>
3

>  <PUBCHEM_CACTVS_SUBSKEYS>
AAADceB4OAAAAAAAAAAAAAAAAAAAAAAAAAAwYMGAAAAAAADBUAAAGgAACAAADASAmAIyBoAABgCAAiBCAAACCAAgIAAIiAAGCIgMJyKGMRqAcCAlwBUIuAfA4PwO4AADCAAYAADAAAYQADAAAAAAAAAAAA==

>  <PUBCHEM_IUPAC_OPENEYE_NAME>
3-[(4-hydroxyphenyl)methyl]-2-methoxy-9,10-dihydrophenanthrene-4,5-diol

>  <PUBCHEM_IUPAC_CAS_NAME>
3-[(4-hydroxyphenyl)methyl]-2-methoxy-9,10-dihydrophenanthrene-4,5-diol

>  <PUBCHEM_IUPAC_NAME>
3-[(4-hydroxyphenyl)methyl]-2-methoxy-9,10-dihydrophenanthrene-4,5-diol

>  <PUBCHEM_IUPAC_SYSTEMATIC_NAME>
3-[(4-hydroxyphenyl)methyl]-2-methoxy-9,10-dihydrophenanthrene-4,5-diol

>  <PUBCHEM_IUPAC_TRADITIONAL_NAME>
3-(4-hydroxybenzyl)-2-methoxy-9,10-dihydrophenanthrene-4,5-diol

>  <PUBCHEM_IUPAC_INCHI>
InChI=1S/C22H20O4/c1-26-19-12-15-8-7-14-3-2-4-18(24)20(14)21(15)22(25)17(19)11-13-5-9-16(23)10-6-13/h2-6,9-10,12,23-25H,7-8,11H2,1H3

>  <PUBCHEM_IUPAC_INCHIKEY>
WZPDRMHOGQFMFP-UHFFFAOYSA-N

>  <PUBCHEM_XLOGP3_AA>
4.7

>  <PUBCHEM_EXACT_MASS>
348.136

>  <PUBCHEM_MOLECULAR_FORMULA>
C22H20O4

>  <PUBCHEM_MOLECULAR_WEIGHT>
348.398

>  <PUBCHEM_OPENEYE_CAN_SMILES>
COC1=C(C(=C2C(=C1)CCC3=C2C(=CC=C3)O)O)CC4=CC=C(C=C4)O

>  <PUBCHEM_OPENEYE_ISO_SMILES>
COC1=C(C(=C2C(=C1)CCC3=C2C(=CC=C3)O)O)CC4=CC=C(C=C4)O

>  <PUBCHEM_CACTVS_TPSA>
69.9

>  <PUBCHEM_MONOISOTOPIC_WEIGHT>
348.136

>  <PUBCHEM_TOTAL_CHARGE>
0

>  <PUBCHEM_HEAVY_ATOM_COUNT>
26

>  <PUBCHEM_ATOM_DEF_STEREO_COUNT>
0

>  <PUBCHEM_ATOM_UDEF_STEREO_COUNT>
0

>  <PUBCHEM_BOND_DEF_STEREO_COUNT>
0

>  <PUBCHEM_BOND_UDEF_STEREO_COUNT>
0

>  <PUBCHEM_ISOTOPIC_ATOM_COUNT>
0

>  <PUBCHEM_COMPONENT_COUNT>
1

>  <PUBCHEM_CACTVS_TAUTO_COUNT>
998

>  <PUBCHEM_COORDINATE_TYPE>
1
5
255

>  <PUBCHEM_BONDANNOTATIONS>
10  17  8
11  12  8
12  14  8
13  14  8
16  18  8
17  19  8
18  19  8
20  21  8
20  22  8
21  24  8
22  25  8
24  26  8
25  26  8
6  13  8
6  7  8
7  11  8
9  10  8
9  16  8

$$$$
