11378967
 OpenBabel06101807152D

 26 27  0  0  0  0  0  0  0  0999 V2000
    6.3580   -1.6723    0.0000 O   0  0  0  0  0  0  0  0  0  0  0  0
    4.5981    1.3623    0.0000 O   0  0  0  0  0  0  0  0  0  0  0  0
    2.8660    1.3623    0.0000 O   0  0  0  0  0  0  0  0  0  0  0  0
    8.1282   -1.6618    0.0000 O   0  0  0  0  0  0  0  0  0  0  0  0
    5.4641   -0.1377    0.0000 C   0  0  0  0  0  0  0  0  0  0  0  0
    5.4641   -1.1377    0.0000 C   0  0  0  0  0  0  0  0  0  0  0  0
    6.3580    0.3970    0.0000 C   0  0  0  0  0  0  0  0  0  0  0  0
    4.5981    0.3623    0.0000 C   0  0  0  0  0  0  0  0  0  0  0  0
    3.7320   -0.1377    0.0000 C   0  0  0  0  0  0  0  0  0  0  0  0
    4.5981   -1.6377    0.0000 C   0  0  0  0  0  0  0  0  0  0  0  0
    3.7320   -1.1377    0.0000 C   0  0  0  0  0  0  0  0  0  0  0  0
    7.2641   -0.1169    0.0000 C   0  0  0  0  0  0  0  0  0  0  0  0
    6.3465    1.3969    0.0000 C   0  0  0  0  0  0  0  0  0  0  0  0
    2.8660    0.3623    0.0000 C   0  0  0  0  0  0  0  0  0  0  0  0
    7.2641   -1.1585    0.0000 C   0  0  0  0  0  0  0  0  0  0  0  0
    2.0000   -0.1377    0.0000 C   0  0  0  0  0  0  0  0  0  0  0  0
    4.5981   -2.2577    0.0000 H   0  0  0  0  0  0  0  0  0  0  0  0
    3.1951   -1.4477    0.0000 H   0  0  0  0  0  0  0  0  0  0  0  0
    7.7998    0.1952    0.0000 H   0  0  0  0  0  0  0  0  0  0  0  0
    6.9664    1.4041    0.0000 H   0  0  0  0  0  0  0  0  0  0  0  0
    6.3393    2.0169    0.0000 H   0  0  0  0  0  0  0  0  0  0  0  0
    5.7265    1.3898    0.0000 H   0  0  0  0  0  0  0  0  0  0  0  0
    1.6900    0.3993    0.0000 H   0  0  0  0  0  0  0  0  0  0  0  0
    1.4631   -0.4477    0.0000 H   0  0  0  0  0  0  0  0  0  0  0  0
    2.3100   -0.6746    0.0000 H   0  0  0  0  0  0  0  0  0  0  0  0
    4.0611    1.6723    0.0000 H   0  0  0  0  0  0  0  0  0  0  0  0
  1  6  1  0  0  0  0
  1 15  1  0  0  0  0
  2  8  1  0  0  0  0
  2 26  1  0  0  0  0
  3 14  2  0  0  0  0
  4 15  2  0  0  0  0
  5  6  2  0  0  0  0
  5  7  1  0  0  0  0
  5  8  1  0  0  0  0
  6 10  1  0  0  0  0
  7 12  2  0  0  0  0
  7 13  1  0  0  0  0
  8  9  2  0  0  0  0
  9 11  1  0  0  0  0
  9 14  1  0  0  0  0
 10 11  2  0  0  0  0
 10 17  1  0  0  0  0
 11 18  1  0  0  0  0
 12 15  1  0  0  0  0
 12 19  1  0  0  0  0
 13 20  1  0  0  0  0
 13 21  1  0  0  0  0
 13 22  1  0  0  0  0
 14 16  1  0  0  0  0
 16 23  1  0  0  0  0
 16 24  1  0  0  0  0
 16 25  1  0  0  0  0
M  END
>  <PUBCHEM_COMPOUND_CID>
11378967

>  <PUBCHEM_COMPOUND_CANONICALIZED>
1

>  <PUBCHEM_CACTVS_COMPLEXITY>
358

>  <PUBCHEM_CACTVS_HBOND_ACCEPTOR>
4

>  <PUBCHEM_CACTVS_HBOND_DONOR>
1

>  <PUBCHEM_CACTVS_ROTATABLE_BOND>
1

>  <PUBCHEM_CACTVS_SUBSKEYS>
AAADccBwOAAAAAAAAAAAAAAAAAAAAAAAAAAwQAAAAAAAAACBAAAAGgAACAAADASAmAAyDoAABgCIAqDSCAACCAAkIAAIiAEGCMgMJzaGNRqCe2Cl4BUIuYeI7OzOIAACCAAIAABAAAQQABAAAAAAAAAAAA==

>  <PUBCHEM_IUPAC_OPENEYE_NAME>
6-acetyl-5-hydroxy-4-methyl-chromen-2-one

>  <PUBCHEM_IUPAC_CAS_NAME>
6-acetyl-5-hydroxy-4-methyl-1-benzopyran-2-one

>  <PUBCHEM_IUPAC_NAME>
6-acetyl-5-hydroxy-4-methylchromen-2-one

>  <PUBCHEM_IUPAC_SYSTEMATIC_NAME>
6-ethanoyl-4-methyl-5-oxidanyl-chromen-2-one

>  <PUBCHEM_IUPAC_TRADITIONAL_NAME>
6-acetyl-5-hydroxy-4-methyl-coumarin

>  <PUBCHEM_IUPAC_INCHI>
InChI=1S/C12H10O4/c1-6-5-10(14)16-9-4-3-8(7(2)13)12(15)11(6)9/h3-5,15H,1-2H3

>  <PUBCHEM_IUPAC_INCHIKEY>
UMNMVZFOKSPTJN-UHFFFAOYSA-N

>  <PUBCHEM_XLOGP3_AA>
1.7

>  <PUBCHEM_EXACT_MASS>
218.058

>  <PUBCHEM_MOLECULAR_FORMULA>
C12H10O4

>  <PUBCHEM_MOLECULAR_WEIGHT>
218.208

>  <PUBCHEM_OPENEYE_CAN_SMILES>
CC1=CC(=O)OC2=C1C(=C(C=C2)C(=O)C)O

>  <PUBCHEM_OPENEYE_ISO_SMILES>
CC1=CC(=O)OC2=C1C(=C(C=C2)C(=O)C)O

>  <PUBCHEM_CACTVS_TPSA>
63.6

>  <PUBCHEM_MONOISOTOPIC_WEIGHT>
218.058

>  <PUBCHEM_TOTAL_CHARGE>
0

>  <PUBCHEM_HEAVY_ATOM_COUNT>
16

>  <PUBCHEM_ATOM_DEF_STEREO_COUNT>
0

>  <PUBCHEM_ATOM_UDEF_STEREO_COUNT>
0

>  <PUBCHEM_BOND_DEF_STEREO_COUNT>
0

>  <PUBCHEM_BOND_UDEF_STEREO_COUNT>
0

>  <PUBCHEM_ISOTOPIC_ATOM_COUNT>
0

>  <PUBCHEM_COMPONENT_COUNT>
1

>  <PUBCHEM_CACTVS_TAUTO_COUNT>
31

>  <PUBCHEM_COORDINATE_TYPE>
1
5
255

>  <PUBCHEM_BONDANNOTATIONS>
1  15  8
1  6  8
10  11  8
12  15  8
5  6  8
5  7  8
5  8  8
6  10  8
7  12  8
8  9  8
9  11  8

$$$$
