11380859
 OpenBabel06101807152D

 33 34  0  0  0  0  0  0  0  0999 V2000
    7.2566    2.0646    0.0000 S   0  0  0  0  0  0  0  0  0  0  0  0
    5.6103    2.6027    0.0000 S   0  0  0  0  0  0  0  0  0  0  0  0
    4.9889   -2.8089    0.0000 O   0  0  0  0  0  0  0  0  0  0  0  0
    6.2619   -1.0536    0.0000 O   0  0  0  0  0  0  0  0  0  0  0  0
    4.6783   -1.8584    0.0000 N   0  0  0  0  0  0  0  0  0  0  0  0
    5.9674    0.9078    0.0000 N   0  0  0  0  0  0  0  0  0  0  0  0
    3.7320   -0.5536    0.0000 C   0  0  0  0  0  0  0  0  0  0  0  0
    3.7320   -1.5536    0.0000 C   0  0  0  0  0  0  0  0  0  0  0  0
    4.6783   -0.2489    0.0000 C   0  0  0  0  0  0  0  0  0  0  0  0
    5.2619   -1.0536    0.0000 C   0  0  0  0  0  0  0  0  0  0  0  0
    2.8660   -0.0536    0.0000 C   0  0  0  0  0  0  0  0  0  0  0  0
    2.8660   -2.0536    0.0000 C   0  0  0  0  0  0  0  0  0  0  0  0
    2.0000   -0.5536    0.0000 C   0  0  0  0  0  0  0  0  0  0  0  0
    2.0000   -1.5536    0.0000 C   0  0  0  0  0  0  0  0  0  0  0  0
    4.9889    0.7016    0.0000 C   0  0  0  0  0  0  0  0  0  0  0  0
    4.3211   -3.5532    0.0000 C   0  0  0  0  0  0  0  0  0  0  0  0
    6.2781    1.8584    0.0000 C   0  0  0  0  0  0  0  0  0  0  0  0
    5.9209    3.5532    0.0000 C   0  0  0  0  0  0  0  0  0  0  0  0
    7.5673    3.0151    0.0000 C   0  0  0  0  0  0  0  0  0  0  0  0
    2.8660    0.5664    0.0000 H   0  0  0  0  0  0  0  0  0  0  0  0
    2.8660   -2.6736    0.0000 H   0  0  0  0  0  0  0  0  0  0  0  0
    1.4631   -0.2436    0.0000 H   0  0  0  0  0  0  0  0  0  0  0  0
    1.4631   -1.8636    0.0000 H   0  0  0  0  0  0  0  0  0  0  0  0
    4.5749    1.1631    0.0000 H   0  0  0  0  0  0  0  0  0  0  0  0
    3.8596   -3.1391    0.0000 H   0  0  0  0  0  0  0  0  0  0  0  0
    3.9070   -4.0146    0.0000 H   0  0  0  0  0  0  0  0  0  0  0  0
    4.7826   -3.9672    0.0000 H   0  0  0  0  0  0  0  0  0  0  0  0
    8.1566    2.8225    0.0000 H   0  0  0  0  0  0  0  0  0  0  0  0
    7.7599    3.6044    0.0000 H   0  0  0  0  0  0  0  0  0  0  0  0
    6.9780    3.2077    0.0000 H   0  0  0  0  0  0  0  0  0  0  0  0
    6.5102    3.3606    0.0000 H   0  0  0  0  0  0  0  0  0  0  0  0
    6.1135    4.1425    0.0000 H   0  0  0  0  0  0  0  0  0  0  0  0
    5.3316    3.7458    0.0000 H   0  0  0  0  0  0  0  0  0  0  0  0
  1 17  1  0  0  0  0
  1 19  1  0  0  0  0
  2 17  1  0  0  0  0
  2 18  1  0  0  0  0
  3  5  1  0  0  0  0
  3 16  1  0  0  0  0
  4 10  2  0  0  0  0
  5  8  1  0  0  0  0
  5 10  1  0  0  0  0
  6 15  1  0  0  0  0
  6 17  2  0  0  0  0
  7  8  1  0  0  0  0
  7  9  1  0  0  0  0
  7 11  2  0  0  0  0
  8 12  2  0  0  0  0
  9 10  1  0  0  0  0
  9 15  2  0  0  0  0
 11 13  1  0  0  0  0
 11 20  1  0  0  0  0
 12 14  1  0  0  0  0
 12 21  1  0  0  0  0
 13 14  2  0  0  0  0
 13 22  1  0  0  0  0
 14 23  1  0  0  0  0
 15 24  1  0  0  0  0
 16 25  1  0  0  0  0
 16 26  1  0  0  0  0
 16 27  1  0  0  0  0
 18 31  1  0  0  0  0
 18 32  1  0  0  0  0
 18 33  1  0  0  0  0
 19 28  1  0  0  0  0
 19 29  1  0  0  0  0
 19 30  1  0  0  0  0
M  END
>  <PUBCHEM_COMPOUND_CID>
11380859

>  <PUBCHEM_COMPOUND_CANONICALIZED>
1

>  <PUBCHEM_CACTVS_COMPLEXITY>
403

>  <PUBCHEM_CACTVS_HBOND_ACCEPTOR>
5

>  <PUBCHEM_CACTVS_HBOND_DONOR>
0

>  <PUBCHEM_CACTVS_ROTATABLE_BOND>
4

>  <PUBCHEM_CACTVS_SUBSKEYS>
AAADccBzMABgAAAAAAAAAAAAAAAAAWAAAAAwAAAAAAAAAFgBAAAAHgQEAAAADAjBmAaywIIQAAioAiVWVACCEQAhAgAoiAEAZMgIIDLAlZGEIAhghADIyMcciICOAAAAAAACAAAAAAAAAAQAAAAAAAAAAA==

>  <PUBCHEM_IUPAC_OPENEYE_NAME>
(3Z)-3-[[bis(methylsulfanyl)methyleneamino]methylene]-1-methoxy-indolin-2-one

>  <PUBCHEM_IUPAC_CAS_NAME>
(3Z)-3-[[bis(methylthio)methylideneamino]methylidene]-1-methoxy-2-indolone

>  <PUBCHEM_IUPAC_NAME>
(3Z)-3-[[bis(methylsulfanyl)methylideneamino]methylidene]-1-methoxyindol-2-one

>  <PUBCHEM_IUPAC_SYSTEMATIC_NAME>
(3Z)-3-[[bis(methylsulfanyl)methylideneamino]methylidene]-1-methoxy-indol-2-one

>  <PUBCHEM_IUPAC_TRADITIONAL_NAME>
(3Z)-3-[[bis(methylthio)methyleneamino]methylene]-1-methoxy-oxindole

>  <PUBCHEM_IUPAC_INCHI>
InChI=1S/C13H14N2O2S2/c1-17-15-11-7-5-4-6-9(11)10(12(15)16)8-14-13(18-2)19-3/h4-8H,1-3H3/b10-8-

>  <PUBCHEM_IUPAC_INCHIKEY>
JJQPWCPYNJNWID-NTMALXAHSA-N

>  <PUBCHEM_XLOGP3_AA>
2.8

>  <PUBCHEM_EXACT_MASS>
294.05

>  <PUBCHEM_MOLECULAR_FORMULA>
C13H14N2O2S2

>  <PUBCHEM_MOLECULAR_WEIGHT>
294.387

>  <PUBCHEM_OPENEYE_CAN_SMILES>
CON1C2=CC=CC=C2C(=CN=C(SC)SC)C1=O

>  <PUBCHEM_OPENEYE_ISO_SMILES>
CON1C2=CC=CC=C2/C(=C/N=C(SC)SC)/C1=O

>  <PUBCHEM_CACTVS_TPSA>
92.5

>  <PUBCHEM_MONOISOTOPIC_WEIGHT>
294.05

>  <PUBCHEM_TOTAL_CHARGE>
0

>  <PUBCHEM_HEAVY_ATOM_COUNT>
19

>  <PUBCHEM_ATOM_DEF_STEREO_COUNT>
0

>  <PUBCHEM_ATOM_UDEF_STEREO_COUNT>
0

>  <PUBCHEM_BOND_DEF_STEREO_COUNT>
1

>  <PUBCHEM_BOND_UDEF_STEREO_COUNT>
0

>  <PUBCHEM_ISOTOPIC_ATOM_COUNT>
0

>  <PUBCHEM_COMPONENT_COUNT>
1

>  <PUBCHEM_CACTVS_TAUTO_COUNT>
1

>  <PUBCHEM_COORDINATE_TYPE>
1
5
255

>  <PUBCHEM_BONDANNOTATIONS>
11  13  8
12  14  8
13  14  8
7  11  8
7  8  8
8  12  8

$$$$
