11427657
 OpenBabel06101807152D

 41 44  0  0  0  0  0  0  0  0999 V2000
    5.5440    1.2510    0.0000 O   0  0  0  0  0  0  0  0  0  0  0  0
    4.6501   -1.2143    0.0000 O   0  0  0  0  0  0  0  0  0  0  0  0
    3.7841    4.2857    0.0000 O   0  0  0  0  0  0  0  0  0  0  0  0
    5.5161    0.2857    0.0000 O   0  0  0  0  0  0  0  0  0  0  0  0
    2.9059   -4.2836    0.0000 O   0  0  0  0  0  0  0  0  0  0  0  0
    6.4501    1.7648    0.0000 C   0  0  0  0  0  0  0  0  0  0  0  0
    4.6501    1.7857    0.0000 C   0  0  0  0  0  0  0  0  0  0  0  0
    4.6501    2.7857    0.0000 C   0  0  0  0  0  0  0  0  0  0  0  0
    6.4501    2.8065    0.0000 C   0  0  0  0  0  0  0  0  0  0  0  0
    3.7841    1.2857    0.0000 C   0  0  0  0  0  0  0  0  0  0  0  0
    7.4501    1.7610    0.0000 C   0  0  0  0  0  0  0  0  0  0  0  0
    6.9468    0.8969    0.0000 C   0  0  0  0  0  0  0  0  0  0  0  0
    5.5440    3.3203    0.0000 C   0  0  0  0  0  0  0  0  0  0  0  0
    3.7841    0.2857    0.0000 C   0  0  0  0  0  0  0  0  0  0  0  0
    3.7841    3.2857    0.0000 C   0  0  0  0  0  0  0  0  0  0  0  0
    2.9180    1.7857    0.0000 C   0  0  0  0  0  0  0  0  0  0  0  0
    2.9180    2.7857    0.0000 C   0  0  0  0  0  0  0  0  0  0  0  0
    2.9180   -0.2143    0.0000 C   0  0  0  0  0  0  0  0  0  0  0  0
    2.9180   -1.2143    0.0000 C   0  0  0  0  0  0  0  0  0  0  0  0
    4.6501   -0.2143    0.0000 C   0  0  0  0  0  0  0  0  0  0  0  0
    3.7841   -1.7143    0.0000 C   0  0  0  0  0  0  0  0  0  0  0  0
    2.0080   -1.7212    0.0000 C   0  0  0  0  0  0  0  0  0  0  0  0
    3.8001   -2.7558    0.0000 C   0  0  0  0  0  0  0  0  0  0  0  0
    2.0000   -2.7628    0.0000 C   0  0  0  0  0  0  0  0  0  0  0  0
    2.9021   -3.2836    0.0000 C   0  0  0  0  0  0  0  0  0  0  0  0
    6.9858    3.1185    0.0000 H   0  0  0  0  0  0  0  0  0  0  0  0
    7.4477    1.1410    0.0000 H   0  0  0  0  0  0  0  0  0  0  0  0
    8.0701    1.7586    0.0000 H   0  0  0  0  0  0  0  0  0  0  0  0
    6.4086    0.5890    0.0000 H   0  0  0  0  0  0  0  0  0  0  0  0
    7.2547    0.3588    0.0000 H   0  0  0  0  0  0  0  0  0  0  0  0
    7.4849    1.2048    0.0000 H   0  0  0  0  0  0  0  0  0  0  0  0
    7.4525    2.3810    0.0000 H   0  0  0  0  0  0  0  0  0  0  0  0
    5.5368    3.9403    0.0000 H   0  0  0  0  0  0  0  0  0  0  0  0
    2.3811    1.4757    0.0000 H   0  0  0  0  0  0  0  0  0  0  0  0
    2.3811    3.0957    0.0000 H   0  0  0  0  0  0  0  0  0  0  0  0
    2.3811    0.0957    0.0000 H   0  0  0  0  0  0  0  0  0  0  0  0
    1.4747   -1.4050    0.0000 H   0  0  0  0  0  0  0  0  0  0  0  0
    4.3406   -3.0596    0.0000 H   0  0  0  0  0  0  0  0  0  0  0  0
    3.2471    4.5957    0.0000 H   0  0  0  0  0  0  0  0  0  0  0  0
    1.4619   -3.0707    0.0000 H   0  0  0  0  0  0  0  0  0  0  0  0
    2.3702   -4.5957    0.0000 H   0  0  0  0  0  0  0  0  0  0  0  0
  1  6  1  0  0  0  0
  1  7  1  0  0  0  0
  2 20  1  0  0  0  0
  2 21  1  0  0  0  0
  3 15  1  0  0  0  0
  3 39  1  0  0  0  0
  4 20  2  0  0  0  0
  5 25  1  0  0  0  0
  5 41  1  0  0  0  0
  6  9  1  0  0  0  0
  6 11  1  0  0  0  0
  6 12  1  0  0  0  0
  7  8  1  0  0  0  0
  7 10  2  0  0  0  0
  8 13  1  0  0  0  0
  8 15  2  0  0  0  0
  9 13  2  0  0  0  0
  9 26  1  0  0  0  0
 10 14  1  0  0  0  0
 10 16  1  0  0  0  0
 11 27  1  0  0  0  0
 11 28  1  0  0  0  0
 11 32  1  0  0  0  0
 12 29  1  0  0  0  0
 12 30  1  0  0  0  0
 12 31  1  0  0  0  0
 13 33  1  0  0  0  0
 14 18  2  0  0  0  0
 14 20  1  0  0  0  0
 15 17  1  0  0  0  0
 16 17  2  0  0  0  0
 16 34  1  0  0  0  0
 17 35  1  0  0  0  0
 18 19  1  0  0  0  0
 18 36  1  0  0  0  0
 19 21  2  0  0  0  0
 19 22  1  0  0  0  0
 21 23  1  0  0  0  0
 22 24  2  0  0  0  0
 22 37  1  0  0  0  0
 23 25  2  0  0  0  0
 23 38  1  0  0  0  0
 24 25  1  0  0  0  0
 24 40  1  0  0  0  0
M  END
>  <PUBCHEM_COMPOUND_CID>
11427657

>  <PUBCHEM_COMPOUND_CANONICALIZED>
1

>  <PUBCHEM_CACTVS_COMPLEXITY>
607

>  <PUBCHEM_CACTVS_HBOND_ACCEPTOR>
5

>  <PUBCHEM_CACTVS_HBOND_DONOR>
2

>  <PUBCHEM_CACTVS_ROTATABLE_BOND>
1

>  <PUBCHEM_CACTVS_SUBSKEYS>
AAADceB4OAAAAAAAAAAAAAAAAAAAAAAAAAAwYIEAAAAAAACBQAAAGgAACAAADESAmAAyDoAABgCIAiDSCAACCAAgIAAIiAEGCMgMJzKGNRqCeiClwBUIuYfK6PyOIAACCAAIAABAAAQQABAAAAAAAAAAAA==

>  <PUBCHEM_IUPAC_OPENEYE_NAME>
7-hydroxy-3-(5-hydroxy-2,2-dimethyl-chromen-8-yl)chromen-2-one

>  <PUBCHEM_IUPAC_CAS_NAME>
7-hydroxy-3-(5-hydroxy-2,2-dimethyl-1-benzopyran-8-yl)-1-benzopyran-2-one

>  <PUBCHEM_IUPAC_NAME>
7-hydroxy-3-(5-hydroxy-2,2-dimethylchromen-8-yl)chromen-2-one

>  <PUBCHEM_IUPAC_SYSTEMATIC_NAME>
3-(2,2-dimethyl-5-oxidanyl-chromen-8-yl)-7-oxidanyl-chromen-2-one

>  <PUBCHEM_IUPAC_TRADITIONAL_NAME>
7-hydroxy-3-(5-hydroxy-2,2-dimethyl-chromen-8-yl)coumarin

>  <PUBCHEM_IUPAC_INCHI>
InChI=1S/C20H16O5/c1-20(2)8-7-14-16(22)6-5-13(18(14)25-20)15-9-11-3-4-12(21)10-17(11)24-19(15)23/h3-10,21-22H,1-2H3

>  <PUBCHEM_IUPAC_INCHIKEY>
QOWFWSZIEKUOSQ-UHFFFAOYSA-N

>  <PUBCHEM_XLOGP3_AA>
3.8

>  <PUBCHEM_EXACT_MASS>
336.1

>  <PUBCHEM_MOLECULAR_FORMULA>
C20H16O5

>  <PUBCHEM_MOLECULAR_WEIGHT>
336.343

>  <PUBCHEM_OPENEYE_CAN_SMILES>
CC1(C=CC2=C(C=CC(=C2O1)C3=CC4=C(C=C(C=C4)O)OC3=O)O)C

>  <PUBCHEM_OPENEYE_ISO_SMILES>
CC1(C=CC2=C(C=CC(=C2O1)C3=CC4=C(C=C(C=C4)O)OC3=O)O)C

>  <PUBCHEM_CACTVS_TPSA>
76

>  <PUBCHEM_MONOISOTOPIC_WEIGHT>
336.1

>  <PUBCHEM_TOTAL_CHARGE>
0

>  <PUBCHEM_HEAVY_ATOM_COUNT>
25

>  <PUBCHEM_ATOM_DEF_STEREO_COUNT>
0

>  <PUBCHEM_ATOM_UDEF_STEREO_COUNT>
0

>  <PUBCHEM_BOND_DEF_STEREO_COUNT>
0

>  <PUBCHEM_BOND_UDEF_STEREO_COUNT>
0

>  <PUBCHEM_ISOTOPIC_ATOM_COUNT>
0

>  <PUBCHEM_COMPONENT_COUNT>
1

>  <PUBCHEM_CACTVS_TAUTO_COUNT>
13

>  <PUBCHEM_COORDINATE_TYPE>
1
5
255

>  <PUBCHEM_BONDANNOTATIONS>
10  16  8
14  18  8
14  20  8
15  17  8
16  17  8
18  19  8
19  21  8
19  22  8
2  20  8
2  21  8
21  23  8
22  24  8
23  25  8
24  25  8
7  10  8
7  8  8
8  15  8

$$$$
