11469098
 OpenBabel06101807152D

 17 17  0  0  1  0  0  0  0  0999 V2000
    4.7208   -1.4571    0.0000 O   0  0  0  0  0  0  0  0  0  0  0  0
    4.8086    0.8907    0.0000 O   0  0  0  0  0  0  0  0  0  0  0  0
    2.4608   -0.1971    0.0000 O   0  0  0  0  0  0  0  0  0  0  0  0
    5.9809   -0.1971    0.0000 O   0  0  0  0  0  0  0  0  0  0  0  0
    4.2208    0.0817    0.0000 C   0  0  3  0  0  0  0  0  0  0  0  0
    3.4118   -0.5061    0.0000 C   0  0  3  0  0  0  0  0  0  0  0  0
    3.7208   -1.4571    0.0000 C   0  0  0  0  0  0  0  0  0  0  0  0
    5.0298   -0.5061    0.0000 C   0  0  0  0  0  0  0  0  0  0  0  0
    3.6330    0.8907    0.0000 C   0  0  0  0  0  0  0  0  0  0  0  0
    2.8108   -1.1071    0.0000 H   0  0  0  0  0  0  0  0  0  0  0  0
    3.1144   -1.5860    0.0000 H   0  0  0  0  0  0  0  0  0  0  0  0
    3.7856   -2.0737    0.0000 H   0  0  0  0  0  0  0  0  0  0  0  0
    4.1346    1.2552    0.0000 H   0  0  0  0  0  0  0  0  0  0  0  0
    3.2686    1.3923    0.0000 H   0  0  0  0  0  0  0  0  0  0  0  0
    3.1314    0.5263    0.0000 H   0  0  0  0  0  0  0  0  0  0  0  0
    4.5564    1.4571    0.0000 H   0  0  0  0  0  0  0  0  0  0  0  0
    2.0000   -0.6119    0.0000 H   0  0  0  0  0  0  0  0  0  0  0  0
  1  7  1  0  0  0  0
  1  8  1  0  0  0  0
  2  5  1  0  0  0  0
  2 16  1  0  0  0  0
  3  6  1  0  0  0  0
  3 17  1  0  0  0  0
  4  8  2  0  0  0  0
  5  6  1  0  0  0  0
  5  8  1  0  0  0  0
  5  9  1  0  0  0  0
  6  7  1  0  0  0  0
  6 10  1  0  0  0  0
  7 11  1  0  0  0  0
  7 12  1  0  0  0  0
  9 13  1  0  0  0  0
  9 14  1  0  0  0  0
  9 15  1  0  0  0  0
M  END
>  <PUBCHEM_COMPOUND_CID>
11469098

>  <PUBCHEM_COMPOUND_CANONICALIZED>
1

>  <PUBCHEM_CACTVS_COMPLEXITY>
144

>  <PUBCHEM_CACTVS_HBOND_ACCEPTOR>
4

>  <PUBCHEM_CACTVS_HBOND_DONOR>
2

>  <PUBCHEM_CACTVS_ROTATABLE_BOND>
0

>  <PUBCHEM_CACTVS_SUBSKEYS>
AAADccBgOAAAAAAAAAAAAAAAAAAAASAAAAAAAAAAAAAAAAAAAAAAGgAACAAADFSggAICCAAABgAIAACQCAIAAAAAAAAAAAFAAAABEBQAAAACQAAFIAADAAACAAAIAAAAAAAAAAAAAAAAAAAAAAAAAAAAAA==

>  <PUBCHEM_IUPAC_OPENEYE_NAME>
3,4-dihydroxy-3-methyl-tetrahydrofuran-2-one

>  <PUBCHEM_IUPAC_CAS_NAME>
3,4-dihydroxy-3-methyl-2-oxolanone

>  <PUBCHEM_IUPAC_NAME>
3,4-dihydroxy-3-methyloxolan-2-one

>  <PUBCHEM_IUPAC_SYSTEMATIC_NAME>
3-methyl-3,4-bis(oxidanyl)oxolan-2-one

>  <PUBCHEM_IUPAC_TRADITIONAL_NAME>
3,4-dihydroxy-3-methyl-tetrahydrofuran-2-one

>  <PUBCHEM_IUPAC_INCHI>
InChI=1S/C5H8O4/c1-5(8)3(6)2-9-4(5)7/h3,6,8H,2H2,1H3

>  <PUBCHEM_IUPAC_INCHIKEY>
OHTGZAWPVDWARE-UHFFFAOYSA-N

>  <PUBCHEM_XLOGP3_AA>
-1.2

>  <PUBCHEM_EXACT_MASS>
132.042

>  <PUBCHEM_MOLECULAR_FORMULA>
C5H8O4

>  <PUBCHEM_MOLECULAR_WEIGHT>
132.115

>  <PUBCHEM_OPENEYE_CAN_SMILES>
CC1(C(COC1=O)O)O

>  <PUBCHEM_OPENEYE_ISO_SMILES>
CC1(C(COC1=O)O)O

>  <PUBCHEM_CACTVS_TPSA>
66.8

>  <PUBCHEM_MONOISOTOPIC_WEIGHT>
132.042

>  <PUBCHEM_TOTAL_CHARGE>
0

>  <PUBCHEM_HEAVY_ATOM_COUNT>
9

>  <PUBCHEM_ATOM_DEF_STEREO_COUNT>
0

>  <PUBCHEM_ATOM_UDEF_STEREO_COUNT>
2

>  <PUBCHEM_BOND_DEF_STEREO_COUNT>
0

>  <PUBCHEM_BOND_UDEF_STEREO_COUNT>
0

>  <PUBCHEM_ISOTOPIC_ATOM_COUNT>
0

>  <PUBCHEM_COMPONENT_COUNT>
1

>  <PUBCHEM_CACTVS_TAUTO_COUNT>
1

>  <PUBCHEM_COORDINATE_TYPE>
1
5
255

>  <PUBCHEM_BONDANNOTATIONS>
5  9  3
6  10  3

$$$$
