11509473
 OpenBabel06101807152D

 53 55  0  0  0  0  0  0  0  0999 V2000
    4.6660   -1.0000    0.0000 O   0  0  0  0  0  0  0  0  0  0  0  0
    6.4144    2.0346    0.0000 O   0  0  0  0  0  0  0  0  0  0  0  0
    8.1962   -1.0241    0.0000 O   0  0  0  0  0  0  0  0  0  0  0  0
    4.6660    2.0000    0.0000 O   0  0  0  0  0  0  0  0  0  0  0  0
    2.9176    2.0346    0.0000 O   0  0  0  0  0  0  0  0  0  0  0  0
    2.9176   -2.0346    0.0000 O   0  0  0  0  0  0  0  0  0  0  0  0
    7.3321    0.5208    0.0000 C   0  0  0  0  0  0  0  0  0  0  0  0
    5.5321    0.5000    0.0000 C   0  0  0  0  0  0  0  0  0  0  0  0
    8.1962    1.0241    0.0000 C   0  0  0  0  0  0  0  0  0  0  0  0
    6.4260    1.0347    0.0000 C   0  0  0  0  0  0  0  0  0  0  0  0
    5.5321   -0.5000    0.0000 C   0  0  0  0  0  0  0  0  0  0  0  0
    9.9282    1.0308    0.0000 C   0  0  0  0  0  0  0  0  0  0  0  0
    7.3321   -0.5208    0.0000 C   0  0  0  0  0  0  0  0  0  0  0  0
   10.7961    0.5342    0.0000 C   0  0  0  0  0  0  0  0  0  0  0  0
    3.8000    0.5000    0.0000 C   0  0  0  0  0  0  0  0  0  0  0  0
    4.6660    1.0000    0.0000 C   0  0  0  0  0  0  0  0  0  0  0  0
    9.0641    0.5275    0.0000 C   0  0  0  0  0  0  0  0  0  0  0  0
    6.4260   -1.0347    0.0000 C   0  0  0  0  0  0  0  0  0  0  0  0
    3.8000   -0.5000    0.0000 C   0  0  0  0  0  0  0  0  0  0  0  0
   11.6602    1.0375    0.0000 C   0  0  0  0  0  0  0  0  0  0  0  0
    2.9061    1.0347    0.0000 C   0  0  0  0  0  0  0  0  0  0  0  0
    9.9243    2.0308    0.0000 C   0  0  0  0  0  0  0  0  0  0  0  0
    2.9061   -1.0347    0.0000 C   0  0  0  0  0  0  0  0  0  0  0  0
   12.5282    0.5408    0.0000 C   0  0  0  0  0  0  0  0  0  0  0  0
    2.0000    0.5208    0.0000 C   0  0  0  0  0  0  0  0  0  0  0  0
    2.0000   -0.5208    0.0000 C   0  0  0  0  0  0  0  0  0  0  0  0
   13.3923    1.0442    0.0000 C   0  0  0  0  0  0  0  0  0  0  0  0
   14.2602    0.5475    0.0000 C   0  0  0  0  0  0  0  0  0  0  0  0
   13.3884    2.0442    0.0000 C   0  0  0  0  0  0  0  0  0  0  0  0
    8.5929    1.5006    0.0000 H   0  0  0  0  0  0  0  0  0  0  0  0
    7.7958    1.4976    0.0000 H   0  0  0  0  0  0  0  0  0  0  0  0
   10.3995    0.0577    0.0000 H   0  0  0  0  0  0  0  0  0  0  0  0
   11.1965    0.0608    0.0000 H   0  0  0  0  0  0  0  0  0  0  0  0
    9.0665   -0.0925    0.0000 H   0  0  0  0  0  0  0  0  0  0  0  0
    6.4188   -1.6546    0.0000 H   0  0  0  0  0  0  0  0  0  0  0  0
   12.0569    1.5140    0.0000 H   0  0  0  0  0  0  0  0  0  0  0  0
   11.2599    1.5109    0.0000 H   0  0  0  0  0  0  0  0  0  0  0  0
   10.5443    2.0332    0.0000 H   0  0  0  0  0  0  0  0  0  0  0  0
    9.9220    2.6508    0.0000 H   0  0  0  0  0  0  0  0  0  0  0  0
    9.3044    2.0284    0.0000 H   0  0  0  0  0  0  0  0  0  0  0  0
   12.5306   -0.0792    0.0000 H   0  0  0  0  0  0  0  0  0  0  0  0
    1.4643    0.8329    0.0000 H   0  0  0  0  0  0  0  0  0  0  0  0
    1.4643   -0.8329    0.0000 H   0  0  0  0  0  0  0  0  0  0  0  0
    6.9478    2.3508    0.0000 H   0  0  0  0  0  0  0  0  0  0  0  0
    8.1938   -1.6442    0.0000 H   0  0  0  0  0  0  0  0  0  0  0  0
   13.9523    0.0094    0.0000 H   0  0  0  0  0  0  0  0  0  0  0  0
   14.0084    2.0466    0.0000 H   0  0  0  0  0  0  0  0  0  0  0  0
   13.3860    2.6642    0.0000 H   0  0  0  0  0  0  0  0  0  0  0  0
   12.7684    2.0418    0.0000 H   0  0  0  0  0  0  0  0  0  0  0  0
   14.7983    0.2396    0.0000 H   0  0  0  0  0  0  0  0  0  0  0  0
   14.5681    1.0856    0.0000 H   0  0  0  0  0  0  0  0  0  0  0  0
    2.3843    2.3508    0.0000 H   0  0  0  0  0  0  0  0  0  0  0  0
    2.3843   -2.3508    0.0000 H   0  0  0  0  0  0  0  0  0  0  0  0
  1 11  1  0  0  0  0
  1 19  1  0  0  0  0
  2 10  1  0  0  0  0
  2 44  1  0  0  0  0
  3 13  1  0  0  0  0
  3 45  1  0  0  0  0
  4 16  2  0  0  0  0
  5 21  1  0  0  0  0
  5 52  1  0  0  0  0
  6 23  1  0  0  0  0
  6 53  1  0  0  0  0
  7  9  1  0  0  0  0
  7 10  2  0  0  0  0
  7 13  1  0  0  0  0
  8 10  1  0  0  0  0
  8 11  2  0  0  0  0
  8 16  1  0  0  0  0
  9 17  1  0  0  0  0
  9 30  1  0  0  0  0
  9 31  1  0  0  0  0
 11 18  1  0  0  0  0
 12 14  1  0  0  0  0
 12 17  2  0  0  0  0
 12 22  1  0  0  0  0
 13 18  2  0  0  0  0
 14 20  1  0  0  0  0
 14 32  1  0  0  0  0
 14 33  1  0  0  0  0
 15 16  1  0  0  0  0
 15 19  1  0  0  0  0
 15 21  2  0  0  0  0
 17 34  1  0  0  0  0
 18 35  1  0  0  0  0
 19 23  2  0  0  0  0
 20 24  1  0  0  0  0
 20 36  1  0  0  0  0
 20 37  1  0  0  0  0
 21 25  1  0  0  0  0
 22 38  1  0  0  0  0
 22 39  1  0  0  0  0
 22 40  1  0  0  0  0
 23 26  1  0  0  0  0
 24 27  2  0  0  0  0
 24 41  1  0  0  0  0
 25 26  2  0  0  0  0
 25 42  1  0  0  0  0
 26 43  1  0  0  0  0
 27 28  1  0  0  0  0
 27 29  1  0  0  0  0
 28 46  1  0  0  0  0
 28 50  1  0  0  0  0
 28 51  1  0  0  0  0
 29 47  1  0  0  0  0
 29 48  1  0  0  0  0
 29 49  1  0  0  0  0
M  END
>  <PUBCHEM_COMPOUND_CID>
11509473

>  <PUBCHEM_COMPOUND_CANONICALIZED>
1

>  <PUBCHEM_CACTVS_COMPLEXITY>
652

>  <PUBCHEM_CACTVS_HBOND_ACCEPTOR>
6

>  <PUBCHEM_CACTVS_HBOND_DONOR>
4

>  <PUBCHEM_CACTVS_ROTATABLE_BOND>
5

>  <PUBCHEM_CACTVS_SUBSKEYS>
AAADceB4OAAAAAAAAAAAAAAAAAAAAAAAAAA0YIAAAAAAAACRQAAAGgAACAAADASAmAAyBoAABgCIAqBSAAACCAAkIAAIiAEGiMgNJzaGNRqCeWOl4BULuQfK7PzOIQADCAAIQABCAAYQABCAAAAAAAAAAA==

>  <PUBCHEM_IUPAC_OPENEYE_NAME>
2-[(2E)-3,7-dimethylocta-2,6-dienyl]-1,3,5,8-tetrahydroxy-xanthen-9-one

>  <PUBCHEM_IUPAC_CAS_NAME>
2-[(2E)-3,7-dimethylocta-2,6-dienyl]-1,3,5,8-tetrahydroxy-9-xanthenone

>  <PUBCHEM_IUPAC_NAME>
2-[(2E)-3,7-dimethylocta-2,6-dienyl]-1,3,5,8-tetrahydroxyxanthen-9-one

>  <PUBCHEM_IUPAC_SYSTEMATIC_NAME>
2-[(2E)-3,7-dimethylocta-2,6-dienyl]-1,3,5,8-tetrakis(oxidanyl)xanthen-9-one

>  <PUBCHEM_IUPAC_TRADITIONAL_NAME>
2-[(2E)-3,7-dimethylocta-2,6-dienyl]-1,3,5,8-tetrahydroxy-xanthone

>  <PUBCHEM_IUPAC_INCHI>
InChI=1S/C23H24O6/c1-12(2)5-4-6-13(3)7-8-14-17(26)11-18-20(21(14)27)22(28)19-15(24)9-10-16(25)23(19)29-18/h5,7,9-11,24-27H,4,6,8H2,1-3H3/b13-7+

>  <PUBCHEM_IUPAC_INCHIKEY>
TWEXJIOSYZXWGT-NTUHNPAUSA-N

>  <PUBCHEM_XLOGP3_AA>
5.9

>  <PUBCHEM_EXACT_MASS>
396.157

>  <PUBCHEM_MOLECULAR_FORMULA>
C23H24O6

>  <PUBCHEM_MOLECULAR_WEIGHT>
396.439

>  <PUBCHEM_OPENEYE_CAN_SMILES>
CC(=CCCC(=CCC1=C(C=C2C(=C1O)C(=O)C3=C(C=CC(=C3O2)O)O)O)C)C

>  <PUBCHEM_OPENEYE_ISO_SMILES>
CC(=CCC/C(=C/CC1=C(C=C2C(=C1O)C(=O)C3=C(C=CC(=C3O2)O)O)O)/C)C

>  <PUBCHEM_CACTVS_TPSA>
107

>  <PUBCHEM_MONOISOTOPIC_WEIGHT>
396.157

>  <PUBCHEM_TOTAL_CHARGE>
0

>  <PUBCHEM_HEAVY_ATOM_COUNT>
29

>  <PUBCHEM_ATOM_DEF_STEREO_COUNT>
0

>  <PUBCHEM_ATOM_UDEF_STEREO_COUNT>
0

>  <PUBCHEM_BOND_DEF_STEREO_COUNT>
1

>  <PUBCHEM_BOND_UDEF_STEREO_COUNT>
0

>  <PUBCHEM_ISOTOPIC_ATOM_COUNT>
0

>  <PUBCHEM_COMPONENT_COUNT>
1

>  <PUBCHEM_CACTVS_TAUTO_COUNT>
102

>  <PUBCHEM_COORDINATE_TYPE>
1
5
255

>  <PUBCHEM_BONDANNOTATIONS>
1  11  8
1  19  8
11  18  8
13  18  8
15  16  8
15  19  8
15  21  8
19  23  8
21  25  8
23  26  8
25  26  8
7  10  8
7  13  8
8  10  8
8  11  8
8  16  8

$$$$
