11527214
 OpenBabel06101807152D

 69 74  0  0  1  0  0  0  0  0999 V2000
    8.3362   -1.9105    0.0000 O   0  0  0  0  0  0  0  0  0  0  0  0
    7.0125    1.5986    0.0000 O   0  0  0  0  0  0  0  0  0  0  0  0
   10.0682    0.0895    0.0000 O   0  0  0  0  0  0  0  0  0  0  0  0
    6.0533    4.1387    0.0000 O   0  0  0  0  0  0  0  0  0  0  0  0
   10.6027    0.8609    0.0000 O   0  0  0  0  0  0  0  0  0  0  0  0
    6.2451    1.0678    0.0000 O   0  0  0  0  0  0  0  0  0  0  0  0
    9.7043    3.8483    0.0000 O   0  0  0  0  0  0  0  0  0  0  0  0
    4.8061   -1.9346    0.0000 O   0  0  0  0  0  0  0  0  0  0  0  0
   12.6663   -1.4105    0.0000 O   0  0  0  0  0  0  0  0  0  0  0  0
   10.9343   -4.4105    0.0000 O   0  0  0  0  0  0  0  0  0  0  0  0
   12.6663   -3.4105    0.0000 O   0  0  0  0  0  0  0  0  0  0  0  0
    3.6918    0.1545    0.0000 O   0  0  0  0  0  0  0  0  0  0  0  0
    2.4004    1.6817    0.0000 O   0  0  0  0  0  0  0  0  0  0  0  0
    8.3362    0.0895    0.0000 C   0  0  2  0  0  0  0  0  0  0  0  0
    9.2022   -0.4105    0.0000 C   0  0  1  0  0  0  0  0  0  0  0  0
    8.6782    1.0292    0.0000 C   0  0  0  0  0  0  0  0  0  0  0  0
    9.2022   -1.4105    0.0000 C   0  0  1  0  0  0  0  0  0  0  0  0
    7.4702   -0.4105    0.0000 C   0  0  0  0  0  0  0  0  0  0  0  0
    8.0354    1.7953    0.0000 C   0  0  0  0  0  0  0  0  0  0  0  0
    8.3774    2.7350    0.0000 C   0  0  0  0  0  0  0  0  0  0  0  0
    6.6931    3.3702    0.0000 C   0  0  1  0  0  0  0  0  0  0  0  0
    6.3368    2.3914    0.0000 C   0  0  1  0  0  0  0  0  0  0  0  0
    7.7203    3.5431    0.0000 C   0  0  0  0  0  0  0  0  0  0  0  0
    7.4702   -1.4105    0.0000 C   0  0  0  0  0  0  0  0  0  0  0  0
    9.6630    1.2029    0.0000 C   0  0  0  0  0  0  0  0  0  0  0  0
   10.0682   -1.9105    0.0000 C   0  0  0  0  0  0  0  0  0  0  0  0
    6.5762    0.1242    0.0000 C   0  0  0  0  0  0  0  0  0  0  0  0
    9.3622    2.9086    0.0000 C   0  0  0  0  0  0  0  0  0  0  0  0
   10.0050    2.1426    0.0000 C   0  0  0  0  0  0  0  0  0  0  0  0
    5.3527    2.2139    0.0000 C   0  0  0  0  0  0  0  0  0  0  0  0
    6.5762   -1.9451    0.0000 C   0  0  0  0  0  0  0  0  0  0  0  0
    5.6702   -0.3897    0.0000 C   0  0  0  0  0  0  0  0  0  0  0  0
   10.0682   -2.9105    0.0000 C   0  0  0  0  0  0  0  0  0  0  0  0
   10.9343   -1.4105    0.0000 C   0  0  0  0  0  0  0  0  0  0  0  0
    5.6702   -1.4313    0.0000 C   0  0  0  0  0  0  0  0  0  0  0  0
    5.0144    1.2730    0.0000 C   0  0  0  0  0  0  0  0  0  0  0  0
    4.7070    2.9775    0.0000 C   0  0  0  0  0  0  0  0  0  0  0  0
   11.8003   -1.9105    0.0000 C   0  0  0  0  0  0  0  0  0  0  0  0
   10.9343   -3.4105    0.0000 C   0  0  0  0  0  0  0  0  0  0  0  0
   11.8003   -2.9105    0.0000 C   0  0  0  0  0  0  0  0  0  0  0  0
    4.0302    1.0956    0.0000 C   0  0  0  0  0  0  0  0  0  0  0  0
    3.7228    2.8000    0.0000 C   0  0  0  0  0  0  0  0  0  0  0  0
    3.3845    1.8591    0.0000 C   0  0  0  0  0  0  0  0  0  0  0  0
    9.1349    0.3803    0.0000 H   0  0  0  0  0  0  0  0  0  0  0  0
    9.7392   -0.7205    0.0000 H   0  0  0  0  0  0  0  0  0  0  0  0
    9.2022   -2.0305    0.0000 H   0  0  0  0  0  0  0  0  0  0  0  0
    6.0823    3.2637    0.0000 H   0  0  0  0  0  0  0  0  0  0  0  0
    6.1282    1.8075    0.0000 H   0  0  0  0  0  0  0  0  0  0  0  0
    8.2612    3.8462    0.0000 H   0  0  0  0  0  0  0  0  0  0  0  0
    7.5142    4.1279    0.0000 H   0  0  0  0  0  0  0  0  0  0  0  0
   10.6156    2.2502    0.0000 H   0  0  0  0  0  0  0  0  0  0  0  0
   10.6052   -0.2205    0.0000 H   0  0  0  0  0  0  0  0  0  0  0  0
    6.5834   -2.5651    0.0000 H   0  0  0  0  0  0  0  0  0  0  0  0
    5.1344   -0.0776    0.0000 H   0  0  0  0  0  0  0  0  0  0  0  0
    9.5313   -3.2205    0.0000 H   0  0  0  0  0  0  0  0  0  0  0  0
   10.9343   -0.7905    0.0000 H   0  0  0  0  0  0  0  0  0  0  0  0
    6.2676    4.7205    0.0000 H   0  0  0  0  0  0  0  0  0  0  0  0
    5.4147    0.7996    0.0000 H   0  0  0  0  0  0  0  0  0  0  0  0
    4.9168    3.5609    0.0000 H   0  0  0  0  0  0  0  0  0  0  0  0
   11.0777    1.2594    0.0000 H   0  0  0  0  0  0  0  0  0  0  0  0
    5.6358    1.1825    0.0000 H   0  0  0  0  0  0  0  0  0  0  0  0
   10.3149    3.9560    0.0000 H   0  0  0  0  0  0  0  0  0  0  0  0
    3.3225    3.2734    0.0000 H   0  0  0  0  0  0  0  0  0  0  0  0
    4.8085   -2.5546    0.0000 H   0  0  0  0  0  0  0  0  0  0  0  0
   13.2033   -1.7205    0.0000 H   0  0  0  0  0  0  0  0  0  0  0  0
   10.3973   -4.7205    0.0000 H   0  0  0  0  0  0  0  0  0  0  0  0
   12.6663   -4.0305    0.0000 H   0  0  0  0  0  0  0  0  0  0  0  0
    3.0816    0.0445    0.0000 H   0  0  0  0  0  0  0  0  0  0  0  0
    2.0000    2.1551    0.0000 H   0  0  0  0  0  0  0  0  0  0  0  0
  1 17  1  0  0  0  0
  1 24  1  0  0  0  0
  2 19  1  0  0  0  0
  2 22  1  0  0  0  0
  3 52  1  0  0  0  0
  4 57  1  0  0  0  0
  5 25  1  0  0  0  0
  5 60  1  0  0  0  0
  6 27  1  0  0  0  0
  6 61  1  0  0  0  0
  7 28  1  0  0  0  0
  7 62  1  0  0  0  0
  8 35  1  0  0  0  0
  8 64  1  0  0  0  0
  9 38  1  0  0  0  0
  9 65  1  0  0  0  0
 10 39  1  0  0  0  0
 10 66  1  0  0  0  0
 11 40  1  0  0  0  0
 11 67  1  0  0  0  0
 12 41  1  0  0  0  0
 12 68  1  0  0  0  0
 13 43  1  0  0  0  0
 13 69  1  0  0  0  0
 14 15  1  1  0  0  0
 14 16  1  0  0  0  0
 14 18  1  0  0  0  0
 14 44  1  0  0  0  0
 15  3  1  0  0  0  0
 15 17  1  6  0  0  0
 15 45  1  0  0  0  0
 16 19  1  0  0  0  0
 16 25  2  0  0  0  0
 17 26  1  0  0  0  0
 17 46  1  6  0  0  0
 18 24  1  0  0  0  0
 18 27  2  0  0  0  0
 19 20  2  0  0  0  0
 20 23  1  0  0  0  0
 20 28  1  0  0  0  0
 21  4  1  0  0  0  0
 21 22  1  6  0  0  0
 21 23  1  0  0  0  0
 21 47  1  0  0  0  0
 22 30  1  0  0  0  0
 22 48  1  1  0  0  0
 23 49  1  0  0  0  0
 23 50  1  0  0  0  0
 24 31  2  0  0  0  0
 25 29  1  0  0  0  0
 26 33  2  0  0  0  0
 26 34  1  0  0  0  0
 27 32  1  0  0  0  0
 28 29  2  0  0  0  0
 29 51  1  0  0  0  0
 30 36  2  0  0  0  0
 30 37  1  0  0  0  0
 31 35  1  0  0  0  0
 31 53  1  0  0  0  0
 32 35  2  0  0  0  0
 32 54  1  0  0  0  0
 33 39  1  0  0  0  0
 33 55  1  0  0  0  0
 34 38  2  0  0  0  0
 34 56  1  0  0  0  0
 36 41  1  0  0  0  0
 36 58  1  0  0  0  0
 37 42  2  0  0  0  0
 37 59  1  0  0  0  0
 38 40  1  0  0  0  0
 39 40  2  0  0  0  0
 41 43  2  0  0  0  0
 42 43  1  0  0  0  0
 42 63  1  0  0  0  0
M  END
>  <PUBCHEM_COMPOUND_CID>
11527214

>  <PUBCHEM_COMPOUND_CANONICALIZED>
1

>  <PUBCHEM_CACTVS_COMPLEXITY>
945

>  <PUBCHEM_CACTVS_HBOND_ACCEPTOR>
13

>  <PUBCHEM_CACTVS_HBOND_DONOR>
11

>  <PUBCHEM_CACTVS_ROTATABLE_BOND>
3

>  <PUBCHEM_CACTVS_SUBSKEYS>
AAADceB4PAAAAAAAAAAAAAAAAAAAAAAAAAA0aMGCAAAAAACRVAAAGgAACAAADRSgmAIwBoAABgCAAiBCAAACCAAgIAAIiAAGiIgNNyKGMRqCeCGlwBULuAfA4PwOoAADCAAIQABAAAYQABCAAAAAAAAAAA==

>  <PUBCHEM_IUPAC_OPENEYE_NAME>
(2R,3R)-2-(3,4-dihydroxyphenyl)-8-[(2R,3S,4S)-3,5,7-trihydroxy-2-(3,4,5-trihydroxyphenyl)chroman-4-yl]chromane-3,5,7-triol

>  <PUBCHEM_IUPAC_CAS_NAME>
(2R,3R)-2-(3,4-dihydroxyphenyl)-8-[(2R,3S,4S)-3,5,7-trihydroxy-2-(3,4,5-trihydroxyphenyl)-3,4-dihydro-2H-1-benzopyran-4-yl]-3,4-dihydro-2H-1-benzopyran-3,5,7-triol

>  <PUBCHEM_IUPAC_NAME>
(2R,3R)-2-(3,4-dihydroxyphenyl)-8-[(2R,3S,4S)-3,5,7-trihydroxy-2-(3,4,5-trihydroxyphenyl)-3,4-dihydro-2H-chromen-4-yl]-3,4-dihydro-2H-chromene-3,5,7-triol

>  <PUBCHEM_IUPAC_SYSTEMATIC_NAME>
(2R,3R)-2-[3,4-bis(oxidanyl)phenyl]-8-[(2R,3S,4S)-3,5,7-tris(oxidanyl)-2-[3,4,5-tris(oxidanyl)phenyl]-3,4-dihydro-2H-chromen-4-yl]-3,4-dihydro-2H-chromene-3,5,7-triol

>  <PUBCHEM_IUPAC_TRADITIONAL_NAME>
(2R,3R)-2-(3,4-dihydroxyphenyl)-8-[(2R,3S,4S)-3,5,7-trihydroxy-2-(3,4,5-trihydroxyphenyl)chroman-4-yl]chroman-3,5,7-triol

>  <PUBCHEM_IUPAC_INCHI>
InChI=1S/C30H26O13/c31-12-6-17(35)23-22(7-12)42-29(11-4-19(37)26(40)20(38)5-11)27(41)25(23)24-18(36)9-15(33)13-8-21(39)28(43-30(13)24)10-1-2-14(32)16(34)3-10/h1-7,9,21,25,27-29,31-41H,8H2/t21-,25+,27+,28-,29-/m1/s1

>  <PUBCHEM_IUPAC_INCHIKEY>
ZYDDITZPGFXQSD-QKFRQTJPSA-N

>  <PUBCHEM_XLOGP3_AA>
2

>  <PUBCHEM_EXACT_MASS>
594.137

>  <PUBCHEM_MOLECULAR_FORMULA>
C30H26O13

>  <PUBCHEM_MOLECULAR_WEIGHT>
594.525

>  <PUBCHEM_OPENEYE_CAN_SMILES>
C1C(C(OC2=C1C(=CC(=C2C3C(C(OC4=CC(=CC(=C34)O)O)C5=CC(=C(C(=C5)O)O)O)O)O)O)C6=CC(=C(C=C6)O)O)O

>  <PUBCHEM_OPENEYE_ISO_SMILES>
C1[C@H]([C@H](OC2=C1C(=CC(=C2[C@H]3[C@@H]([C@H](OC4=CC(=CC(=C34)O)O)C5=CC(=C(C(=C5)O)O)O)O)O)O)C6=CC(=C(C=C6)O)O)O

>  <PUBCHEM_CACTVS_TPSA>
241

>  <PUBCHEM_MONOISOTOPIC_WEIGHT>
594.137

>  <PUBCHEM_TOTAL_CHARGE>
0

>  <PUBCHEM_HEAVY_ATOM_COUNT>
43

>  <PUBCHEM_ATOM_DEF_STEREO_COUNT>
5

>  <PUBCHEM_ATOM_UDEF_STEREO_COUNT>
0

>  <PUBCHEM_BOND_DEF_STEREO_COUNT>
0

>  <PUBCHEM_BOND_UDEF_STEREO_COUNT>
0

>  <PUBCHEM_ISOTOPIC_ATOM_COUNT>
0

>  <PUBCHEM_COMPONENT_COUNT>
1

>  <PUBCHEM_CACTVS_TAUTO_COUNT>
994

>  <PUBCHEM_COORDINATE_TYPE>
1
5
255

>  <PUBCHEM_BONDANNOTATIONS>
14  44  6
16  19  8
16  25  8
17  26  5
18  24  8
18  27  8
19  20  8
20  28  8
22  30  6
24  31  8
25  29  8
26  33  8
26  34  8
27  32  8
28  29  8
15  3  6
30  36  8
30  37  8
31  35  8
32  35  8
33  39  8
34  38  8
36  41  8
37  42  8
38  40  8
39  40  8
21  4  6
41  43  8
42  43  8

$$$$
