11536318
 OpenBabel06101807152D

 32 34  0  0  0  0  0  0  0  0999 V2000
    5.4920   -0.9259    0.0000 O   0  0  0  0  0  0  0  0  0  0  0  0
    3.7320    2.1087    0.0000 O   0  0  0  0  0  0  0  0  0  0  0  0
    2.0000   -0.8913    0.0000 O   0  0  0  0  0  0  0  0  0  0  0  0
    5.4804    2.1433    0.0000 O   0  0  0  0  0  0  0  0  0  0  0  0
    4.5981    0.6087    0.0000 C   0  0  0  0  0  0  0  0  0  0  0  0
    4.5981   -0.3913    0.0000 C   0  0  0  0  0  0  0  0  0  0  0  0
    3.7320    1.1087    0.0000 C   0  0  0  0  0  0  0  0  0  0  0  0
    2.8660    0.6087    0.0000 C   0  0  0  0  0  0  0  0  0  0  0  0
    6.3981   -0.4121    0.0000 C   0  0  0  0  0  0  0  0  0  0  0  0
    5.4920    1.1434    0.0000 C   0  0  0  0  0  0  0  0  0  0  0  0
    3.7320   -0.8913    0.0000 C   0  0  0  0  0  0  0  0  0  0  0  0
    2.8660   -0.3913    0.0000 C   0  0  0  0  0  0  0  0  0  0  0  0
    6.3981    0.6296    0.0000 C   0  0  0  0  0  0  0  0  0  0  0  0
    7.2622   -0.9154    0.0000 C   0  0  0  0  0  0  0  0  0  0  0  0
    2.0000    1.1087    0.0000 C   0  0  0  0  0  0  0  0  0  0  0  0
    7.2583   -1.9154    0.0000 C   0  0  0  0  0  0  0  0  0  0  0  0
    8.1301   -0.4188    0.0000 C   0  0  0  0  0  0  0  0  0  0  0  0
    8.1224   -2.4187    0.0000 C   0  0  0  0  0  0  0  0  0  0  0  0
    8.9942   -0.9221    0.0000 C   0  0  0  0  0  0  0  0  0  0  0  0
    8.9904   -1.9221    0.0000 C   0  0  0  0  0  0  0  0  0  0  0  0
    3.7320   -1.5113    0.0000 H   0  0  0  0  0  0  0  0  0  0  0  0
    6.9338    0.9416    0.0000 H   0  0  0  0  0  0  0  0  0  0  0  0
    2.3100    1.6457    0.0000 H   0  0  0  0  0  0  0  0  0  0  0  0
    1.4631    1.4187    0.0000 H   0  0  0  0  0  0  0  0  0  0  0  0
    1.6900    0.5718    0.0000 H   0  0  0  0  0  0  0  0  0  0  0  0
    6.7202   -2.2233    0.0000 H   0  0  0  0  0  0  0  0  0  0  0  0
    8.1325    0.2012    0.0000 H   0  0  0  0  0  0  0  0  0  0  0  0
    3.1951    2.4187    0.0000 H   0  0  0  0  0  0  0  0  0  0  0  0
    8.1200   -3.0387    0.0000 H   0  0  0  0  0  0  0  0  0  0  0  0
    9.5323   -0.6142    0.0000 H   0  0  0  0  0  0  0  0  0  0  0  0
    9.5261   -2.2342    0.0000 H   0  0  0  0  0  0  0  0  0  0  0  0
    2.0000   -1.5113    0.0000 H   0  0  0  0  0  0  0  0  0  0  0  0
  1  6  1  0  0  0  0
  1  9  1  0  0  0  0
  2  7  1  0  0  0  0
  2 28  1  0  0  0  0
  3 12  1  0  0  0  0
  3 32  1  0  0  0  0
  4 10  2  0  0  0  0
  5  6  2  0  0  0  0
  5  7  1  0  0  0  0
  5 10  1  0  0  0  0
  6 11  1  0  0  0  0
  7  8  2  0  0  0  0
  8 12  1  0  0  0  0
  8 15  1  0  0  0  0
  9 13  2  0  0  0  0
  9 14  1  0  0  0  0
 10 13  1  0  0  0  0
 11 12  2  0  0  0  0
 11 21  1  0  0  0  0
 13 22  1  0  0  0  0
 14 16  2  0  0  0  0
 14 17  1  0  0  0  0
 15 23  1  0  0  0  0
 15 24  1  0  0  0  0
 15 25  1  0  0  0  0
 16 18  1  0  0  0  0
 16 26  1  0  0  0  0
 17 19  2  0  0  0  0
 17 27  1  0  0  0  0
 18 20  2  0  0  0  0
 18 29  1  0  0  0  0
 19 20  1  0  0  0  0
 19 30  1  0  0  0  0
 20 31  1  0  0  0  0
M  END
>  <PUBCHEM_COMPOUND_CID>
11536318

>  <PUBCHEM_COMPOUND_CANONICALIZED>
1

>  <PUBCHEM_CACTVS_COMPLEXITY>
411

>  <PUBCHEM_CACTVS_HBOND_ACCEPTOR>
4

>  <PUBCHEM_CACTVS_HBOND_DONOR>
2

>  <PUBCHEM_CACTVS_ROTATABLE_BOND>
1

>  <PUBCHEM_CACTVS_SUBSKEYS>
AAADccB4OAAAAAAAAAAAAAAAAAAAAAAAAAAwYIAAAAAAAACBQAAAGgAACAAADASAmAAyBoAABgCIAqBSAAACCAAkIAAIiAEGCMgMJzaGNRqCeWCl4BUIuQeI7OzOIAACCAAIAABAAAQQABAAAAAAAAAAAA==

>  <PUBCHEM_IUPAC_OPENEYE_NAME>
5,7-dihydroxy-6-methyl-2-phenyl-chromen-4-one

>  <PUBCHEM_IUPAC_CAS_NAME>
5,7-dihydroxy-6-methyl-2-phenyl-1-benzopyran-4-one

>  <PUBCHEM_IUPAC_NAME>
5,7-dihydroxy-6-methyl-2-phenylchromen-4-one

>  <PUBCHEM_IUPAC_SYSTEMATIC_NAME>
6-methyl-5,7-bis(oxidanyl)-2-phenyl-chromen-4-one

>  <PUBCHEM_IUPAC_TRADITIONAL_NAME>
5,7-dihydroxy-6-methyl-2-phenyl-chromone

>  <PUBCHEM_IUPAC_INCHI>
InChI=1S/C16H12O4/c1-9-11(17)7-14-15(16(9)19)12(18)8-13(20-14)10-5-3-2-4-6-10/h2-8,17,19H,1H3

>  <PUBCHEM_IUPAC_INCHIKEY>
XRJWLVUOUWIPHW-UHFFFAOYSA-N

>  <PUBCHEM_XLOGP3>
2.5

>  <PUBCHEM_EXACT_MASS>
268.074

>  <PUBCHEM_MOLECULAR_FORMULA>
C16H12O4

>  <PUBCHEM_MOLECULAR_WEIGHT>
268.268

>  <PUBCHEM_OPENEYE_CAN_SMILES>
CC1=C(C=C2C(=C1O)C(=O)C=C(O2)C3=CC=CC=C3)O

>  <PUBCHEM_OPENEYE_ISO_SMILES>
CC1=C(C=C2C(=C1O)C(=O)C=C(O2)C3=CC=CC=C3)O

>  <PUBCHEM_CACTVS_TPSA>
66.8

>  <PUBCHEM_MONOISOTOPIC_WEIGHT>
268.074

>  <PUBCHEM_TOTAL_CHARGE>
0

>  <PUBCHEM_HEAVY_ATOM_COUNT>
20

>  <PUBCHEM_ATOM_DEF_STEREO_COUNT>
0

>  <PUBCHEM_ATOM_UDEF_STEREO_COUNT>
0

>  <PUBCHEM_BOND_DEF_STEREO_COUNT>
0

>  <PUBCHEM_BOND_UDEF_STEREO_COUNT>
0

>  <PUBCHEM_ISOTOPIC_ATOM_COUNT>
0

>  <PUBCHEM_COMPONENT_COUNT>
1

>  <PUBCHEM_CACTVS_TAUTO_COUNT>
12

>  <PUBCHEM_COORDINATE_TYPE>
1
5
255

>  <PUBCHEM_BONDANNOTATIONS>
1  6  8
1  9  8
10  13  8
11  12  8
14  16  8
14  17  8
16  18  8
17  19  8
18  20  8
19  20  8
5  10  8
5  6  8
5  7  8
6  11  8
7  8  8
8  12  8
9  13  8

$$$$
