11609116
 OpenBabel06101807152D

 38 40  0  0  0  0  0  0  0  0999 V2000
    6.5731   -0.6644    0.0000 O   0  0  0  0  0  0  0  0  0  0  0  0
    4.2479    2.0442    0.0000 O   0  0  0  0  0  0  0  0  0  0  0  0
    2.7357    0.6626    0.0000 O   0  0  0  0  0  0  0  0  0  0  0  0
    5.1533   -1.9230    0.0000 O   0  0  0  0  0  0  0  0  0  0  0  0
    8.8983    2.0441    0.0000 O   0  0  0  0  0  0  0  0  0  0  0  0
    5.4496    0.7444    0.0000 C   0  0  0  0  0  0  0  0  0  0  0  0
    5.6721   -0.2306    0.0000 C   0  0  0  0  0  0  0  0  0  0  0  0
    3.9219   -0.6514    0.0000 C   0  0  0  0  0  0  0  0  0  0  0  0
    4.4591    1.0667    0.0000 C   0  0  0  0  0  0  0  0  0  0  0  0
    4.9196   -0.9507    0.0000 C   0  0  0  0  0  0  0  0  0  0  0  0
    3.6901    0.3641    0.0000 C   0  0  0  0  0  0  0  0  0  0  0  0
    7.6966    0.7444    0.0000 C   0  0  0  0  0  0  0  0  0  0  0  0
    6.0731    1.5262    0.0000 C   0  0  0  0  0  0  0  0  0  0  0  0
    7.4741   -0.2306    0.0000 C   0  0  0  0  0  0  0  0  0  0  0  0
    7.0731    1.5262    0.0000 C   0  0  0  0  0  0  0  0  0  0  0  0
    3.1914   -1.3344    0.0000 C   0  0  0  0  0  0  0  0  0  0  0  0
    8.6871    1.0667    0.0000 C   0  0  0  0  0  0  0  0  0  0  0  0
    8.2266   -0.9508    0.0000 C   0  0  0  0  0  0  0  0  0  0  0  0
    9.4561    0.3641    0.0000 C   0  0  0  0  0  0  0  0  0  0  0  0
    9.2243   -0.6514    0.0000 C   0  0  0  0  0  0  0  0  0  0  0  0
    3.2958    2.3500    0.0000 C   0  0  0  0  0  0  0  0  0  0  0  0
    2.0000   -0.0148    0.0000 C   0  0  0  0  0  0  0  0  0  0  0  0
    5.8041    2.0848    0.0000 H   0  0  0  0  0  0  0  0  0  0  0  0
    7.3421    2.0848    0.0000 H   0  0  0  0  0  0  0  0  0  0  0  0
    2.7680   -0.8815    0.0000 H   0  0  0  0  0  0  0  0  0  0  0  0
    2.7386   -1.7578    0.0000 H   0  0  0  0  0  0  0  0  0  0  0  0
    3.6149   -1.7872    0.0000 H   0  0  0  0  0  0  0  0  0  0  0  0
    8.0817   -1.5536    0.0000 H   0  0  0  0  0  0  0  0  0  0  0  0
   10.0478    0.5491    0.0000 H   0  0  0  0  0  0  0  0  0  0  0  0
    9.6772   -1.0749    0.0000 H   0  0  0  0  0  0  0  0  0  0  0  0
    4.7038   -2.3500    0.0000 H   0  0  0  0  0  0  0  0  0  0  0  0
    3.4854    2.9402    0.0000 H   0  0  0  0  0  0  0  0  0  0  0  0
    2.7055    2.5395    0.0000 H   0  0  0  0  0  0  0  0  0  0  0  0
    3.1062    1.7596    0.0000 H   0  0  0  0  0  0  0  0  0  0  0  0
    1.5800    0.4414    0.0000 H   0  0  0  0  0  0  0  0  0  0  0  0
    1.5439   -0.4347    0.0000 H   0  0  0  0  0  0  0  0  0  0  0  0
    2.4200   -0.4709    0.0000 H   0  0  0  0  0  0  0  0  0  0  0  0
    9.4886    2.2337    0.0000 H   0  0  0  0  0  0  0  0  0  0  0  0
  1  7  1  0  0  0  0
  1 14  1  0  0  0  0
  2  9  1  0  0  0  0
  2 21  1  0  0  0  0
  3 11  1  0  0  0  0
  3 22  1  0  0  0  0
  4 10  1  0  0  0  0
  4 31  1  0  0  0  0
  5 17  1  0  0  0  0
  5 38  1  0  0  0  0
  6  7  2  0  0  0  0
  6  9  1  0  0  0  0
  6 13  1  0  0  0  0
  7 10  1  0  0  0  0
  8 10  2  0  0  0  0
  8 11  1  0  0  0  0
  8 16  1  0  0  0  0
  9 11  2  0  0  0  0
 12 14  1  0  0  0  0
 12 15  1  0  0  0  0
 12 17  2  0  0  0  0
 13 15  2  0  0  0  0
 13 23  1  0  0  0  0
 14 18  2  0  0  0  0
 15 24  1  0  0  0  0
 16 25  1  0  0  0  0
 16 26  1  0  0  0  0
 16 27  1  0  0  0  0
 17 19  1  0  0  0  0
 18 20  1  0  0  0  0
 18 28  1  0  0  0  0
 19 20  2  0  0  0  0
 19 29  1  0  0  0  0
 20 30  1  0  0  0  0
 21 32  1  0  0  0  0
 21 33  1  0  0  0  0
 21 34  1  0  0  0  0
 22 35  1  0  0  0  0
 22 36  1  0  0  0  0
 22 37  1  0  0  0  0
M  END
>  <PUBCHEM_COMPOUND_CID>
11609116

>  <PUBCHEM_COMPOUND_CANONICALIZED>
1

>  <PUBCHEM_CACTVS_COMPLEXITY>
412

>  <PUBCHEM_CACTVS_HBOND_ACCEPTOR>
5

>  <PUBCHEM_CACTVS_HBOND_DONOR>
2

>  <PUBCHEM_CACTVS_ROTATABLE_BOND>
2

>  <PUBCHEM_CACTVS_SUBSKEYS>
AAADceB4OAAAAAAAAAAAAAAAAAAAAAAAAAAwYAAABAAAAAABQAAAGgAACAAADASAmAIyBoAABgCAAiBCAAACCAAgIAAIiAAGiIgNJyKGMRqCeCOlwBULuAfA4DwOQQABCAAIQACCAAIQABCAAAAAAAAAAA==

>  <PUBCHEM_IUPAC_OPENEYE_NAME>
3,4-dimethoxy-2-methyl-benzo[b][1]benzoxepine-1,7-diol

>  <PUBCHEM_IUPAC_CAS_NAME>
3,4-dimethoxy-2-methylbenzo[b][1]benzoxepin-1,7-diol

>  <PUBCHEM_IUPAC_NAME>
3,4-dimethoxy-2-methylbenzo[b][1]benzoxepine-1,7-diol

>  <PUBCHEM_IUPAC_SYSTEMATIC_NAME>
3,4-dimethoxy-2-methyl-benzo[b][1]benzoxepine-1,7-diol

>  <PUBCHEM_IUPAC_TRADITIONAL_NAME>
3,4-dimethoxy-2-methyl-benzo[b][1]benzoxepin-1,7-diol

>  <PUBCHEM_IUPAC_INCHI>
InChI=1S/C17H16O5/c1-9-14(19)16-11(17(21-3)15(9)20-2)8-7-10-12(18)5-4-6-13(10)22-16/h4-8,18-19H,1-3H3

>  <PUBCHEM_IUPAC_INCHIKEY>
RFGJXYPXWRVBTQ-UHFFFAOYSA-N

>  <PUBCHEM_XLOGP3_AA>
3.5

>  <PUBCHEM_EXACT_MASS>
300.1

>  <PUBCHEM_MOLECULAR_FORMULA>
C17H16O5

>  <PUBCHEM_MOLECULAR_WEIGHT>
300.31

>  <PUBCHEM_OPENEYE_CAN_SMILES>
CC1=C(C2=C(C=CC3=C(O2)C=CC=C3O)C(=C1OC)OC)O

>  <PUBCHEM_OPENEYE_ISO_SMILES>
CC1=C(C2=C(C=CC3=C(O2)C=CC=C3O)C(=C1OC)OC)O

>  <PUBCHEM_CACTVS_TPSA>
68.2

>  <PUBCHEM_MONOISOTOPIC_WEIGHT>
300.1

>  <PUBCHEM_TOTAL_CHARGE>
0

>  <PUBCHEM_HEAVY_ATOM_COUNT>
22

>  <PUBCHEM_ATOM_DEF_STEREO_COUNT>
0

>  <PUBCHEM_ATOM_UDEF_STEREO_COUNT>
0

>  <PUBCHEM_BOND_DEF_STEREO_COUNT>
0

>  <PUBCHEM_BOND_UDEF_STEREO_COUNT>
0

>  <PUBCHEM_ISOTOPIC_ATOM_COUNT>
0

>  <PUBCHEM_COMPONENT_COUNT>
1

>  <PUBCHEM_CACTVS_TAUTO_COUNT>
4

>  <PUBCHEM_COORDINATE_TYPE>
1
5
255

>  <PUBCHEM_BONDANNOTATIONS>
12  14  8
12  17  8
14  18  8
17  19  8
18  20  8
19  20  8
6  7  8
6  9  8
7  10  8
8  10  8
8  11  8
9  11  8

$$$$
