11664067
 OpenBabel06101807152D

102102  0  0  0  0  0  0  0  0999 V2000
    3.4030   -8.0950    0.0000 O   0  0  0  0  0  0  0  0  0  0  0  0
    2.5369   -9.5950    0.0000 O   0  0  0  0  0  0  0  0  0  0  0  0
    6.0010   -9.5950    0.0000 O   0  0  0  0  0  0  0  0  0  0  0  0
    4.2690  -12.5950    0.0000 O   0  0  0  0  0  0  0  0  0  0  0  0
    9.4651    0.4050    0.0000 C   0  0  0  0  0  0  0  0  0  0  0  0
    9.4651   -0.5950    0.0000 C   0  0  0  0  0  0  0  0  0  0  0  0
   10.3312    0.9050    0.0000 C   0  0  0  0  0  0  0  0  0  0  0  0
    8.5991   -1.0950    0.0000 C   0  0  0  0  0  0  0  0  0  0  0  0
   10.3312    1.9050    0.0000 C   0  0  0  0  0  0  0  0  0  0  0  0
    8.5991   -2.0950    0.0000 C   0  0  0  0  0  0  0  0  0  0  0  0
   11.1972    2.4050    0.0000 C   0  0  0  0  0  0  0  0  0  0  0  0
    7.7331   -2.5950    0.0000 C   0  0  0  0  0  0  0  0  0  0  0  0
   11.1972    3.4050    0.0000 C   0  0  0  0  0  0  0  0  0  0  0  0
    7.7331   -3.5950    0.0000 C   0  0  0  0  0  0  0  0  0  0  0  0
   12.0632    3.9050    0.0000 C   0  0  0  0  0  0  0  0  0  0  0  0
    6.8671   -4.0950    0.0000 C   0  0  0  0  0  0  0  0  0  0  0  0
   12.0632    4.9050    0.0000 C   0  0  0  0  0  0  0  0  0  0  0  0
    6.8671   -5.0950    0.0000 C   0  0  0  0  0  0  0  0  0  0  0  0
   12.9292    5.4050    0.0000 C   0  0  0  0  0  0  0  0  0  0  0  0
    6.0010   -5.5950    0.0000 C   0  0  0  0  0  0  0  0  0  0  0  0
   12.9292    6.4050    0.0000 C   0  0  0  0  0  0  0  0  0  0  0  0
    6.0010   -6.5950    0.0000 C   0  0  0  0  0  0  0  0  0  0  0  0
   13.7953    6.9050    0.0000 C   0  0  0  0  0  0  0  0  0  0  0  0
    5.1350   -7.0950    0.0000 C   0  0  0  0  0  0  0  0  0  0  0  0
   13.7953    7.9050    0.0000 C   0  0  0  0  0  0  0  0  0  0  0  0
    5.1350   -8.0950    0.0000 C   0  0  0  0  0  0  0  0  0  0  0  0
   14.6613    8.4050    0.0000 C   0  0  0  0  0  0  0  0  0  0  0  0
    4.2690   -8.5950    0.0000 C   0  0  0  0  0  0  0  0  0  0  0  0
   14.6613    9.4050    0.0000 C   0  0  0  0  0  0  0  0  0  0  0  0
   13.7953    9.9050    0.0000 C   0  0  0  0  0  0  0  0  0  0  0  0
   13.7953   10.9050    0.0000 C   0  0  0  0  0  0  0  0  0  0  0  0
    4.2690   -9.5950    0.0000 C   0  0  0  0  0  0  0  0  0  0  0  0
   12.9292   11.4050    0.0000 C   0  0  0  0  0  0  0  0  0  0  0  0
   12.9292   12.4050    0.0000 C   0  0  0  0  0  0  0  0  0  0  0  0
    3.4030  -10.0950    0.0000 C   0  0  0  0  0  0  0  0  0  0  0  0
    5.1350  -10.0950    0.0000 C   0  0  0  0  0  0  0  0  0  0  0  0
   12.0632   12.9050    0.0000 C   0  0  0  0  0  0  0  0  0  0  0  0
    3.4030  -11.0950    0.0000 C   0  0  0  0  0  0  0  0  0  0  0  0
    5.1350  -11.0950    0.0000 C   0  0  0  0  0  0  0  0  0  0  0  0
    4.2690  -11.5950    0.0000 C   0  0  0  0  0  0  0  0  0  0  0  0
    9.2531    0.9876    0.0000 H   0  0  0  0  0  0  0  0  0  0  0  0
    8.8546    0.2973    0.0000 H   0  0  0  0  0  0  0  0  0  0  0  0
    9.6772   -1.1776    0.0000 H   0  0  0  0  0  0  0  0  0  0  0  0
   10.0757   -0.4873    0.0000 H   0  0  0  0  0  0  0  0  0  0  0  0
   10.5432    0.3224    0.0000 H   0  0  0  0  0  0  0  0  0  0  0  0
   10.9417    1.0127    0.0000 H   0  0  0  0  0  0  0  0  0  0  0  0
    8.3871   -0.5124    0.0000 H   0  0  0  0  0  0  0  0  0  0  0  0
    7.9885   -1.2027    0.0000 H   0  0  0  0  0  0  0  0  0  0  0  0
   10.1191    2.4876    0.0000 H   0  0  0  0  0  0  0  0  0  0  0  0
    9.7206    1.7973    0.0000 H   0  0  0  0  0  0  0  0  0  0  0  0
    8.8112   -2.6776    0.0000 H   0  0  0  0  0  0  0  0  0  0  0  0
    9.2097   -1.9873    0.0000 H   0  0  0  0  0  0  0  0  0  0  0  0
   11.4092    1.8224    0.0000 H   0  0  0  0  0  0  0  0  0  0  0  0
   11.8078    2.5127    0.0000 H   0  0  0  0  0  0  0  0  0  0  0  0
    7.5210   -2.0124    0.0000 H   0  0  0  0  0  0  0  0  0  0  0  0
    7.1225   -2.7027    0.0000 H   0  0  0  0  0  0  0  0  0  0  0  0
   10.9851    3.9876    0.0000 H   0  0  0  0  0  0  0  0  0  0  0  0
   10.5866    3.2973    0.0000 H   0  0  0  0  0  0  0  0  0  0  0  0
    7.9451   -4.1776    0.0000 H   0  0  0  0  0  0  0  0  0  0  0  0
    8.3437   -3.4873    0.0000 H   0  0  0  0  0  0  0  0  0  0  0  0
   12.2753    3.3224    0.0000 H   0  0  0  0  0  0  0  0  0  0  0  0
   12.6738    4.0127    0.0000 H   0  0  0  0  0  0  0  0  0  0  0  0
    6.6550   -3.5124    0.0000 H   0  0  0  0  0  0  0  0  0  0  0  0
    6.2565   -4.2027    0.0000 H   0  0  0  0  0  0  0  0  0  0  0  0
   11.8512    5.4876    0.0000 H   0  0  0  0  0  0  0  0  0  0  0  0
   11.4526    4.7973    0.0000 H   0  0  0  0  0  0  0  0  0  0  0  0
    7.0791   -5.6776    0.0000 H   0  0  0  0  0  0  0  0  0  0  0  0
    7.4776   -4.9873    0.0000 H   0  0  0  0  0  0  0  0  0  0  0  0
   13.1413    4.8224    0.0000 H   0  0  0  0  0  0  0  0  0  0  0  0
   13.5398    5.5127    0.0000 H   0  0  0  0  0  0  0  0  0  0  0  0
    5.7890   -5.0124    0.0000 H   0  0  0  0  0  0  0  0  0  0  0  0
    5.3905   -5.7027    0.0000 H   0  0  0  0  0  0  0  0  0  0  0  0
   12.7172    6.9876    0.0000 H   0  0  0  0  0  0  0  0  0  0  0  0
   12.3187    6.2973    0.0000 H   0  0  0  0  0  0  0  0  0  0  0  0
    6.2131   -7.1776    0.0000 H   0  0  0  0  0  0  0  0  0  0  0  0
    6.6116   -6.4873    0.0000 H   0  0  0  0  0  0  0  0  0  0  0  0
   14.0073    6.3224    0.0000 H   0  0  0  0  0  0  0  0  0  0  0  0
   14.4058    7.0127    0.0000 H   0  0  0  0  0  0  0  0  0  0  0  0
    4.9230   -6.5124    0.0000 H   0  0  0  0  0  0  0  0  0  0  0  0
    4.5244   -7.2027    0.0000 H   0  0  0  0  0  0  0  0  0  0  0  0
   13.5832    8.4876    0.0000 H   0  0  0  0  0  0  0  0  0  0  0  0
   13.1847    7.7973    0.0000 H   0  0  0  0  0  0  0  0  0  0  0  0
    5.3471   -8.6776    0.0000 H   0  0  0  0  0  0  0  0  0  0  0  0
    5.7456   -7.9873    0.0000 H   0  0  0  0  0  0  0  0  0  0  0  0
   15.1982    8.0950    0.0000 H   0  0  0  0  0  0  0  0  0  0  0  0
   15.1982    9.7150    0.0000 H   0  0  0  0  0  0  0  0  0  0  0  0
   13.1847   10.0127    0.0000 H   0  0  0  0  0  0  0  0  0  0  0  0
   13.5832    9.3224    0.0000 H   0  0  0  0  0  0  0  0  0  0  0  0
   14.4058   10.7973    0.0000 H   0  0  0  0  0  0  0  0  0  0  0  0
   14.0073   11.4876    0.0000 H   0  0  0  0  0  0  0  0  0  0  0  0
   12.3187   11.5127    0.0000 H   0  0  0  0  0  0  0  0  0  0  0  0
   12.7172   10.8224    0.0000 H   0  0  0  0  0  0  0  0  0  0  0  0
   13.5398   12.2973    0.0000 H   0  0  0  0  0  0  0  0  0  0  0  0
   13.1413   12.9876    0.0000 H   0  0  0  0  0  0  0  0  0  0  0  0
   12.3732   13.4419    0.0000 H   0  0  0  0  0  0  0  0  0  0  0  0
   11.5263   13.2150    0.0000 H   0  0  0  0  0  0  0  0  0  0  0  0
   11.7532   12.3681    0.0000 H   0  0  0  0  0  0  0  0  0  0  0  0
    2.8660  -11.4050    0.0000 H   0  0  0  0  0  0  0  0  0  0  0  0
    5.6720  -11.4050    0.0000 H   0  0  0  0  0  0  0  0  0  0  0  0
    2.0000   -9.9050    0.0000 H   0  0  0  0  0  0  0  0  0  0  0  0
    6.5380   -9.9050    0.0000 H   0  0  0  0  0  0  0  0  0  0  0  0
    3.7320  -12.9050    0.0000 H   0  0  0  0  0  0  0  0  0  0  0  0
  1 28  2  0  0  0  0
  2 35  1  0  0  0  0
  2100  1  0  0  0  0
  3 36  1  0  0  0  0
  3101  1  0  0  0  0
  4 40  1  0  0  0  0
  4102  1  0  0  0  0
  5  6  1  0  0  0  0
  5  7  1  0  0  0  0
  5 41  1  0  0  0  0
  5 42  1  0  0  0  0
  6  8  1  0  0  0  0
  6 43  1  0  0  0  0
  6 44  1  0  0  0  0
  7  9  1  0  0  0  0
  7 45  1  0  0  0  0
  7 46  1  0  0  0  0
  8 10  1  0  0  0  0
  8 47  1  0  0  0  0
  8 48  1  0  0  0  0
  9 11  1  0  0  0  0
  9 49  1  0  0  0  0
  9 50  1  0  0  0  0
 10 12  1  0  0  0  0
 10 51  1  0  0  0  0
 10 52  1  0  0  0  0
 11 13  1  0  0  0  0
 11 53  1  0  0  0  0
 11 54  1  0  0  0  0
 12 14  1  0  0  0  0
 12 55  1  0  0  0  0
 12 56  1  0  0  0  0
 13 15  1  0  0  0  0
 13 57  1  0  0  0  0
 13 58  1  0  0  0  0
 14 16  1  0  0  0  0
 14 59  1  0  0  0  0
 14 60  1  0  0  0  0
 15 17  1  0  0  0  0
 15 61  1  0  0  0  0
 15 62  1  0  0  0  0
 16 18  1  0  0  0  0
 16 63  1  0  0  0  0
 16 64  1  0  0  0  0
 17 19  1  0  0  0  0
 17 65  1  0  0  0  0
 17 66  1  0  0  0  0
 18 20  1  0  0  0  0
 18 67  1  0  0  0  0
 18 68  1  0  0  0  0
 19 21  1  0  0  0  0
 19 69  1  0  0  0  0
 19 70  1  0  0  0  0
 20 22  1  0  0  0  0
 20 71  1  0  0  0  0
 20 72  1  0  0  0  0
 21 23  1  0  0  0  0
 21 73  1  0  0  0  0
 21 74  1  0  0  0  0
 22 24  1  0  0  0  0
 22 75  1  0  0  0  0
 22 76  1  0  0  0  0
 23 25  1  0  0  0  0
 23 77  1  0  0  0  0
 23 78  1  0  0  0  0
 24 26  1  0  0  0  0
 24 79  1  0  0  0  0
 24 80  1  0  0  0  0
 25 27  1  0  0  0  0
 25 81  1  0  0  0  0
 25 82  1  0  0  0  0
 26 28  1  0  0  0  0
 26 83  1  0  0  0  0
 26 84  1  0  0  0  0
 27 29  2  0  0  0  0
 27 85  1  0  0  0  0
 28 32  1  0  0  0  0
 29 30  1  0  0  0  0
 29 86  1  0  0  0  0
 30 31  1  0  0  0  0
 30 87  1  0  0  0  0
 30 88  1  0  0  0  0
 31 33  1  0  0  0  0
 31 89  1  0  0  0  0
 31 90  1  0  0  0  0
 32 35  2  0  0  0  0
 32 36  1  0  0  0  0
 33 34  1  0  0  0  0
 33 91  1  0  0  0  0
 33 92  1  0  0  0  0
 34 37  1  0  0  0  0
 34 93  1  0  0  0  0
 34 94  1  0  0  0  0
 35 38  1  0  0  0  0
 36 39  2  0  0  0  0
 37 95  1  0  0  0  0
 37 96  1  0  0  0  0
 37 97  1  0  0  0  0
 38 40  2  0  0  0  0
 38 98  1  0  0  0  0
 39 40  1  0  0  0  0
 39 99  1  0  0  0  0
M  END
>  <PUBCHEM_COMPOUND_CID>
11664067

>  <PUBCHEM_COMPOUND_CANONICALIZED>
1

>  <PUBCHEM_CACTVS_COMPLEXITY>
577

>  <PUBCHEM_CACTVS_HBOND_ACCEPTOR>
4

>  <PUBCHEM_CACTVS_HBOND_DONOR>
3

>  <PUBCHEM_CACTVS_ROTATABLE_BOND>
28

>  <PUBCHEM_CACTVS_SUBSKEYS>
AAADcfB8OAAAAAAAAAAAAAAAAAAAAAAAAAAwAAAAAAAAAAABAAAAGgAACAAADASAmAAyBoAAAgCIAqBSAAACAAAkIAAIiAEGCMgIJzaCFRKAcUAl4BUImQeI7OTOIAAACAAIAABAAAAQABAAAAAAAAAAAA==

>  <PUBCHEM_IUPAC_OPENEYE_NAME>
(Z)-1-(2,4,6-trihydroxyphenyl)triacont-24-en-1-one

>  <PUBCHEM_IUPAC_CAS_NAME>
(Z)-1-(2,4,6-trihydroxyphenyl)-24-triaconten-1-one

>  <PUBCHEM_IUPAC_NAME>
(Z)-1-(2,4,6-trihydroxyphenyl)triacont-24-en-1-one

>  <PUBCHEM_IUPAC_SYSTEMATIC_NAME>
(Z)-1-[2,4,6-tris(oxidanyl)phenyl]triacont-24-en-1-one

>  <PUBCHEM_IUPAC_TRADITIONAL_NAME>
(Z)-1-(2,4,6-trihydroxyphenyl)triacont-24-en-1-one

>  <PUBCHEM_IUPAC_INCHI>
InChI=1S/C36H62O4/c1-2-3-4-5-6-7-8-9-10-11-12-13-14-15-16-17-18-19-20-21-22-23-24-25-26-27-28-29-33(38)36-34(39)30-32(37)31-35(36)40/h6-7,30-31,37,39-40H,2-5,8-29H2,1H3/b7-6-

>  <PUBCHEM_IUPAC_INCHIKEY>
ZZAYAFZFYJHIKV-SREVYHEPSA-N

>  <PUBCHEM_XLOGP3_AA>
15.1

>  <PUBCHEM_EXACT_MASS>
558.465

>  <PUBCHEM_MOLECULAR_FORMULA>
C36H62O4

>  <PUBCHEM_MOLECULAR_WEIGHT>
558.888

>  <PUBCHEM_OPENEYE_CAN_SMILES>
CCCCCC=CCCCCCCCCCCCCCCCCCCCCCCC(=O)C1=C(C=C(C=C1O)O)O

>  <PUBCHEM_OPENEYE_ISO_SMILES>
CCCCC/C=C\CCCCCCCCCCCCCCCCCCCCCCC(=O)C1=C(C=C(C=C1O)O)O

>  <PUBCHEM_CACTVS_TPSA>
77.8

>  <PUBCHEM_MONOISOTOPIC_WEIGHT>
558.465

>  <PUBCHEM_TOTAL_CHARGE>
0

>  <PUBCHEM_HEAVY_ATOM_COUNT>
40

>  <PUBCHEM_ATOM_DEF_STEREO_COUNT>
0

>  <PUBCHEM_ATOM_UDEF_STEREO_COUNT>
0

>  <PUBCHEM_BOND_DEF_STEREO_COUNT>
1

>  <PUBCHEM_BOND_UDEF_STEREO_COUNT>
0

>  <PUBCHEM_ISOTOPIC_ATOM_COUNT>
0

>  <PUBCHEM_COMPONENT_COUNT>
1

>  <PUBCHEM_CACTVS_TAUTO_COUNT>
25

>  <PUBCHEM_COORDINATE_TYPE>
1
5
255

>  <PUBCHEM_BONDANNOTATIONS>
32  35  8
32  36  8
35  38  8
36  39  8
38  40  8
39  40  8

$$$$
