11734696
 OpenBabel06101807152D

100102  0  0  1  0  0  0  0  0999 V2000
    8.7043   10.4138    0.0000 O   0  0  0  0  0  0  0  0  0  0  0  0
    5.9140    7.5497    0.0000 O   0  0  0  0  0  0  0  0  0  0  0  0
    2.3020  -10.4138    0.0000 O   0  0  0  0  0  0  0  0  0  0  0  0
    5.4469   -7.4707    0.0000 O   0  0  0  0  0  0  0  0  0  0  0  0
    8.2265    8.4653    0.0000 C   0  0  2  0  0  0  0  0  0  0  0  0
    9.5992    7.8733    0.0000 C   0  0  0  0  0  0  0  0  0  0  0  0
    6.8276    7.9565    0.0000 C   0  0  1  0  0  0  0  0  0  0  0  0
    7.9677    9.4312    0.0000 C   0  0  1  0  0  0  0  0  0  0  0  0
    9.9412    8.8130    0.0000 C   0  0  0  0  0  0  0  0  0  0  0  0
    6.5688    8.9224    0.0000 C   0  0  0  0  0  0  0  0  0  0  0  0
   10.4738    7.3885    0.0000 C   0  0  0  0  0  0  0  0  0  0  0  0
    9.9248    6.9278    0.0000 C   0  0  0  0  0  0  0  0  0  0  0  0
    8.4853    7.4994    0.0000 C   0  0  0  0  0  0  0  0  0  0  0  0
    6.5856    6.9862    0.0000 C   0  0  0  0  0  0  0  0  0  0  0  0
    4.4508   -8.9721    0.0000 C   0  0  0  0  0  0  0  0  0  0  0  0
    7.7782    6.7922    0.0000 C   0  0  0  0  0  0  0  0  0  0  0  0
    3.7436   -8.2650    0.0000 C   0  0  2  0  0  0  0  0  0  0  0  0
    3.9968   -9.8631    0.0000 C   0  0  0  0  0  0  0  0  0  0  0  0
    2.8526   -8.7190    0.0000 C   0  0  0  0  0  0  0  0  0  0  0  0
    3.0091   -9.7067    0.0000 C   0  0  1  0  0  0  0  0  0  0  0  0
    5.3418   -9.4261    0.0000 C   0  0  0  0  0  0  0  0  0  0  0  0
    5.3571   -8.5495    0.0000 C   0  0  0  0  0  0  0  0  0  0  0  0
    3.2896   -7.3740    0.0000 C   0  0  0  0  0  0  0  0  0  0  0  0
    8.0370    5.8263    0.0000 C   0  0  0  0  0  0  0  0  0  0  0  0
    4.4508   -7.5579    0.0000 C   0  0  0  0  0  0  0  0  0  0  0  0
    9.0030    5.5675    0.0000 C   0  0  0  0  0  0  0  0  0  0  0  0
    7.3300    5.1192    0.0000 C   0  0  0  0  0  0  0  0  0  0  0  0
    4.1919   -6.5920    0.0000 C   0  0  0  0  0  0  0  0  0  0  0  0
    4.8990   -5.8849    0.0000 C   0  0  0  0  0  0  0  0  0  0  0  0
    7.5888    4.1533    0.0000 C   0  0  0  0  0  0  0  0  0  0  0  0
    4.6402   -4.9190    0.0000 C   0  0  0  0  0  0  0  0  0  0  0  0
    6.8817    3.4462    0.0000 C   0  0  0  0  0  0  0  0  0  0  0  0
    3.6743   -4.6602    0.0000 C   0  0  0  0  0  0  0  0  0  0  0  0
    5.3473   -4.2119    0.0000 C   0  0  0  0  0  0  0  0  0  0  0  0
    7.1405    2.4803    0.0000 C   0  0  0  0  0  0  0  0  0  0  0  0
    5.0885   -3.2459    0.0000 C   0  0  0  0  0  0  0  0  0  0  0  0
    8.1064    2.2214    0.0000 C   0  0  0  0  0  0  0  0  0  0  0  0
    6.4334    1.7732    0.0000 C   0  0  0  0  0  0  0  0  0  0  0  0
    5.7956   -2.5388    0.0000 C   0  0  0  0  0  0  0  0  0  0  0  0
    6.6922    0.8072    0.0000 C   0  0  0  0  0  0  0  0  0  0  0  0
    5.5368   -1.5729    0.0000 C   0  0  0  0  0  0  0  0  0  0  0  0
    5.9851    0.1001    0.0000 C   0  0  0  0  0  0  0  0  0  0  0  0
    6.2439   -0.8658    0.0000 C   0  0  0  0  0  0  0  0  0  0  0  0
    4.5709   -1.3141    0.0000 C   0  0  0  0  0  0  0  0  0  0  0  0
    7.7477   10.2522    0.0000 H   0  0  0  0  0  0  0  0  0  0  0  0
   10.1355    9.4017    0.0000 H   0  0  0  0  0  0  0  0  0  0  0  0
   10.5270    8.6098    0.0000 H   0  0  0  0  0  0  0  0  0  0  0  0
    5.9748    8.7446    0.0000 H   0  0  0  0  0  0  0  0  0  0  0  0
    6.3738    9.5110    0.0000 H   0  0  0  0  0  0  0  0  0  0  0  0
   10.7744    7.9307    0.0000 H   0  0  0  0  0  0  0  0  0  0  0  0
   11.0161    7.0879    0.0000 H   0  0  0  0  0  0  0  0  0  0  0  0
   10.1733    6.8462    0.0000 H   0  0  0  0  0  0  0  0  0  0  0  0
   10.5110    7.1296    0.0000 H   0  0  0  0  0  0  0  0  0  0  0  0
   10.1266    6.3415    0.0000 H   0  0  0  0  0  0  0  0  0  0  0  0
    9.3386    6.7259    0.0000 H   0  0  0  0  0  0  0  0  0  0  0  0
    8.9238    7.0610    0.0000 H   0  0  0  0  0  0  0  0  0  0  0  0
    7.1872    6.8362    0.0000 H   0  0  0  0  0  0  0  0  0  0  0  0
    6.4355    6.3846    0.0000 H   0  0  0  0  0  0  0  0  0  0  0  0
    5.9840    7.1362    0.0000 H   0  0  0  0  0  0  0  0  0  0  0  0
    5.4124    7.9142    0.0000 H   0  0  0  0  0  0  0  0  0  0  0  0
    7.1606    6.7382    0.0000 H   0  0  0  0  0  0  0  0  0  0  0  0
    4.5756  -10.0853    0.0000 H   0  0  0  0  0  0  0  0  0  0  0  0
    3.8363  -10.4620    0.0000 H   0  0  0  0  0  0  0  0  0  0  0  0
    2.2538   -8.8795    0.0000 H   0  0  0  0  0  0  0  0  0  0  0  0
    2.6304   -8.1402    0.0000 H   0  0  0  0  0  0  0  0  0  0  0  0
    3.2007  -10.2964    0.0000 H   0  0  0  0  0  0  0  0  0  0  0  0
    5.6232   -8.8737    0.0000 H   0  0  0  0  0  0  0  0  0  0  0  0
    5.8942   -9.7076    0.0000 H   0  0  0  0  0  0  0  0  0  0  0  0
    5.0603   -9.9786    0.0000 H   0  0  0  0  0  0  0  0  0  0  0  0
    5.0950   -7.9876    0.0000 H   0  0  0  0  0  0  0  0  0  0  0  0
    5.9190   -8.2875    0.0000 H   0  0  0  0  0  0  0  0  0  0  0  0
    5.6191   -9.1114    0.0000 H   0  0  0  0  0  0  0  0  0  0  0  0
    2.7372   -7.6555    0.0000 H   0  0  0  0  0  0  0  0  0  0  0  0
    3.0082   -6.8216    0.0000 H   0  0  0  0  0  0  0  0  0  0  0  0
    3.8421   -7.0926    0.0000 H   0  0  0  0  0  0  0  0  0  0  0  0
    1.7031  -10.2534    0.0000 H   0  0  0  0  0  0  0  0  0  0  0  0
    9.1634    6.1664    0.0000 H   0  0  0  0  0  0  0  0  0  0  0  0
    9.6018    5.4070    0.0000 H   0  0  0  0  0  0  0  0  0  0  0  0
    8.8425    4.9686    0.0000 H   0  0  0  0  0  0  0  0  0  0  0  0
    3.5931   -6.4315    0.0000 H   0  0  0  0  0  0  0  0  0  0  0  0
    6.7311    5.2797    0.0000 H   0  0  0  0  0  0  0  0  0  0  0  0
    5.4979   -6.0454    0.0000 H   0  0  0  0  0  0  0  0  0  0  0  0
    8.1876    3.9928    0.0000 H   0  0  0  0  0  0  0  0  0  0  0  0
    6.2828    3.6067    0.0000 H   0  0  0  0  0  0  0  0  0  0  0  0
    3.5138   -5.2590    0.0000 H   0  0  0  0  0  0  0  0  0  0  0  0
    3.0754   -4.4997    0.0000 H   0  0  0  0  0  0  0  0  0  0  0  0
    3.8348   -4.0613    0.0000 H   0  0  0  0  0  0  0  0  0  0  0  0
    5.9462   -4.3723    0.0000 H   0  0  0  0  0  0  0  0  0  0  0  0
    4.4896   -3.0855    0.0000 H   0  0  0  0  0  0  0  0  0  0  0  0
    8.2669    2.8203    0.0000 H   0  0  0  0  0  0  0  0  0  0  0  0
    8.7053    2.0610    0.0000 H   0  0  0  0  0  0  0  0  0  0  0  0
    7.9459    1.6226    0.0000 H   0  0  0  0  0  0  0  0  0  0  0  0
    5.8345    1.9336    0.0000 H   0  0  0  0  0  0  0  0  0  0  0  0
    6.3945   -2.6993    0.0000 H   0  0  0  0  0  0  0  0  0  0  0  0
    7.2911    0.6468    0.0000 H   0  0  0  0  0  0  0  0  0  0  0  0
    5.3862    0.2606    0.0000 H   0  0  0  0  0  0  0  0  0  0  0  0
    6.8428   -1.0263    0.0000 H   0  0  0  0  0  0  0  0  0  0  0  0
    4.4104   -1.9130    0.0000 H   0  0  0  0  0  0  0  0  0  0  0  0
    3.9720   -1.1536    0.0000 H   0  0  0  0  0  0  0  0  0  0  0  0
    4.7313   -0.7152    0.0000 H   0  0  0  0  0  0  0  0  0  0  0  0
  1  5  1  0  0  0  0
  1  8  1  0  0  0  0
  2 60  1  0  0  0  0
  3 76  1  0  0  0  0
  4 25  2  0  0  0  0
  5  6  1  0  0  0  0
  5  7  1  6  0  0  0
  5 13  1  0  0  0  0
  6  9  1  0  0  0  0
  6 11  1  0  0  0  0
  6 12  1  0  0  0  0
  7  2  1  6  0  0  0
  7 10  1  0  0  0  0
  7 14  1  0  0  0  0
  8  9  1  0  0  0  0
  8 10  1  0  0  0  0
  8 45  1  6  0  0  0
  9 46  1  0  0  0  0
  9 47  1  0  0  0  0
 10 48  1  0  0  0  0
 10 49  1  0  0  0  0
 11 50  1  0  0  0  0
 11 51  1  0  0  0  0
 11 52  1  0  0  0  0
 12 53  1  0  0  0  0
 12 54  1  0  0  0  0
 12 55  1  0  0  0  0
 13 16  2  0  0  0  0
 13 56  1  0  0  0  0
 14 57  1  0  0  0  0
 14 58  1  0  0  0  0
 14 59  1  0  0  0  0
 15 17  1  0  0  0  0
 15 18  1  0  0  0  0
 15 21  1  0  0  0  0
 15 22  1  0  0  0  0
 16 24  1  0  0  0  0
 16 61  1  0  0  0  0
 17 19  1  0  0  0  0
 17 23  1  0  0  0  0
 17 25  1  1  0  0  0
 18 20  1  0  0  0  0
 18 62  1  0  0  0  0
 18 63  1  0  0  0  0
 19 20  1  0  0  0  0
 19 64  1  0  0  0  0
 19 65  1  0  0  0  0
 20  3  1  0  0  0  0
 20 66  1  1  0  0  0
 21 67  1  0  0  0  0
 21 68  1  0  0  0  0
 21 69  1  0  0  0  0
 22 70  1  0  0  0  0
 22 71  1  0  0  0  0
 22 72  1  0  0  0  0
 23 73  1  0  0  0  0
 23 74  1  0  0  0  0
 23 75  1  0  0  0  0
 24 26  1  0  0  0  0
 24 27  2  0  0  0  0
 25 28  1  0  0  0  0
 26 77  1  0  0  0  0
 26 78  1  0  0  0  0
 26 79  1  0  0  0  0
 27 30  1  0  0  0  0
 27 81  1  0  0  0  0
 28 29  2  0  0  0  0
 28 80  1  0  0  0  0
 29 31  1  0  0  0  0
 29 82  1  0  0  0  0
 30 32  2  0  0  0  0
 30 83  1  0  0  0  0
 31 33  1  0  0  0  0
 31 34  2  0  0  0  0
 32 35  1  0  0  0  0
 32 84  1  0  0  0  0
 33 85  1  0  0  0  0
 33 86  1  0  0  0  0
 33 87  1  0  0  0  0
 34 36  1  0  0  0  0
 34 88  1  0  0  0  0
 35 37  1  0  0  0  0
 35 38  2  0  0  0  0
 36 39  2  0  0  0  0
 36 89  1  0  0  0  0
 37 90  1  0  0  0  0
 37 91  1  0  0  0  0
 37 92  1  0  0  0  0
 38 40  1  0  0  0  0
 38 93  1  0  0  0  0
 39 41  1  0  0  0  0
 39 94  1  0  0  0  0
 40 42  2  0  0  0  0
 40 95  1  0  0  0  0
 41 43  2  0  0  0  0
 41 44  1  0  0  0  0
 42 43  1  0  0  0  0
 42 96  1  0  0  0  0
 43 97  1  0  0  0  0
 44 98  1  0  0  0  0
 44 99  1  0  0  0  0
 44100  1  0  0  0  0
M  END
>  <PUBCHEM_COMPOUND_CID>
11734696

>  <PUBCHEM_COMPOUND_CANONICALIZED>
1

>  <PUBCHEM_CACTVS_COMPLEXITY>
1360

>  <PUBCHEM_CACTVS_HBOND_ACCEPTOR>
4

>  <PUBCHEM_CACTVS_HBOND_DONOR>
2

>  <PUBCHEM_CACTVS_ROTATABLE_BOND>
11

>  <PUBCHEM_CACTVS_SUBSKEYS>
AAADcfB8OAAAAAAAAAAAAAAAAAAAAaJEAAAwAAAAAAAAAAAAAAAAGgAACAAADlSggAICAAAABgCIAqBSAAAAAAAgAAAICAEAAEgJFBIAIQACUAAFwAALoYOK7PTPgAAAAAAAAABAAAYQADCAAIAACAAAAA==

>  <PUBCHEM_IUPAC_OPENEYE_NAME>
(2E,4E,6E,8E,10E,12E,14E,16E,18E)-1-[(1R,4S)-4-hydroxy-1,2,2-trimethyl-cyclopentyl]-19-[(1S,3R,4R)-3-hydroxy-3,5,5-trimethyl-7-oxabicyclo[2.2.1]heptan-4-yl]-4,8,13,17-tetramethyl-nonadeca-2,4,6,8,10,12,14,16,18-nonaen-1-one

>  <PUBCHEM_IUPAC_CAS_NAME>
(2E,4E,6E,8E,10E,12E,14E,16E,18E)-1-[(1R,4S)-4-hydroxy-1,2,2-trimethylcyclopentyl]-19-[(1S,3R,4R)-3-hydroxy-3,5,5-trimethyl-7-oxabicyclo[2.2.1]heptan-4-yl]-4,8,13,17-tetramethyl-1-nonadeca-2,4,6,8,10,12,14,16,18-nonaenone

>  <PUBCHEM_IUPAC_NAME>
(2E,4E,6E,8E,10E,12E,14E,16E,18E)-1-[(1R,4S)-4-hydroxy-1,2,2-trimethylcyclopentyl]-19-[(1S,3R,4R)-3-hydroxy-3,5,5-trimethyl-7-oxabicyclo[2.2.1]heptan-4-yl]-4,8,13,17-tetramethylnonadeca-2,4,6,8,10,12,14,16,18-nonaen-1-one

>  <PUBCHEM_IUPAC_SYSTEMATIC_NAME>
(2E,4E,6E,8E,10E,12E,14E,16E,18E)-4,8,13,17-tetramethyl-1-[(1R,4S)-1,2,2-trimethyl-4-oxidanyl-cyclopentyl]-19-[(1S,3R,4R)-3,5,5-trimethyl-3-oxidanyl-7-oxabicyclo[2.2.1]heptan-4-yl]nonadeca-2,4,6,8,10,12,14,16,18-nonaen-1-one

>  <PUBCHEM_IUPAC_TRADITIONAL_NAME>
(2E,4E,6E,8E,10E,12E,14E,16E,18E)-1-[(1R,4S)-4-hydroxy-1,2,2-trimethyl-cyclopentyl]-19-[(1S,3R,4R)-3-hydroxy-3,5,5-trimethyl-7-oxabicyclo[2.2.1]heptan-4-yl]-4,8,13,17-tetramethyl-nonadeca-2,4,6,8,10,12,14,16,18-nonaen-1-one

>  <PUBCHEM_IUPAC_INCHI>
InChI=1S/C40H56O4/c1-29(17-13-19-31(3)21-22-35(42)38(9)26-33(41)25-36(38,5)6)15-11-12-16-30(2)18-14-20-32(4)23-24-40-37(7,8)27-34(44-40)28-39(40,10)43/h11-24,33-34,41,43H,25-28H2,1-10H3/b12-11+,17-13+,18-14+,22-21+,24-23+,29-15+,30-16+,31-19+,32-20+/t33-,34-,38-,39+,40+/m0/s1

>  <PUBCHEM_IUPAC_INCHIKEY>
TWTPPPZIWNGQCQ-YNKJSWFTSA-N

>  <PUBCHEM_XLOGP3_AA>
10

>  <PUBCHEM_EXACT_MASS>
600.418

>  <PUBCHEM_MOLECULAR_FORMULA>
C40H56O4

>  <PUBCHEM_MOLECULAR_WEIGHT>
600.884

>  <PUBCHEM_OPENEYE_CAN_SMILES>
CC(=CC=CC=C(C)C=CC=C(C)C=CC12C(CC(O1)CC2(C)O)(C)C)C=CC=C(C)C=CC(=O)C3(CC(CC3(C)C)O)C

>  <PUBCHEM_OPENEYE_ISO_SMILES>
C/C(=C\C=C\C=C(/C)\C=C\C=C(/C)\C=C\[C@@]12[C@](C[C@@H](O1)CC2(C)C)(C)O)/C=C/C=C(\C)/C=C/C(=O)[C@@]3(C[C@H](CC3(C)C)O)C

>  <PUBCHEM_CACTVS_TPSA>
66.8

>  <PUBCHEM_MONOISOTOPIC_WEIGHT>
600.418

>  <PUBCHEM_TOTAL_CHARGE>
0

>  <PUBCHEM_HEAVY_ATOM_COUNT>
44

>  <PUBCHEM_ATOM_DEF_STEREO_COUNT>
5

>  <PUBCHEM_ATOM_UDEF_STEREO_COUNT>
0

>  <PUBCHEM_BOND_DEF_STEREO_COUNT>
9

>  <PUBCHEM_BOND_UDEF_STEREO_COUNT>
0

>  <PUBCHEM_ISOTOPIC_ATOM_COUNT>
0

>  <PUBCHEM_COMPONENT_COUNT>
1

>  <PUBCHEM_CACTVS_TAUTO_COUNT>
1

>  <PUBCHEM_COORDINATE_TYPE>
1
5
255

>  <PUBCHEM_BONDANNOTATIONS>
17  23  6
7  2  6
20  3  6
5  13  5
8  45  6

$$$$
