11743229
 OpenBabel06101807152D

 77 80  0  0  1  0  0  0  0  0999 V2000
    5.6489   -4.1911    0.0000 O   0  0  0  0  0  0  0  0  0  0  0  0
    2.0000   -3.1742    0.0000 O   0  0  0  0  0  0  0  0  0  0  0  0
    7.3931   -0.1219    0.0000 C   0  0  1  0  0  0  0  0  0  0  0  0
    7.3931   -1.1219    0.0000 C   0  0  3  0  0  0  0  0  0  0  0  0
    6.5271   -1.6219    0.0000 C   0  0  3  0  0  0  0  0  0  0  0  0
    8.3393    0.1828    0.0000 C   0  0  3  0  0  0  0  0  0  0  0  0
    5.6610   -1.1219    0.0000 C   0  0  3  0  0  0  0  0  0  0  0  0
    6.5271    0.3781    0.0000 C   0  0  0  0  0  0  0  0  0  0  0  0
    8.3393   -1.4266    0.0000 C   0  0  0  0  0  0  0  0  0  0  0  0
    5.6610   -0.1219    0.0000 C   0  0  0  0  0  0  0  0  0  0  0  0
    8.9229   -0.6219    0.0000 C   0  0  0  0  0  0  0  0  0  0  0  0
    4.7510   -1.6287    0.0000 C   0  0  2  0  0  0  0  0  0  0  0  0
    8.6500    1.1334    0.0000 C   0  0  1  0  0  0  0  0  0  0  0  0
    6.5431   -2.6634    0.0000 C   0  0  0  0  0  0  0  0  0  0  0  0
    7.3931    0.8781    0.0000 C   0  0  0  0  0  0  0  0  0  0  0  0
    4.7430   -2.6703    0.0000 C   0  0  0  0  0  0  0  0  0  0  0  0
    3.8242   -1.0647    0.0000 C   0  0  0  0  0  0  0  0  0  0  0  0
    5.6451   -3.1912    0.0000 C   0  0  0  0  0  0  0  0  0  0  0  0
    4.7587   -0.6288    0.0000 C   0  0  0  0  0  0  0  0  0  0  0  0
    9.6285    1.3396    0.0000 C   0  0  0  0  0  0  0  0  0  0  0  0
    7.9821    1.8777    0.0000 C   0  0  0  0  0  0  0  0  0  0  0  0
    2.8763   -1.5926    0.0000 C   0  0  0  0  0  0  0  0  0  0  0  0
    3.8076   -3.2201    0.0000 C   0  0  0  0  0  0  0  0  0  0  0  0
    9.9391    2.2901    0.0000 C   0  0  0  0  0  0  0  0  0  0  0  0
    2.8680   -2.6776    0.0000 C   0  0  0  0  0  0  0  0  0  0  0  0
   10.9176    2.4963    0.0000 C   0  0  2  0  0  0  0  0  0  0  0  0
   11.2283    3.4468    0.0000 C   0  0  0  0  0  0  0  0  0  0  0  0
   11.5855    1.7520    0.0000 C   0  0  0  0  0  0  0  0  0  0  0  0
   12.2068    3.6531    0.0000 C   0  0  0  0  0  0  0  0  0  0  0  0
   10.5605    4.1911    0.0000 C   0  0  0  0  0  0  0  0  0  0  0  0
   12.5640    1.9582    0.0000 C   0  0  0  0  0  0  0  0  0  0  0  0
    7.4830   -1.9671    0.0000 H   0  0  0  0  0  0  0  0  0  0  0  0
    7.2664   -2.0412    0.0000 H   0  0  0  0  0  0  0  0  0  0  0  0
    9.1790    0.3147    0.0000 H   0  0  0  0  0  0  0  0  0  0  0  0
    6.3972   -0.6969    0.0000 H   0  0  0  0  0  0  0  0  0  0  0  0
    6.9256    0.8531    0.0000 H   0  0  0  0  0  0  0  0  0  0  0  0
    6.1285    0.8531    0.0000 H   0  0  0  0  0  0  0  0  0  0  0  0
    8.0883   -1.9935    0.0000 H   0  0  0  0  0  0  0  0  0  0  0  0
    8.8767   -1.7358    0.0000 H   0  0  0  0  0  0  0  0  0  0  0  0
    5.4490    0.4607    0.0000 H   0  0  0  0  0  0  0  0  0  0  0  0
    5.0504   -0.2296    0.0000 H   0  0  0  0  0  0  0  0  0  0  0  0
    9.3838   -1.0366    0.0000 H   0  0  0  0  0  0  0  0  0  0  0  0
    9.3838   -0.2072    0.0000 H   0  0  0  0  0  0  0  0  0  0  0  0
    8.0433    1.0055    0.0000 H   0  0  0  0  0  0  0  0  0  0  0  0
    6.7612   -3.2438    0.0000 H   0  0  0  0  0  0  0  0  0  0  0  0
    7.1523   -2.5479    0.0000 H   0  0  0  0  0  0  0  0  0  0  0  0
    8.0131    0.8781    0.0000 H   0  0  0  0  0  0  0  0  0  0  0  0
    7.3931    1.4981    0.0000 H   0  0  0  0  0  0  0  0  0  0  0  0
    6.7731    0.8781    0.0000 H   0  0  0  0  0  0  0  0  0  0  0  0
    4.2324   -0.5980    0.0000 H   0  0  0  0  0  0  0  0  0  0  0  0
    3.4343   -0.5826    0.0000 H   0  0  0  0  0  0  0  0  0  0  0  0
    5.3787   -0.6335    0.0000 H   0  0  0  0  0  0  0  0  0  0  0  0
    4.7635   -0.0088    0.0000 H   0  0  0  0  0  0  0  0  0  0  0  0
    4.1388   -0.6240    0.0000 H   0  0  0  0  0  0  0  0  0  0  0  0
    9.6490    0.7199    0.0000 H   0  0  0  0  0  0  0  0  0  0  0  0
   10.2423    1.2522    0.0000 H   0  0  0  0  0  0  0  0  0  0  0  0
    8.4436    2.2917    0.0000 H   0  0  0  0  0  0  0  0  0  0  0  0
    7.5681    2.3391    0.0000 H   0  0  0  0  0  0  0  0  0  0  0  0
    7.5207    1.4636    0.0000 H   0  0  0  0  0  0  0  0  0  0  0  0
    2.6718   -1.0073    0.0000 H   0  0  0  0  0  0  0  0  0  0  0  0
    2.2647   -1.6940    0.0000 H   0  0  0  0  0  0  0  0  0  0  0  0
    3.8100   -3.8401    0.0000 H   0  0  0  0  0  0  0  0  0  0  0  0
    9.9186    2.9098    0.0000 H   0  0  0  0  0  0  0  0  0  0  0  0
    9.3253    2.3774    0.0000 H   0  0  0  0  0  0  0  0  0  0  0  0
   10.7250    1.9070    0.0000 H   0  0  0  0  0  0  0  0  0  0  0  0
   11.4209    4.0362    0.0000 H   0  0  0  0  0  0  0  0  0  0  0  0
   11.0591    1.4244    0.0000 H   0  0  0  0  0  0  0  0  0  0  0  0
   11.8167    1.1768    0.0000 H   0  0  0  0  0  0  0  0  0  0  0  0
   12.3347    3.0464    0.0000 H   0  0  0  0  0  0  0  0  0  0  0  0
   12.8135    3.7809    0.0000 H   0  0  0  0  0  0  0  0  0  0  0  0
   12.0790    4.2597    0.0000 H   0  0  0  0  0  0  0  0  0  0  0  0
   11.0219    4.6052    0.0000 H   0  0  0  0  0  0  0  0  0  0  0  0
   10.1464    4.6526    0.0000 H   0  0  0  0  0  0  0  0  0  0  0  0
   10.0990    3.7771    0.0000 H   0  0  0  0  0  0  0  0  0  0  0  0
   12.6918    1.3516    0.0000 H   0  0  0  0  0  0  0  0  0  0  0  0
   13.1707    2.0861    0.0000 H   0  0  0  0  0  0  0  0  0  0  0  0
   12.4361    2.5649    0.0000 H   0  0  0  0  0  0  0  0  0  0  0  0
  1 18  2  0  0  0  0
  2 25  2  0  0  0  0
  3  4  1  1  0  0  0
  3  6  1  0  0  0  0
  3  8  1  0  0  0  0
  3 15  1  0  0  0  0
  4  5  1  0  0  0  0
  4  9  1  0  0  0  0
  4 32  1  0  0  0  0
  5  7  1  0  0  0  0
  5 14  1  0  0  0  0
  5 33  1  0  0  0  0
  6 11  1  0  0  0  0
  6 13  1  0  0  0  0
  6 34  1  0  0  0  0
  7 10  1  0  0  0  0
  7 35  1  0  0  0  0
  8 10  1  0  0  0  0
  8 36  1  0  0  0  0
  8 37  1  0  0  0  0
  9 11  1  0  0  0  0
  9 38  1  0  0  0  0
  9 39  1  0  0  0  0
 10 40  1  0  0  0  0
 10 41  1  0  0  0  0
 11 42  1  0  0  0  0
 11 43  1  0  0  0  0
 12  7  1  6  0  0  0
 12 16  1  0  0  0  0
 12 17  1  0  0  0  0
 12 19  1  0  0  0  0
 13 20  1  0  0  0  0
 13 21  1  0  0  0  0
 13 44  1  1  0  0  0
 14 18  1  0  0  0  0
 14 45  1  0  0  0  0
 14 46  1  0  0  0  0
 15 47  1  0  0  0  0
 15 48  1  0  0  0  0
 15 49  1  0  0  0  0
 16 18  1  0  0  0  0
 16 23  2  0  0  0  0
 17 22  1  0  0  0  0
 17 50  1  0  0  0  0
 17 51  1  0  0  0  0
 19 52  1  0  0  0  0
 19 53  1  0  0  0  0
 19 54  1  0  0  0  0
 20 24  1  0  0  0  0
 20 55  1  0  0  0  0
 20 56  1  0  0  0  0
 21 57  1  0  0  0  0
 21 58  1  0  0  0  0
 21 59  1  0  0  0  0
 22 25  1  0  0  0  0
 22 60  1  0  0  0  0
 22 61  1  0  0  0  0
 23 25  1  0  0  0  0
 23 62  1  0  0  0  0
 24 63  1  0  0  0  0
 24 64  1  0  0  0  0
 26 24  1  0  0  0  0
 26 27  1  0  0  0  0
 26 28  1  0  0  0  0
 26 65  1  1  0  0  0
 27 29  1  0  0  0  0
 27 30  1  0  0  0  0
 27 66  1  0  0  0  0
 28 31  1  0  0  0  0
 28 67  1  0  0  0  0
 28 68  1  0  0  0  0
 29 69  1  0  0  0  0
 29 70  1  0  0  0  0
 29 71  1  0  0  0  0
 30 72  1  0  0  0  0
 30 73  1  0  0  0  0
 30 74  1  0  0  0  0
 31 75  1  0  0  0  0
 31 76  1  0  0  0  0
 31 77  1  0  0  0  0
M  END
>  <PUBCHEM_COMPOUND_CID>
11743229

>  <PUBCHEM_COMPOUND_CANONICALIZED>
1

>  <PUBCHEM_CACTVS_COMPLEXITY>
748

>  <PUBCHEM_CACTVS_HBOND_ACCEPTOR>
2

>  <PUBCHEM_CACTVS_HBOND_DONOR>
0

>  <PUBCHEM_CACTVS_ROTATABLE_BOND>
6

>  <PUBCHEM_CACTVS_SUBSKEYS>
AAADcfB4MAAAAAAAAAAAAAAAAAAAAYAAAAAwYIAAAAAAAGDAAAAAGgAAAAAADwSAgAACAAAAAACIAqBSAAAAAAAgAAAACAEAAEgAABIAAAAAAAAAgAAIAYMIiMCPgAAAAAAAAACAAAQAACAAAQAACAAAAA==

>  <PUBCHEM_IUPAC_OPENEYE_NAME>
(10R,13R)-17-[(1R,4R)-4-ethyl-1,5-dimethyl-hexyl]-10,13-dimethyl-2,7,8,9,11,12,14,15,16,17-decahydro-1H-cyclopenta[a]phenanthrene-3,6-dione

>  <PUBCHEM_IUPAC_CAS_NAME>
(10R,13R)-17-[(2R,5R)-5-ethyl-6-methylheptan-2-yl]-10,13-dimethyl-2,7,8,9,11,12,14,15,16,17-decahydro-1H-cyclopenta[a]phenanthrene-3,6-dione

>  <PUBCHEM_IUPAC_NAME>
(10R,13R)-17-[(2R,5R)-5-ethyl-6-methylheptan-2-yl]-10,13-dimethyl-2,7,8,9,11,12,14,15,16,17-decahydro-1H-cyclopenta[a]phenanthrene-3,6-dione

>  <PUBCHEM_IUPAC_SYSTEMATIC_NAME>
(10R,13R)-17-[(2R,5R)-5-ethyl-6-methyl-heptan-2-yl]-10,13-dimethyl-2,7,8,9,11,12,14,15,16,17-decahydro-1H-cyclopenta[a]phenanthrene-3,6-dione

>  <PUBCHEM_IUPAC_TRADITIONAL_NAME>
(10R,13R)-17-[(1R,4R)-4-ethyl-1,5-dimethyl-hexyl]-10,13-dimethyl-2,7,8,9,11,12,14,15,16,17-decahydro-1H-cyclopenta[a]phenanthrene-3,6-quinone

>  <PUBCHEM_IUPAC_INCHI>
InChI=1S/C29H46O2/c1-7-20(18(2)3)9-8-19(4)23-10-11-24-22-17-27(31)26-16-21(30)12-14-29(26,6)25(22)13-15-28(23,24)5/h16,18-20,22-25H,7-15,17H2,1-6H3/t19-,20-,22?,23?,24?,25?,28-,29-/m1/s1

>  <PUBCHEM_IUPAC_INCHIKEY>
UVFOCYGYACXLAY-UQYXHCMHSA-N

>  <PUBCHEM_XLOGP3_AA>
8.4

>  <PUBCHEM_EXACT_MASS>
426.35

>  <PUBCHEM_MOLECULAR_FORMULA>
C29H46O2

>  <PUBCHEM_MOLECULAR_WEIGHT>
426.685

>  <PUBCHEM_OPENEYE_CAN_SMILES>
CCC(CCC(C)C1CCC2C1(CCC3C2CC(=O)C4=CC(=O)CCC34C)C)C(C)C

>  <PUBCHEM_OPENEYE_ISO_SMILES>
CC[C@H](CC[C@@H](C)C1CCC2[C@@]1(CCC3C2CC(=O)C4=CC(=O)CC[C@]34C)C)C(C)C

>  <PUBCHEM_CACTVS_TPSA>
34.1

>  <PUBCHEM_MONOISOTOPIC_WEIGHT>
426.35

>  <PUBCHEM_TOTAL_CHARGE>
0

>  <PUBCHEM_HEAVY_ATOM_COUNT>
31

>  <PUBCHEM_ATOM_DEF_STEREO_COUNT>
4

>  <PUBCHEM_ATOM_UDEF_STEREO_COUNT>
4

>  <PUBCHEM_BOND_DEF_STEREO_COUNT>
0

>  <PUBCHEM_BOND_UDEF_STEREO_COUNT>
0

>  <PUBCHEM_ISOTOPIC_ATOM_COUNT>
0

>  <PUBCHEM_COMPONENT_COUNT>
1

>  <PUBCHEM_CACTVS_TAUTO_COUNT>
34

>  <PUBCHEM_COORDINATE_TYPE>
1
5
255

>  <PUBCHEM_BONDANNOTATIONS>
12  19  5
13  21  6
26  24  6
3  15  5
4  32  3
5  33  3
6  34  3
7  35  3

$$$$
