11954881
 OpenBabel06101807152D

 24 25  0  0  0  0  0  0  0  0999 V2000
    4.9889   -1.8584    0.0000 O   0  0  0  0  0  0  0  0  0  0  0  0
    4.6783   -0.9078    0.0000 N   0  0  0  0  0  0  0  0  0  0  0  0
    6.9459    2.0646    0.0000 N   0  0  0  0  0  0  0  0  0  0  0  0
    3.7320    0.3969    0.0000 C   0  0  0  0  0  0  0  0  0  0  0  0
    3.7320   -0.6031    0.0000 C   0  0  0  0  0  0  0  0  0  0  0  0
    4.6783    0.7016    0.0000 C   0  0  0  0  0  0  0  0  0  0  0  0
    5.2619   -0.1031    0.0000 C   0  0  0  0  0  0  0  0  0  0  0  0
    2.8660    0.8969    0.0000 C   0  0  0  0  0  0  0  0  0  0  0  0
    2.8660   -1.1031    0.0000 C   0  0  0  0  0  0  0  0  0  0  0  0
    4.9889    1.6521    0.0000 C   0  0  0  0  0  0  0  0  0  0  0  0
    2.0000    0.3969    0.0000 C   0  0  0  0  0  0  0  0  0  0  0  0
    2.0000   -0.6031    0.0000 C   0  0  0  0  0  0  0  0  0  0  0  0
    5.9674   -2.0646    0.0000 C   0  0  0  0  0  0  0  0  0  0  0  0
    5.9674    1.8584    0.0000 C   0  0  0  0  0  0  0  0  0  0  0  0
    5.8819   -0.1031    0.0000 H   0  0  0  0  0  0  0  0  0  0  0  0
    2.8660    1.5169    0.0000 H   0  0  0  0  0  0  0  0  0  0  0  0
    4.9684    2.2718    0.0000 H   0  0  0  0  0  0  0  0  0  0  0  0
    4.3751    1.7395    0.0000 H   0  0  0  0  0  0  0  0  0  0  0  0
    2.8660   -1.7231    0.0000 H   0  0  0  0  0  0  0  0  0  0  0  0
    1.4631    0.7069    0.0000 H   0  0  0  0  0  0  0  0  0  0  0  0
    1.4631   -0.9131    0.0000 H   0  0  0  0  0  0  0  0  0  0  0  0
    5.8396   -2.6712    0.0000 H   0  0  0  0  0  0  0  0  0  0  0  0
    6.5741   -2.1924    0.0000 H   0  0  0  0  0  0  0  0  0  0  0  0
    6.0953   -1.4579    0.0000 H   0  0  0  0  0  0  0  0  0  0  0  0
  1  2  1  0  0  0  0
  1 13  1  0  0  0  0
  2  5  1  0  0  0  0
  2  7  1  0  0  0  0
  3 14  3  0  0  0  0
  4  5  1  0  0  0  0
  4  6  1  0  0  0  0
  4  8  2  0  0  0  0
  5  9  2  0  0  0  0
  6  7  2  0  0  0  0
  6 10  1  0  0  0  0
  7 15  1  0  0  0  0
  8 11  1  0  0  0  0
  8 16  1  0  0  0  0
  9 12  1  0  0  0  0
  9 19  1  0  0  0  0
 10 14  1  0  0  0  0
 10 17  1  0  0  0  0
 10 18  1  0  0  0  0
 11 12  2  0  0  0  0
 11 20  1  0  0  0  0
 12 21  1  0  0  0  0
 13 22  1  0  0  0  0
 13 23  1  0  0  0  0
 13 24  1  0  0  0  0
M  END
>  <PUBCHEM_COMPOUND_CID>
11954881

>  <PUBCHEM_COMPOUND_CANONICALIZED>
1

>  <PUBCHEM_CACTVS_COMPLEXITY>
245

>  <PUBCHEM_CACTVS_HBOND_ACCEPTOR>
2

>  <PUBCHEM_CACTVS_HBOND_DONOR>
0

>  <PUBCHEM_CACTVS_ROTATABLE_BOND>
2

>  <PUBCHEM_CACTVS_SUBSKEYS>
AAADccBzIAAAAAAAAAAAAAAAAAAAAWAAAAAwAAAAAAAAAFgB8AAAHgAEAAAADAjBHgY+wPIYEACwBzRnRACCgCAxAiAo2CA4ZJgIoOLAkZGEIAhggADIyA8QgMAOgAAAAAACAAAAAAAAAAQAAAAAAAAAAA==

>  <PUBCHEM_IUPAC_OPENEYE_NAME>
2-(1-methoxyindol-3-yl)acetonitrile

>  <PUBCHEM_IUPAC_CAS_NAME>
2-(1-methoxy-3-indolyl)acetonitrile

>  <PUBCHEM_IUPAC_NAME>
2-(1-methoxyindol-3-yl)acetonitrile

>  <PUBCHEM_IUPAC_SYSTEMATIC_NAME>
2-(1-methoxyindol-3-yl)ethanenitrile

>  <PUBCHEM_IUPAC_TRADITIONAL_NAME>
2-(1-methoxyindol-3-yl)acetonitrile

>  <PUBCHEM_IUPAC_INCHI>
InChI=1S/C11H10N2O/c1-14-13-8-9(6-7-12)10-4-2-3-5-11(10)13/h2-5,8H,6H2,1H3

>  <PUBCHEM_IUPAC_INCHIKEY>
LIJIPBYXIXTNLE-UHFFFAOYSA-N

>  <PUBCHEM_XLOGP3_AA>
2.1

>  <PUBCHEM_EXACT_MASS>
186.079

>  <PUBCHEM_MOLECULAR_FORMULA>
C11H10N2O

>  <PUBCHEM_MOLECULAR_WEIGHT>
186.214

>  <PUBCHEM_OPENEYE_CAN_SMILES>
CON1C=C(C2=CC=CC=C21)CC#N

>  <PUBCHEM_OPENEYE_ISO_SMILES>
CON1C=C(C2=CC=CC=C21)CC#N

>  <PUBCHEM_CACTVS_TPSA>
38

>  <PUBCHEM_MONOISOTOPIC_WEIGHT>
186.079

>  <PUBCHEM_TOTAL_CHARGE>
0

>  <PUBCHEM_HEAVY_ATOM_COUNT>
14

>  <PUBCHEM_ATOM_DEF_STEREO_COUNT>
0

>  <PUBCHEM_ATOM_UDEF_STEREO_COUNT>
0

>  <PUBCHEM_BOND_DEF_STEREO_COUNT>
0

>  <PUBCHEM_BOND_UDEF_STEREO_COUNT>
0

>  <PUBCHEM_ISOTOPIC_ATOM_COUNT>
0

>  <PUBCHEM_COMPONENT_COUNT>
1

>  <PUBCHEM_CACTVS_TAUTO_COUNT>
1

>  <PUBCHEM_COORDINATE_TYPE>
1
5
255

>  <PUBCHEM_BONDANNOTATIONS>
11  12  8
2  5  8
2  7  8
4  5  8
4  6  8
4  8  8
5  9  8
6  7  8
8  11  8
9  12  8

$$$$
