11972307
 OpenBabel06101807152D

 58 62  0  0  1  0  0  0  0  0999 V2000
    5.1350   -1.3501    0.0000 O   0  0  0  0  0  0  0  0  0  0  0  0
    6.8671   -1.3501    0.0000 O   0  0  0  0  0  0  0  0  0  0  0  0
    5.1350   -4.3501    0.0000 O   0  0  0  0  0  0  0  0  0  0  0  0
    3.4030   -3.3501    0.0000 O   0  0  0  0  0  0  0  0  0  0  0  0
    6.8671   -3.3501    0.0000 O   0  0  0  0  0  0  0  0  0  0  0  0
    2.5369   -1.8501    0.0000 O   0  0  0  0  0  0  0  0  0  0  0  0
    8.5359    0.7029    0.0000 O   0  3  0  0  0  0  0  0  0  0  0  0
    5.2572    1.8735    0.0000 O   0  0  0  0  0  0  0  0  0  0  0  0
    7.9467    4.1836    0.0000 O   0  0  0  0  0  0  0  0  0  0  0  0
    8.7954   -3.6482    0.0000 O   0  0  0  0  0  0  0  0  0  0  0  0
    3.3032    1.4934    0.0000 O   0  0  0  0  0  0  0  0  0  0  0  0
   10.7650   -3.3009    0.0000 O   0  0  0  0  0  0  0  0  0  0  0  0
    3.6376   -0.2060    0.0000 O   0  0  0  0  0  0  0  0  0  0  0  0
    5.1350   -3.3501    0.0000 C   0  0  1  0  0  0  0  0  0  0  0  0
    4.2690   -2.8501    0.0000 C   0  0  1  0  0  0  0  0  0  0  0  0
    6.0010   -2.8501    0.0000 C   0  0  2  0  0  0  0  0  0  0  0  0
    4.2690   -1.8501    0.0000 C   0  0  2  0  0  0  0  0  0  0  0  0
    6.0010   -1.8501    0.0000 C   0  0  2  0  0  0  0  0  0  0  0  0
    3.4030   -1.3501    0.0000 C   0  0  0  0  0  0  0  0  0  0  0  0
    7.2091   -0.4104    0.0000 C   0  0  0  0  0  0  0  0  0  0  0  0
    6.5663    0.3556    0.0000 C   0  0  0  0  0  0  0  0  0  0  0  0
    8.1939   -0.2368    0.0000 C   0  0  0  0  0  0  0  0  0  0  0  0
    6.9083    1.2953    0.0000 C   0  0  0  0  0  0  0  0  0  0  0  0
    7.8931    1.4690    0.0000 C   0  0  0  0  0  0  0  0  0  0  0  0
    6.2265    2.0828    0.0000 C   0  0  0  0  0  0  0  0  0  0  0  0
    5.5899    0.1822    0.0000 C   0  0  0  0  0  0  0  0  0  0  0  0
    8.8367   -1.0028    0.0000 C   0  0  0  0  0  0  0  0  0  0  0  0
    8.2644    2.4422    0.0000 C   0  0  0  0  0  0  0  0  0  0  0  0
    4.9422    0.9332    0.0000 C   0  0  0  0  0  0  0  0  0  0  0  0
    6.5752    3.0644    0.0000 C   0  0  0  0  0  0  0  0  0  0  0  0
    7.6010    3.2452    0.0000 C   0  0  0  0  0  0  0  0  0  0  0  0
    8.4947   -1.9425    0.0000 C   0  0  0  0  0  0  0  0  0  0  0  0
    9.8215   -0.8292    0.0000 C   0  0  0  0  0  0  0  0  0  0  0  0
    9.1374   -2.7085    0.0000 C   0  0  0  0  0  0  0  0  0  0  0  0
   10.4643   -1.5952    0.0000 C   0  0  0  0  0  0  0  0  0  0  0  0
    3.9610    0.7402    0.0000 C   0  0  0  0  0  0  0  0  0  0  0  0
   10.1223   -2.5349    0.0000 C   0  0  0  0  0  0  0  0  0  0  0  0
    5.6720   -3.6601    0.0000 H   0  0  0  0  0  0  0  0  0  0  0  0
    4.2690   -3.4701    0.0000 H   0  0  0  0  0  0  0  0  0  0  0  0
    6.5380   -2.5401    0.0000 H   0  0  0  0  0  0  0  0  0  0  0  0
    4.2690   -1.2301    0.0000 H   0  0  0  0  0  0  0  0  0  0  0  0
    6.0010   -1.2301    0.0000 H   0  0  0  0  0  0  0  0  0  0  0  0
    3.8015   -0.8752    0.0000 H   0  0  0  0  0  0  0  0  0  0  0  0
    3.0044   -0.8752    0.0000 H   0  0  0  0  0  0  0  0  0  0  0  0
    4.5981   -4.6601    0.0000 H   0  0  0  0  0  0  0  0  0  0  0  0
    3.4030   -3.9701    0.0000 H   0  0  0  0  0  0  0  0  0  0  0  0
    6.8671   -3.9701    0.0000 H   0  0  0  0  0  0  0  0  0  0  0  0
    2.0000   -1.5401    0.0000 H   0  0  0  0  0  0  0  0  0  0  0  0
    5.3821   -0.4020    0.0000 H   0  0  0  0  0  0  0  0  0  0  0  0
    8.8762    2.5428    0.0000 H   0  0  0  0  0  0  0  0  0  0  0  0
    6.1749    3.5378    0.0000 H   0  0  0  0  0  0  0  0  0  0  0  0
    7.8841   -2.0502    0.0000 H   0  0  0  0  0  0  0  0  0  0  0  0
   10.0335   -0.2465    0.0000 H   0  0  0  0  0  0  0  0  0  0  0  0
   11.0749   -1.4875    0.0000 H   0  0  0  0  0  0  0  0  0  0  0  0
    7.5500    4.6601    0.0000 H   0  0  0  0  0  0  0  0  0  0  0  0
    8.1848   -3.7559    0.0000 H   0  0  0  0  0  0  0  0  0  0  0  0
    2.6949    1.3738    0.0000 H   0  0  0  0  0  0  0  0  0  0  0  0
   10.5530   -3.8836    0.0000 H   0  0  0  0  0  0  0  0  0  0  0  0
  1 17  1  0  0  0  0
  1 18  1  0  0  0  0
  2 20  1  0  0  0  0
  3 45  1  0  0  0  0
  4 46  1  0  0  0  0
  5 47  1  0  0  0  0
  6 19  1  0  0  0  0
  6 48  1  0  0  0  0
  7 22  2  0  0  0  0
  7 24  1  0  0  0  0
  8 25  1  0  0  0  0
  8 29  1  0  0  0  0
  9 31  1  0  0  0  0
  9 55  1  0  0  0  0
 10 34  1  0  0  0  0
 10 56  1  0  0  0  0
 11 36  1  0  0  0  0
 11 57  1  0  0  0  0
 12 37  1  0  0  0  0
 12 58  1  0  0  0  0
 13 36  2  0  0  0  0
 14  3  1  0  0  0  0
 14 15  1  6  0  0  0
 14 38  1  0  0  0  0
 15  4  1  0  0  0  0
 15 17  1  1  0  0  0
 15 39  1  0  0  0  0
 16  5  1  0  0  0  0
 16 14  1  1  0  0  0
 16 40  1  0  0  0  0
 17 19  1  0  0  0  0
 17 41  1  1  0  0  0
 18  2  1  0  0  0  0
 18 16  1  1  0  0  0
 18 42  1  0  0  0  0
 19 43  1  0  0  0  0
 19 44  1  0  0  0  0
 20 21  2  0  0  0  0
 20 22  1  0  0  0  0
 21 23  1  0  0  0  0
 21 26  1  0  0  0  0
 22 27  1  0  0  0  0
 23 24  1  0  0  0  0
 23 25  2  0  0  0  0
 24 28  2  0  0  0  0
 25 30  1  0  0  0  0
 26 29  2  0  0  0  0
 26 49  1  0  0  0  0
 27 32  2  0  0  0  0
 27 33  1  0  0  0  0
 28 31  1  0  0  0  0
 28 50  1  0  0  0  0
 29 36  1  0  0  0  0
 30 31  2  0  0  0  0
 30 51  1  0  0  0  0
 32 34  1  0  0  0  0
 32 52  1  0  0  0  0
 33 35  2  0  0  0  0
 33 53  1  0  0  0  0
 34 37  2  0  0  0  0
 35 37  1  0  0  0  0
 35 54  1  0  0  0  0
M  CHG  1   7   1
M  END
>  <PUBCHEM_COMPOUND_CID>
11972307

>  <PUBCHEM_COMPOUND_CANONICALIZED>
1

>  <PUBCHEM_CACTVS_COMPLEXITY>
868

>  <PUBCHEM_CACTVS_HBOND_ACCEPTOR>
12

>  <PUBCHEM_CACTVS_HBOND_DONOR>
8

>  <PUBCHEM_CACTVS_ROTATABLE_BOND>
5

>  <PUBCHEM_CACTVS_SUBSKEYS>
AAADceB4PAAAAAAAAAAAAAAAAAAAAAAAAAA0aIECAAAAAACR9AAAGgAACAAADBSwmAMwDsAABkCIAqDSCAICCAAkIAAIiAFGiMgdNzaGNR6ieWOl4BUPuYfK7PzOoAABCAAIQABAAAIQABCAAAAAAAAAAA==

>  <PUBCHEM_IUPAC_INCHI>
InChI=1S/C24H20O13/c25-7-16-18(29)19(30)20(31)24(36-16)37-22-10-6-15(23(32)33)34-13-4-9(26)5-14(17(10)13)35-21(22)8-1-2-11(27)12(28)3-8/h1-6,16,18-20,24-25,29-31H,7H2,(H3-,26,27,28,32,33)/p+1/t16-,18+,19-,20+,24+/m0/s1

>  <PUBCHEM_IUPAC_INCHIKEY>
DTHNDBFHAFORNZ-AYQBYMDZSA-O

>  <PUBCHEM_EXACT_MASS>
517.098

>  <PUBCHEM_MOLECULAR_FORMULA>
C24H21O13+

>  <PUBCHEM_MOLECULAR_WEIGHT>
517.419

>  <PUBCHEM_OPENEYE_CAN_SMILES>
C1=CC(=C(C=C1C2=[O+]C3=CC(=CC4=C3C(=C2OC5C(C(C(C(O5)CO)O)O)O)C=C(O4)C(=O)O)O)O)O

>  <PUBCHEM_OPENEYE_ISO_SMILES>
C1=CC(=C(C=C1C2=[O+]C3=CC(=CC4=C3C(=C2O[C@@H]5[C@@H]([C@H]([C@@H]([C@@H](O5)CO)O)O)O)C=C(O4)C(=O)O)O)O)O

>  <PUBCHEM_CACTVS_TPSA>
208

>  <PUBCHEM_MONOISOTOPIC_WEIGHT>
517.098

>  <PUBCHEM_TOTAL_CHARGE>
1

>  <PUBCHEM_HEAVY_ATOM_COUNT>
37

>  <PUBCHEM_ATOM_DEF_STEREO_COUNT>
5

>  <PUBCHEM_ATOM_UDEF_STEREO_COUNT>
0

>  <PUBCHEM_BOND_DEF_STEREO_COUNT>
0

>  <PUBCHEM_BOND_UDEF_STEREO_COUNT>
0

>  <PUBCHEM_ISOTOPIC_ATOM_COUNT>
0

>  <PUBCHEM_COMPONENT_COUNT>
1

>  <PUBCHEM_CACTVS_TAUTO_COUNT>
103

>  <PUBCHEM_COORDINATE_TYPE>
1
5
255

>  <PUBCHEM_BONDANNOTATIONS>
17  19  6
18  2  6
20  21  8
20  22  8
21  23  8
23  24  8
23  25  8
24  28  8
25  30  8
27  32  8
27  33  8
28  31  8
14  3  5
30  31  8
32  34  8
33  35  8
34  37  8
35  37  8
15  4  6
16  5  6
7  22  8
7  24  8

$$$$
