11972332
 OpenBabel06101807152D

 83 87  0  0  1  0  0  0  0  0999 V2000
    8.5991   -1.6383    0.0000 O   0  0  0  0  0  0  0  0  0  0  0  0
    6.8116    2.3485    0.0000 O   0  0  0  0  0  0  0  0  0  0  0  0
   10.3312   -1.6383    0.0000 O   0  0  0  0  0  0  0  0  0  0  0  0
    7.6950    0.8586    0.0000 O   0  0  0  0  0  0  0  0  0  0  0  0
    6.8671   -3.6383    0.0000 O   0  0  0  0  0  0  0  0  0  0  0  0
    8.5991   -4.6383    0.0000 O   0  0  0  0  0  0  0  0  0  0  0  0
   10.3312   -3.6383    0.0000 O   0  0  0  0  0  0  0  0  0  0  0  0
    4.2311    0.8185    0.0000 O   0  0  0  0  0  0  0  0  0  0  0  0
    4.2080    2.8184    0.0000 O   0  0  0  0  0  0  0  0  0  0  0  0
    5.9746   -0.1614    0.0000 O   0  0  0  0  0  0  0  0  0  0  0  0
    6.0010   -2.1383    0.0000 O   0  0  0  0  0  0  0  0  0  0  0  0
    5.0566    4.3283    0.0000 O   0  0  0  0  0  0  0  0  0  0  0  0
   11.1972    0.8617    0.0000 O   0  3  0  0  0  0  0  0  0  0  0  0
    9.4530    3.9310    0.0000 O   0  0  0  0  0  0  0  0  0  0  0  0
    5.1350   -0.6383    0.0000 O   0  0  0  0  0  0  0  0  0  0  0  0
   14.6613   -0.1383    0.0000 O   0  0  0  0  0  0  0  0  0  0  0  0
   12.9292   -3.1383    0.0000 O   0  0  0  0  0  0  0  0  0  0  0  0
   14.6613   -2.1383    0.0000 O   0  0  0  0  0  0  0  0  0  0  0  0
    2.5369   -2.1383    0.0000 O   0  0  0  0  0  0  0  0  0  0  0  0
    3.4030   -0.6383    0.0000 O   0  0  0  0  0  0  0  0  0  0  0  0
    7.7331   -3.1383    0.0000 C   0  0  1  0  0  0  0  0  0  0  0  0
    8.5991   -3.6383    0.0000 C   0  0  1  0  0  0  0  0  0  0  0  0
    7.7331   -2.1383    0.0000 C   0  0  1  0  0  0  0  0  0  0  0  0
    9.4651   -3.1383    0.0000 C   0  0  2  0  0  0  0  0  0  0  0  0
    5.0913    1.3285    0.0000 C   0  0  1  0  0  0  0  0  0  0  0  0
    5.0797    2.3284    0.0000 C   0  0  1  0  0  0  0  0  0  0  0  0
    5.9630    0.8386    0.0000 C   0  0  2  0  0  0  0  0  0  0  0  0
    5.9399    2.8384    0.0000 C   0  0  1  0  0  0  0  0  0  0  0  0
    9.4651   -2.1383    0.0000 C   0  0  1  0  0  0  0  0  0  0  0  0
    6.8232    1.3485    0.0000 C   0  0  1  0  0  0  0  0  0  0  0  0
    6.8671   -1.6383    0.0000 C   0  0  0  0  0  0  0  0  0  0  0  0
    5.9283    3.8384    0.0000 C   0  0  0  0  0  0  0  0  0  0  0  0
   10.3312   -0.6383    0.0000 C   0  0  0  0  0  0  0  0  0  0  0  0
    8.5551    1.3686    0.0000 C   0  0  0  0  0  0  0  0  0  0  0  0
    9.4651    0.8617    0.0000 C   0  0  0  0  0  0  0  0  0  0  0  0
    9.4651   -0.1383    0.0000 C   0  0  0  0  0  0  0  0  0  0  0  0
   11.1972   -0.1383    0.0000 C   0  0  0  0  0  0  0  0  0  0  0  0
   10.3312    1.3617    0.0000 C   0  0  0  0  0  0  0  0  0  0  0  0
    8.5471    2.4102    0.0000 C   0  0  0  0  0  0  0  0  0  0  0  0
   10.3472    2.4032    0.0000 C   0  0  0  0  0  0  0  0  0  0  0  0
    9.4492    2.9310    0.0000 C   0  0  0  0  0  0  0  0  0  0  0  0
   12.0632   -0.6383    0.0000 C   0  0  0  0  0  0  0  0  0  0  0  0
    5.1350   -1.6383    0.0000 C   0  0  0  0  0  0  0  0  0  0  0  0
    4.2690   -2.1383    0.0000 C   0  0  0  0  0  0  0  0  0  0  0  0
   12.0632   -1.6383    0.0000 C   0  0  0  0  0  0  0  0  0  0  0  0
   12.9292   -0.1383    0.0000 C   0  0  0  0  0  0  0  0  0  0  0  0
   13.7953   -0.6383    0.0000 C   0  0  0  0  0  0  0  0  0  0  0  0
   12.9292   -2.1383    0.0000 C   0  0  0  0  0  0  0  0  0  0  0  0
   13.7953   -1.6383    0.0000 C   0  0  0  0  0  0  0  0  0  0  0  0
    3.4030   -1.6383    0.0000 C   0  0  0  0  0  0  0  0  0  0  0  0
    7.7331   -3.7583    0.0000 H   0  0  0  0  0  0  0  0  0  0  0  0
    9.1360   -3.9483    0.0000 H   0  0  0  0  0  0  0  0  0  0  0  0
    7.7331   -1.5183    0.0000 H   0  0  0  0  0  0  0  0  0  0  0  0
   10.0021   -2.8283    0.0000 H   0  0  0  0  0  0  0  0  0  0  0  0
    4.5508    1.6323    0.0000 H   0  0  0  0  0  0  0  0  0  0  0  0
    5.0725    2.9484    0.0000 H   0  0  0  0  0  0  0  0  0  0  0  0
    6.5035    0.5348    0.0000 H   0  0  0  0  0  0  0  0  0  0  0  0
    6.4732    3.1546    0.0000 H   0  0  0  0  0  0  0  0  0  0  0  0
    9.4651   -1.5183    0.0000 H   0  0  0  0  0  0  0  0  0  0  0  0
    7.3565    1.6647    0.0000 H   0  0  0  0  0  0  0  0  0  0  0  0
    7.2656   -1.1633    0.0000 H   0  0  0  0  0  0  0  0  0  0  0  0
    6.4685   -1.1633    0.0000 H   0  0  0  0  0  0  0  0  0  0  0  0
    6.5401    3.7378    0.0000 H   0  0  0  0  0  0  0  0  0  0  0  0
    6.1336    4.4234    0.0000 H   0  0  0  0  0  0  0  0  0  0  0  0
    6.8671   -4.2583    0.0000 H   0  0  0  0  0  0  0  0  0  0  0  0
    8.0622   -4.9483    0.0000 H   0  0  0  0  0  0  0  0  0  0  0  0
   10.3312   -4.2583    0.0000 H   0  0  0  0  0  0  0  0  0  0  0  0
    3.6906    1.1223    0.0000 H   0  0  0  0  0  0  0  0  0  0  0  0
    3.6746    2.5022    0.0000 H   0  0  0  0  0  0  0  0  0  0  0  0
    6.5151   -0.4651    0.0000 H   0  0  0  0  0  0  0  0  0  0  0  0
    8.9282   -0.4483    0.0000 H   0  0  0  0  0  0  0  0  0  0  0  0
    5.0494    4.9483    0.0000 H   0  0  0  0  0  0  0  0  0  0  0  0
    8.0090    2.7181    0.0000 H   0  0  0  0  0  0  0  0  0  0  0  0
   10.8877    2.7070    0.0000 H   0  0  0  0  0  0  0  0  0  0  0  0
    3.8705   -2.6132    0.0000 H   0  0  0  0  0  0  0  0  0  0  0  0
    4.6675   -2.6132    0.0000 H   0  0  0  0  0  0  0  0  0  0  0  0
   11.5263   -1.9483    0.0000 H   0  0  0  0  0  0  0  0  0  0  0  0
   12.9292    0.4817    0.0000 H   0  0  0  0  0  0  0  0  0  0  0  0
    9.9912    4.2389    0.0000 H   0  0  0  0  0  0  0  0  0  0  0  0
   14.6613    0.4817    0.0000 H   0  0  0  0  0  0  0  0  0  0  0  0
   13.4662   -3.4483    0.0000 H   0  0  0  0  0  0  0  0  0  0  0  0
   15.1982   -1.8283    0.0000 H   0  0  0  0  0  0  0  0  0  0  0  0
    2.0000   -1.8283    0.0000 H   0  0  0  0  0  0  0  0  0  0  0  0
  1 23  1  0  0  0  0
  1 29  1  0  0  0  0
  2 28  1  0  0  0  0
  2 30  1  0  0  0  0
  3 33  1  0  0  0  0
  4 34  1  0  0  0  0
  5 65  1  0  0  0  0
  6 66  1  0  0  0  0
  7 67  1  0  0  0  0
  8 68  1  0  0  0  0
  9 69  1  0  0  0  0
 10 70  1  0  0  0  0
 11 31  1  0  0  0  0
 11 43  1  0  0  0  0
 12 32  1  0  0  0  0
 12 72  1  0  0  0  0
 13 37  1  0  0  0  0
 13 38  2  0  0  0  0
 14 41  1  0  0  0  0
 14 79  1  0  0  0  0
 15 43  2  0  0  0  0
 16 47  1  0  0  0  0
 16 80  1  0  0  0  0
 17 48  1  0  0  0  0
 17 81  1  0  0  0  0
 18 49  1  0  0  0  0
 18 82  1  0  0  0  0
 19 50  1  0  0  0  0
 19 83  1  0  0  0  0
 20 50  2  0  0  0  0
 21  5  1  0  0  0  0
 21 22  1  6  0  0  0
 21 51  1  0  0  0  0
 22  6  1  0  0  0  0
 22 24  1  1  0  0  0
 22 52  1  0  0  0  0
 23 21  1  6  0  0  0
 23 31  1  0  0  0  0
 23 53  1  0  0  0  0
 24  7  1  0  0  0  0
 24 29  1  6  0  0  0
 24 54  1  0  0  0  0
 25  8  1  0  0  0  0
 25 26  1  1  0  0  0
 25 55  1  0  0  0  0
 26  9  1  0  0  0  0
 26 28  1  6  0  0  0
 26 56  1  0  0  0  0
 27 10  1  0  0  0  0
 27 25  1  1  0  0  0
 27 57  1  0  0  0  0
 28 32  1  0  0  0  0
 28 58  1  6  0  0  0
 29  3  1  0  0  0  0
 29 59  1  6  0  0  0
 30  4  1  0  0  0  0
 30 27  1  6  0  0  0
 30 60  1  0  0  0  0
 31 61  1  0  0  0  0
 31 62  1  0  0  0  0
 32 63  1  0  0  0  0
 32 64  1  0  0  0  0
 33 36  1  0  0  0  0
 33 37  2  0  0  0  0
 34 35  1  0  0  0  0
 34 39  2  0  0  0  0
 35 36  2  0  0  0  0
 35 38  1  0  0  0  0
 36 71  1  0  0  0  0
 37 42  1  0  0  0  0
 38 40  1  0  0  0  0
 39 41  1  0  0  0  0
 39 73  1  0  0  0  0
 40 41  2  0  0  0  0
 40 74  1  0  0  0  0
 42 45  2  0  0  0  0
 42 46  1  0  0  0  0
 43 44  1  0  0  0  0
 44 50  1  0  0  0  0
 44 75  1  0  0  0  0
 44 76  1  0  0  0  0
 45 48  1  0  0  0  0
 45 77  1  0  0  0  0
 46 47  2  0  0  0  0
 46 78  1  0  0  0  0
 47 49  1  0  0  0  0
 48 49  2  0  0  0  0
M  CHG  1  13   1
M  END
>  <PUBCHEM_COMPOUND_CID>
11972332

>  <PUBCHEM_COMPOUND_CANONICALIZED>
1

>  <PUBCHEM_CACTVS_COMPLEXITY>
1130

>  <PUBCHEM_CACTVS_HBOND_ACCEPTOR>
19

>  <PUBCHEM_CACTVS_HBOND_DONOR>
12

>  <PUBCHEM_CACTVS_ROTATABLE_BOND>
11

>  <PUBCHEM_CACTVS_SUBSKEYS>
AAADcfB4PgAAAAAAAAAAAAAAAAAAAAAAAAA0aJECAAAAAACR9AAAGgAACAAADBSwmAMwDsAABkCIAqDSCAICCAAkIAAAiAFGiMgdNzaONR6ieWOl4BUPuYfK7PzOIAABCAAIQABAAAIQABCAAAAAAAAAAA==

>  <PUBCHEM_IUPAC_OPENEYE_NAME>
3-oxo-3-[[(2R,3S,4S,5R,6S)-3,4,5-trihydroxy-6-[7-hydroxy-5-[(2S,3R,4S,5S,6R)-3,4,5-trihydroxy-6-(hydroxymethyl)tetrahydropyran-2-yl]oxy-2-(3,4,5-trihydroxyphenyl)chromenylium-3-yl]oxy-tetrahydropyran-2-yl]methoxy]propanoic acid

>  <PUBCHEM_IUPAC_CAS_NAME>
3-oxo-3-[[(2R,3S,4S,5R,6S)-3,4,5-trihydroxy-6-[[7-hydroxy-5-[[(2S,3R,4S,5S,6R)-3,4,5-trihydroxy-6-(hydroxymethyl)-2-oxanyl]oxy]-2-(3,4,5-trihydroxyphenyl)-1-benzopyrylium-3-yl]oxy]-2-oxanyl]methoxy]propanoic acid

>  <PUBCHEM_IUPAC_NAME>
3-oxo-3-[[(2R,3S,4S,5R,6S)-3,4,5-trihydroxy-6-[7-hydroxy-5-[(2S,3R,4S,5S,6R)-3,4,5-trihydroxy-6-(hydroxymethyl)oxan-2-yl]oxy-2-(3,4,5-trihydroxyphenyl)chromenylium-3-yl]oxyoxan-2-yl]methoxy]propanoic acid

>  <PUBCHEM_IUPAC_SYSTEMATIC_NAME>
3-[[(2R,3S,4S,5R,6S)-6-[5-[(2S,3R,4S,5S,6R)-6-(hydroxymethyl)-3,4,5-tris(oxidanyl)oxan-2-yl]oxy-7-oxidanyl-2-[3,4,5-tris(oxidanyl)phenyl]chromenylium-3-yl]oxy-3,4,5-tris(oxidanyl)oxan-2-yl]methoxy]-3-oxidanylidene-propanoic acid

>  <PUBCHEM_IUPAC_TRADITIONAL_NAME>
3-keto-3-[[(2R,3S,4S,5R,6S)-3,4,5-trihydroxy-6-[[7-hydroxy-5-[(2S,3R,4S,5S,6R)-3,4,5-trihydroxy-6-methylol-tetrahydropyran-2-yl]oxy-2-(3,4,5-trihydroxyphenyl)-1-benzopyrylium-3-yl]oxy]tetrahydropyran-2-yl]methoxy]propionic acid

>  <PUBCHEM_IUPAC_INCHI>
InChI=1S/C30H32O20/c31-7-17-22(39)24(41)26(43)29(49-17)47-15-4-10(32)3-14-11(15)5-16(28(46-14)9-1-12(33)21(38)13(34)2-9)48-30-27(44)25(42)23(40)18(50-30)8-45-20(37)6-19(35)36/h1-5,17-18,22-27,29-31,39-44H,6-8H2,(H4-,32,33,34,35,36,38)/p+1/t17-,18-,22-,23-,24+,25+,26-,27-,29-,30-/m1/s1

>  <PUBCHEM_IUPAC_INCHIKEY>
KKMPMQKPBOCHRG-YEQKKNNOSA-O

>  <PUBCHEM_EXACT_MASS>
713.157

>  <PUBCHEM_MOLECULAR_FORMULA>
C30H33O20+

>  <PUBCHEM_MOLECULAR_WEIGHT>
713.574

>  <PUBCHEM_OPENEYE_CAN_SMILES>
C1=C(C=C(C(=C1O)O)O)C2=C(C=C3C(=CC(=CC3=[O+]2)O)OC4C(C(C(C(O4)CO)O)O)O)OC5C(C(C(C(O5)COC(=O)CC(=O)O)O)O)O

>  <PUBCHEM_OPENEYE_ISO_SMILES>
C1=C(C=C(C(=C1O)O)O)C2=C(C=C3C(=CC(=CC3=[O+]2)O)O[C@H]4[C@@H]([C@H]([C@@H]([C@H](O4)CO)O)O)O)O[C@H]5[C@@H]([C@H]([C@@H]([C@H](O5)COC(=O)CC(=O)O)O)O)O

>  <PUBCHEM_CACTVS_TPSA>
324

>  <PUBCHEM_MONOISOTOPIC_WEIGHT>
713.157

>  <PUBCHEM_TOTAL_CHARGE>
1

>  <PUBCHEM_HEAVY_ATOM_COUNT>
50

>  <PUBCHEM_ATOM_DEF_STEREO_COUNT>
10

>  <PUBCHEM_ATOM_UDEF_STEREO_COUNT>
0

>  <PUBCHEM_BOND_DEF_STEREO_COUNT>
0

>  <PUBCHEM_BOND_UDEF_STEREO_COUNT>
0

>  <PUBCHEM_ISOTOPIC_ATOM_COUNT>
0

>  <PUBCHEM_COMPONENT_COUNT>
1

>  <PUBCHEM_CACTVS_TAUTO_COUNT>
100

>  <PUBCHEM_COORDINATE_TYPE>
1
5
255

>  <PUBCHEM_BONDANNOTATIONS>
27  10  6
13  37  8
13  38  8
23  31  5
28  32  5
29  3  5
33  36  8
33  37  8
34  35  8
34  39  8
35  36  8
35  38  8
38  40  8
39  41  8
30  4  5
40  41  8
42  45  8
42  46  8
45  48  8
46  47  8
47  49  8
48  49  8
21  5  6
22  6  5
24  7  6
25  8  5
26  9  6

$$$$
