11972318
 OpenBabel06101807152D

 76 78  0  0  1  0  0  0  0  0999 V2000
    5.1350   -3.5000    0.0000 O   0  0  0  0  0  0  0  0  0  0  0  0
    6.8671   -3.5000    0.0000 O   0  0  0  0  0  0  0  0  0  0  0  0
    5.1350   -6.5000    0.0000 O   0  0  0  0  0  0  0  0  0  0  0  0
    3.4030   -5.5000    0.0000 O   0  0  0  0  0  0  0  0  0  0  0  0
    6.8671   -5.5000    0.0000 O   0  0  0  0  0  0  0  0  0  0  0  0
    2.5369   -4.0000    0.0000 O   0  0  0  0  0  0  0  0  0  0  0  0
    5.1350   -2.5000    0.0000 O   0  0  0  0  0  0  0  0  0  0  0  0
    7.7331    2.0000    0.0000 O   0  0  0  0  0  0  0  0  0  0  0  0
    6.0010    1.0000    0.0000 O   0  0  0  0  0  0  0  0  0  0  0  0
    8.5991   -0.5000    0.0000 O   0  0  0  0  0  0  0  0  0  0  0  0
    9.4651    1.0000    0.0000 O   0  0  0  0  0  0  0  0  0  0  0  0
    7.7331    4.0000    0.0000 O   0  0  0  0  0  0  0  0  0  0  0  0
   12.0632    6.5000    0.0000 O   0  0  0  0  0  0  0  0  0  0  0  0
    5.1350   -5.5000    0.0000 C   0  0  1  0  0  0  0  0  0  0  0  0
    4.2690   -5.0000    0.0000 C   0  0  1  0  0  0  0  0  0  0  0  0
    6.0010   -5.0000    0.0000 C   0  0  2  0  0  0  0  0  0  0  0  0
    4.2690   -4.0000    0.0000 C   0  0  1  0  0  0  0  0  0  0  0  0
    6.0010   -4.0000    0.0000 C   0  0  1  0  0  0  0  0  0  0  0  0
    3.4030   -3.5000    0.0000 C   0  0  0  0  0  0  0  0  0  0  0  0
    6.8671   -2.5000    0.0000 C   0  0  0  0  0  0  0  0  0  0  0  0
    6.0010   -2.0000    0.0000 C   0  0  0  0  0  0  0  0  0  0  0  0
    6.8671    0.5000    0.0000 C   0  0  3  0  0  0  0  0  0  0  0  0
    6.8671   -0.5000    0.0000 C   0  0  0  0  0  0  0  0  0  0  0  0
    7.7331   -2.0000    0.0000 C   0  0  0  0  0  0  0  0  0  0  0  0
    7.7331    1.0000    0.0000 C   0  0  3  0  0  0  0  0  0  0  0  0
    6.0010   -1.0000    0.0000 C   0  0  0  0  0  0  0  0  0  0  0  0
    7.7331   -1.0000    0.0000 C   0  0  0  0  0  0  0  0  0  0  0  0
    8.5991    0.5000    0.0000 C   0  0  0  0  0  0  0  0  0  0  0  0
    8.5991    2.5000    0.0000 C   0  0  0  0  0  0  0  0  0  0  0  0
    4.2690   -2.0000    0.0000 C   0  0  0  0  0  0  0  0  0  0  0  0
    9.4651    2.0000    0.0000 C   0  0  0  0  0  0  0  0  0  0  0  0
    8.5991    3.5000    0.0000 C   0  0  0  0  0  0  0  0  0  0  0  0
   10.3312    2.5000    0.0000 C   0  0  0  0  0  0  0  0  0  0  0  0
    9.4651    4.0000    0.0000 C   0  0  0  0  0  0  0  0  0  0  0  0
   10.3312    3.5000    0.0000 C   0  0  0  0  0  0  0  0  0  0  0  0
   11.1972    4.0000    0.0000 C   0  0  0  0  0  0  0  0  0  0  0  0
   10.3312    0.5000    0.0000 C   0  0  0  0  0  0  0  0  0  0  0  0
    7.7331    5.0000    0.0000 C   0  0  0  0  0  0  0  0  0  0  0  0
   11.1972    5.0000    0.0000 C   0  0  0  0  0  0  0  0  0  0  0  0
   12.0632    5.5000    0.0000 C   0  0  0  0  0  0  0  0  0  0  0  0
    5.6720   -5.8100    0.0000 H   0  0  0  0  0  0  0  0  0  0  0  0
    4.2690   -5.6200    0.0000 H   0  0  0  0  0  0  0  0  0  0  0  0
    6.5380   -4.6900    0.0000 H   0  0  0  0  0  0  0  0  0  0  0  0
    4.2690   -3.3800    0.0000 H   0  0  0  0  0  0  0  0  0  0  0  0
    6.0010   -3.3800    0.0000 H   0  0  0  0  0  0  0  0  0  0  0  0
    3.8015   -3.0250    0.0000 H   0  0  0  0  0  0  0  0  0  0  0  0
    3.0044   -3.0250    0.0000 H   0  0  0  0  0  0  0  0  0  0  0  0
    5.6720   -6.8100    0.0000 H   0  0  0  0  0  0  0  0  0  0  0  0
    3.4030   -6.1200    0.0000 H   0  0  0  0  0  0  0  0  0  0  0  0
    7.4040   -5.1900    0.0000 H   0  0  0  0  0  0  0  0  0  0  0  0
    2.0000   -3.6900    0.0000 H   0  0  0  0  0  0  0  0  0  0  0  0
    6.3301    0.1900    0.0000 H   0  0  0  0  0  0  0  0  0  0  0  0
    8.2700   -2.3100    0.0000 H   0  0  0  0  0  0  0  0  0  0  0  0
    7.1962    1.3100    0.0000 H   0  0  0  0  0  0  0  0  0  0  0  0
    5.4641   -0.6900    0.0000 H   0  0  0  0  0  0  0  0  0  0  0  0
    8.2700   -0.6900    0.0000 H   0  0  0  0  0  0  0  0  0  0  0  0
    9.2097    0.3923    0.0000 H   0  0  0  0  0  0  0  0  0  0  0  0
    8.8112    1.0826    0.0000 H   0  0  0  0  0  0  0  0  0  0  0  0
    6.0010    1.6200    0.0000 H   0  0  0  0  0  0  0  0  0  0  0  0
    4.5790   -1.4631    0.0000 H   0  0  0  0  0  0  0  0  0  0  0  0
    3.7320   -1.6900    0.0000 H   0  0  0  0  0  0  0  0  0  0  0  0
    3.9590   -2.5369    0.0000 H   0  0  0  0  0  0  0  0  0  0  0  0
    9.1360   -0.8100    0.0000 H   0  0  0  0  0  0  0  0  0  0  0  0
   10.8681    2.1900    0.0000 H   0  0  0  0  0  0  0  0  0  0  0  0
    9.4651    4.6200    0.0000 H   0  0  0  0  0  0  0  0  0  0  0  0
   11.7341    3.6900    0.0000 H   0  0  0  0  0  0  0  0  0  0  0  0
   10.0212   -0.0369    0.0000 H   0  0  0  0  0  0  0  0  0  0  0  0
   10.8681    0.1900    0.0000 H   0  0  0  0  0  0  0  0  0  0  0  0
   10.6412    1.0369    0.0000 H   0  0  0  0  0  0  0  0  0  0  0  0
    8.3531    5.0000    0.0000 H   0  0  0  0  0  0  0  0  0  0  0  0
    7.7331    5.6200    0.0000 H   0  0  0  0  0  0  0  0  0  0  0  0
    7.1131    5.0000    0.0000 H   0  0  0  0  0  0  0  0  0  0  0  0
   10.6603    5.3100    0.0000 H   0  0  0  0  0  0  0  0  0  0  0  0
   12.2753    4.9174    0.0000 H   0  0  0  0  0  0  0  0  0  0  0  0
   12.6738    5.6077    0.0000 H   0  0  0  0  0  0  0  0  0  0  0  0
   12.6002    6.8100    0.0000 H   0  0  0  0  0  0  0  0  0  0  0  0
  1 17  1  0  0  0  0
  1 18  1  0  0  0  0
  2 20  1  0  0  0  0
  3 48  1  0  0  0  0
  4 49  1  0  0  0  0
  5 50  1  0  0  0  0
  6 19  1  0  0  0  0
  6 51  1  0  0  0  0
  7 21  1  0  0  0  0
  7 30  1  0  0  0  0
  8 25  1  0  0  0  0
  8 29  1  0  0  0  0
  9 22  1  0  0  0  0
  9 59  1  0  0  0  0
 10 28  1  0  0  0  0
 10 63  1  0  0  0  0
 11 31  1  0  0  0  0
 11 37  1  0  0  0  0
 12 32  1  0  0  0  0
 12 38  1  0  0  0  0
 13 40  1  0  0  0  0
 13 76  1  0  0  0  0
 14  3  1  0  0  0  0
 14 15  1  6  0  0  0
 14 41  1  0  0  0  0
 15  4  1  0  0  0  0
 15 17  1  1  0  0  0
 15 42  1  0  0  0  0
 16  5  1  0  0  0  0
 16 14  1  1  0  0  0
 16 43  1  0  0  0  0
 17 19  1  0  0  0  0
 17 44  1  6  0  0  0
 18  2  1  0  0  0  0
 18 16  1  6  0  0  0
 18 45  1  0  0  0  0
 19 46  1  0  0  0  0
 19 47  1  0  0  0  0
 20 21  2  0  0  0  0
 20 24  1  0  0  0  0
 21 26  1  0  0  0  0
 22 23  1  0  0  0  0
 22 25  1  0  0  0  0
 22 52  1  0  0  0  0
 23 26  2  0  0  0  0
 23 27  1  0  0  0  0
 24 27  2  0  0  0  0
 24 53  1  0  0  0  0
 25 28  1  0  0  0  0
 25 54  1  0  0  0  0
 26 55  1  0  0  0  0
 27 56  1  0  0  0  0
 28 57  1  0  0  0  0
 28 58  1  0  0  0  0
 29 31  2  0  0  0  0
 29 32  1  0  0  0  0
 30 60  1  0  0  0  0
 30 61  1  0  0  0  0
 30 62  1  0  0  0  0
 31 33  1  0  0  0  0
 32 34  2  0  0  0  0
 33 35  2  0  0  0  0
 33 64  1  0  0  0  0
 34 35  1  0  0  0  0
 34 65  1  0  0  0  0
 35 36  1  0  0  0  0
 36 39  2  0  0  0  0
 36 66  1  0  0  0  0
 37 67  1  0  0  0  0
 37 68  1  0  0  0  0
 37 69  1  0  0  0  0
 38 70  1  0  0  0  0
 38 71  1  0  0  0  0
 38 72  1  0  0  0  0
 39 40  1  0  0  0  0
 39 73  1  0  0  0  0
 40 74  1  0  0  0  0
 40 75  1  0  0  0  0
M  END
>  <PUBCHEM_COMPOUND_CID>
11972318

>  <PUBCHEM_COMPOUND_CANONICALIZED>
1

>  <PUBCHEM_CACTVS_COMPLEXITY>
742

>  <PUBCHEM_CACTVS_HBOND_ACCEPTOR>
13

>  <PUBCHEM_CACTVS_HBOND_DONOR>
7

>  <PUBCHEM_CACTVS_ROTATABLE_BOND>
13

>  <PUBCHEM_CACTVS_SUBSKEYS>
AAADcfB4PAAAAAAAAAAAAAAAAAAAAAAAAAA0YIAAAAAAAAABQAAAGgAACAAADBSwmAMyDoAABgCAAiBCAAACCAAgIAAIiAAGiIgdNyKEMRqieCKlwBUPuAfA4LwOIAABCAAAQABAAAIQAACAAAAAAAAAAA==

>  <PUBCHEM_IUPAC_OPENEYE_NAME>
(2S,3R,4S,5S,6R)-2-[4-[1,3-dihydroxy-2-[4-[(E)-3-hydroxyprop-1-enyl]-2,6-dimethoxy-phenoxy]propyl]-2-methoxy-phenoxy]-6-(hydroxymethyl)tetrahydropyran-3,4,5-triol

>  <PUBCHEM_IUPAC_CAS_NAME>
(2S,3R,4S,5S,6R)-2-[4-[1,3-dihydroxy-2-[4-[(E)-3-hydroxyprop-1-enyl]-2,6-dimethoxyphenoxy]propyl]-2-methoxyphenoxy]-6-(hydroxymethyl)oxane-3,4,5-triol

>  <PUBCHEM_IUPAC_NAME>
(2S,3R,4S,5S,6R)-2-[4-[1,3-dihydroxy-2-[4-[(E)-3-hydroxyprop-1-enyl]-2,6-dimethoxyphenoxy]propyl]-2-methoxyphenoxy]-6-(hydroxymethyl)oxane-3,4,5-triol

>  <PUBCHEM_IUPAC_SYSTEMATIC_NAME>
(2S,3R,4S,5S,6R)-2-[4-[2-[2,6-dimethoxy-4-[(E)-3-oxidanylprop-1-enyl]phenoxy]-1,3-bis(oxidanyl)propyl]-2-methoxy-phenoxy]-6-(hydroxymethyl)oxane-3,4,5-triol

>  <PUBCHEM_IUPAC_TRADITIONAL_NAME>
(2S,3R,4S,5S,6R)-2-[4-[1,3-dihydroxy-2-[4-[(E)-3-hydroxyprop-1-enyl]-2,6-dimethoxy-phenoxy]propyl]-2-methoxy-phenoxy]-6-methylol-tetrahydropyran-3,4,5-triol

>  <PUBCHEM_IUPAC_INCHI>
InChI=1S/C27H36O13/c1-35-17-11-15(6-7-16(17)39-27-25(34)24(33)23(32)21(13-30)40-27)22(31)20(12-29)38-26-18(36-2)9-14(5-4-8-28)10-19(26)37-3/h4-7,9-11,20-25,27-34H,8,12-13H2,1-3H3/b5-4+/t20?,21-,22?,23-,24+,25-,27-/m1/s1

>  <PUBCHEM_IUPAC_INCHIKEY>
XMGKCJUCYBLMBY-ONCYFVLKSA-N

>  <PUBCHEM_XLOGP3_AA>
-0.4

>  <PUBCHEM_EXACT_MASS>
568.216

>  <PUBCHEM_MOLECULAR_FORMULA>
C27H36O13

>  <PUBCHEM_MOLECULAR_WEIGHT>
568.572

>  <PUBCHEM_OPENEYE_CAN_SMILES>
COC1=CC(=CC(=C1OC(CO)C(C2=CC(=C(C=C2)OC3C(C(C(C(O3)CO)O)O)O)OC)O)OC)C=CCO

>  <PUBCHEM_OPENEYE_ISO_SMILES>
COC1=CC(=CC(=C1OC(CO)C(C2=CC(=C(C=C2)O[C@H]3[C@@H]([C@H]([C@@H]([C@H](O3)CO)O)O)O)OC)O)OC)/C=C/CO

>  <PUBCHEM_CACTVS_TPSA>
197

>  <PUBCHEM_MONOISOTOPIC_WEIGHT>
568.216

>  <PUBCHEM_TOTAL_CHARGE>
0

>  <PUBCHEM_HEAVY_ATOM_COUNT>
40

>  <PUBCHEM_ATOM_DEF_STEREO_COUNT>
5

>  <PUBCHEM_ATOM_UDEF_STEREO_COUNT>
2

>  <PUBCHEM_BOND_DEF_STEREO_COUNT>
1

>  <PUBCHEM_BOND_UDEF_STEREO_COUNT>
0

>  <PUBCHEM_ISOTOPIC_ATOM_COUNT>
0

>  <PUBCHEM_COMPONENT_COUNT>
1

>  <PUBCHEM_CACTVS_TAUTO_COUNT>
1

>  <PUBCHEM_COORDINATE_TYPE>
1
5
255

>  <PUBCHEM_BONDANNOTATIONS>
17  19  5
18  2  5
20  21  8
20  24  8
21  26  8
23  26  8
23  27  8
24  27  8
25  28  3
29  31  8
29  32  8
14  3  5
31  33  8
32  34  8
33  35  8
34  35  8
15  4  6
16  5  6
22  9  3

$$$$
