11989381
 OpenBabel06101807152D

 21 20  0  0  1  0  0  0  0  0999 V2000
    3.4030   -0.2500    0.0000 S   0  0  0  0  0  0  0  0  0  0  0  0
    6.0010    1.2500    0.0000 O   0  0  0  0  0  0  0  0  0  0  0  0
    5.1350    2.7500    0.0000 O   0  0  0  0  0  0  0  0  0  0  0  0
    3.4030    1.7500    0.0000 N   0  0  0  0  0  0  0  0  0  0  0  0
    4.2690    1.2500    0.0000 C   0  0  1  0  0  0  0  0  0  0  0  0
    4.2690    0.2500    0.0000 C   0  0  0  0  0  0  0  0  0  0  0  0
    5.1350    1.7500    0.0000 C   0  0  0  0  0  0  0  0  0  0  0  0
    3.4030   -1.2500    0.0000 C   0  0  0  0  0  0  0  0  0  0  0  0
    2.5369   -1.7500    0.0000 C   0  0  0  0  0  0  0  0  0  0  0  0
    2.5369   -2.7500    0.0000 C   0  0  0  0  0  0  0  0  0  0  0  0
    4.2690    1.8700    0.0000 H   0  0  0  0  0  0  0  0  0  0  0  0
    4.4810   -0.3326    0.0000 H   0  0  0  0  0  0  0  0  0  0  0  0
    4.8796    0.3577    0.0000 H   0  0  0  0  0  0  0  0  0  0  0  0
    2.8660    1.4400    0.0000 H   0  0  0  0  0  0  0  0  0  0  0  0
    3.4030    2.3700    0.0000 H   0  0  0  0  0  0  0  0  0  0  0  0
    3.9399   -1.5600    0.0000 H   0  0  0  0  0  0  0  0  0  0  0  0
    2.0000   -1.4400    0.0000 H   0  0  0  0  0  0  0  0  0  0  0  0
    6.5380    1.5600    0.0000 H   0  0  0  0  0  0  0  0  0  0  0  0
    1.9169   -2.7500    0.0000 H   0  0  0  0  0  0  0  0  0  0  0  0
    2.5369   -3.3700    0.0000 H   0  0  0  0  0  0  0  0  0  0  0  0
    3.1569   -2.7500    0.0000 H   0  0  0  0  0  0  0  0  0  0  0  0
  1  6  1  0  0  0  0
  1  8  1  0  0  0  0
  2  7  1  0  0  0  0
  2 18  1  0  0  0  0
  3  7  2  0  0  0  0
  4 14  1  0  0  0  0
  4 15  1  0  0  0  0
  5  4  1  0  0  0  0
  5  6  1  0  0  0  0
  5  7  1  0  0  0  0
  5 11  1  1  0  0  0
  6 12  1  0  0  0  0
  6 13  1  0  0  0  0
  8  9  2  0  0  0  0
  8 16  1  0  0  0  0
  9 10  1  0  0  0  0
  9 17  1  0  0  0  0
 10 19  1  0  0  0  0
 10 20  1  0  0  0  0
 10 21  1  0  0  0  0
M  END
>  <PUBCHEM_COMPOUND_CID>
11989381

>  <PUBCHEM_COMPOUND_CANONICALIZED>
1

>  <PUBCHEM_CACTVS_COMPLEXITY>
136

>  <PUBCHEM_CACTVS_HBOND_ACCEPTOR>
4

>  <PUBCHEM_CACTVS_HBOND_DONOR>
2

>  <PUBCHEM_CACTVS_ROTATABLE_BOND>
4

>  <PUBCHEM_CACTVS_SUBSKEYS>
AAADccBiMABAAAAAAAAAAAAAAAAAAAAAAAAAAAAAAAAAAAAAAAAAHgQQCAAACCjFwASCCABAAgiIACDSCAAAAAAAABAIAIGAAAACAAAgAQAAQAAAEAAAAAAAAAAAAAAAAAAAAAAAAAAAAAAAAAAAAAAAAA==

>  <PUBCHEM_IUPAC_OPENEYE_NAME>
(2R)-2-amino-3-[(E)-prop-1-enyl]sulfanyl-propanoic acid

>  <PUBCHEM_IUPAC_CAS_NAME>
(2R)-2-amino-3-[[(E)-prop-1-enyl]thio]propanoic acid

>  <PUBCHEM_IUPAC_NAME>
(2R)-2-amino-3-[(E)-prop-1-enyl]sulfanylpropanoic acid

>  <PUBCHEM_IUPAC_SYSTEMATIC_NAME>
(2R)-2-azanyl-3-[(E)-prop-1-enyl]sulfanyl-propanoic acid

>  <PUBCHEM_IUPAC_TRADITIONAL_NAME>
(2R)-2-amino-3-[[(E)-prop-1-enyl]thio]propionic acid

>  <PUBCHEM_IUPAC_INCHI>
InChI=1S/C6H11NO2S/c1-2-3-10-4-5(7)6(8)9/h2-3,5H,4,7H2,1H3,(H,8,9)/b3-2+/t5-/m0/s1

>  <PUBCHEM_IUPAC_INCHIKEY>
HYGGRRPFVXHQQW-HRJJCQLASA-N

>  <PUBCHEM_XLOGP3_AA>
-2

>  <PUBCHEM_EXACT_MASS>
161.051

>  <PUBCHEM_MOLECULAR_FORMULA>
C6H11NO2S

>  <PUBCHEM_MOLECULAR_WEIGHT>
161.219

>  <PUBCHEM_OPENEYE_CAN_SMILES>
CC=CSCC(C(=O)O)N

>  <PUBCHEM_OPENEYE_ISO_SMILES>
C/C=C/SC[C@@H](C(=O)O)N

>  <PUBCHEM_CACTVS_TPSA>
88.6

>  <PUBCHEM_MONOISOTOPIC_WEIGHT>
161.051

>  <PUBCHEM_TOTAL_CHARGE>
0

>  <PUBCHEM_HEAVY_ATOM_COUNT>
10

>  <PUBCHEM_ATOM_DEF_STEREO_COUNT>
1

>  <PUBCHEM_ATOM_UDEF_STEREO_COUNT>
0

>  <PUBCHEM_BOND_DEF_STEREO_COUNT>
1

>  <PUBCHEM_BOND_UDEF_STEREO_COUNT>
0

>  <PUBCHEM_ISOTOPIC_ATOM_COUNT>
0

>  <PUBCHEM_COMPONENT_COUNT>
1

>  <PUBCHEM_CACTVS_TAUTO_COUNT>
1

>  <PUBCHEM_COORDINATE_TYPE>
1
5
255

>  <PUBCHEM_BONDANNOTATIONS>
5  4  6

$$$$
