12133315
 OpenBabel06101807152D

 30 32  0  0  0  0  0  0  0  0999 V2000
    6.0682   -1.3533    0.0000 O   0  0  0  0  0  0  0  0  0  0  0  0
    9.5984    0.6708    0.0000 O   0  0  0  0  0  0  0  0  0  0  0  0
    7.8167    1.6813    0.0000 O   0  0  0  0  0  0  0  0  0  0  0  0
    6.0682    1.6467    0.0000 O   0  0  0  0  0  0  0  0  0  0  0  0
    9.5984   -1.3775    0.0000 O   0  0  0  0  0  0  0  0  0  0  0  0
    2.5381    0.6708    0.0000 O   0  0  0  0  0  0  0  0  0  0  0  0
    6.9343    0.1467    0.0000 C   0  0  0  0  0  0  0  0  0  0  0  0
    6.9343   -0.8533    0.0000 C   0  0  0  0  0  0  0  0  0  0  0  0
    5.2022    0.1467    0.0000 C   0  0  0  0  0  0  0  0  0  0  0  0
    6.0682    0.6467    0.0000 C   0  0  0  0  0  0  0  0  0  0  0  0
    5.2022   -0.8533    0.0000 C   0  0  0  0  0  0  0  0  0  0  0  0
    7.8282    0.6813    0.0000 C   0  0  0  0  0  0  0  0  0  0  0  0
    7.8282   -1.3880    0.0000 C   0  0  0  0  0  0  0  0  0  0  0  0
    8.7343    0.1675    0.0000 C   0  0  0  0  0  0  0  0  0  0  0  0
    8.7343   -0.8741    0.0000 C   0  0  0  0  0  0  0  0  0  0  0  0
    4.3083    0.6813    0.0000 C   0  0  0  0  0  0  0  0  0  0  0  0
    4.3083   -1.3880    0.0000 C   0  0  0  0  0  0  0  0  0  0  0  0
    3.4022    0.1675    0.0000 C   0  0  0  0  0  0  0  0  0  0  0  0
    3.4022   -0.8741    0.0000 C   0  0  0  0  0  0  0  0  0  0  0  0
   10.4663    0.1742    0.0000 C   0  0  0  0  0  0  0  0  0  0  0  0
    7.8210   -2.0079    0.0000 H   0  0  0  0  0  0  0  0  0  0  0  0
    4.3154    1.3013    0.0000 H   0  0  0  0  0  0  0  0  0  0  0  0
    4.3154   -2.0079    0.0000 H   0  0  0  0  0  0  0  0  0  0  0  0
    2.8665   -1.1862    0.0000 H   0  0  0  0  0  0  0  0  0  0  0  0
    8.3500    1.9975    0.0000 H   0  0  0  0  0  0  0  0  0  0  0  0
    9.5960   -1.9975    0.0000 H   0  0  0  0  0  0  0  0  0  0  0  0
   10.1584   -0.3640    0.0000 H   0  0  0  0  0  0  0  0  0  0  0  0
   11.0045   -0.1338    0.0000 H   0  0  0  0  0  0  0  0  0  0  0  0
   10.7743    0.7123    0.0000 H   0  0  0  0  0  0  0  0  0  0  0  0
    2.0000    0.3629    0.0000 H   0  0  0  0  0  0  0  0  0  0  0  0
  1  8  1  0  0  0  0
  1 11  1  0  0  0  0
  2 14  1  0  0  0  0
  2 20  1  0  0  0  0
  3 12  1  0  0  0  0
  3 25  1  0  0  0  0
  4 10  2  0  0  0  0
  5 15  1  0  0  0  0
  5 26  1  0  0  0  0
  6 18  1  0  0  0  0
  6 30  1  0  0  0  0
  7  8  2  0  0  0  0
  7 10  1  0  0  0  0
  7 12  1  0  0  0  0
  8 13  1  0  0  0  0
  9 10  1  0  0  0  0
  9 11  2  0  0  0  0
  9 16  1  0  0  0  0
 11 17  1  0  0  0  0
 12 14  2  0  0  0  0
 13 15  2  0  0  0  0
 13 21  1  0  0  0  0
 14 15  1  0  0  0  0
 16 18  2  0  0  0  0
 16 22  1  0  0  0  0
 17 19  2  0  0  0  0
 17 23  1  0  0  0  0
 18 19  1  0  0  0  0
 19 24  1  0  0  0  0
 20 27  1  0  0  0  0
 20 28  1  0  0  0  0
 20 29  1  0  0  0  0
M  END
>  <PUBCHEM_COMPOUND_CID>
12133315

>  <PUBCHEM_COMPOUND_CANONICALIZED>
1

>  <PUBCHEM_CACTVS_COMPLEXITY>
386

>  <PUBCHEM_CACTVS_HBOND_ACCEPTOR>
6

>  <PUBCHEM_CACTVS_HBOND_DONOR>
3

>  <PUBCHEM_CACTVS_ROTATABLE_BOND>
1

>  <PUBCHEM_CACTVS_SUBSKEYS>
AAADccBwOAAAAAAAAAAAAAAAAAAAAAAAAAA0YIAAAAAAAACRQAAAGgAACAAADASAmAIyBoAABgCIAqBSAAACCAAkIAAIiAEGiMgNJzaGNRqCeWOl4BULuYfK7PzOIQABCAAIQABCAAIQABCAAAAAAAAAAA==

>  <PUBCHEM_IUPAC_OPENEYE_NAME>
1,3,7-trihydroxy-2-methoxy-xanthen-9-one

>  <PUBCHEM_IUPAC_CAS_NAME>
1,3,7-trihydroxy-2-methoxy-9-xanthenone

>  <PUBCHEM_IUPAC_NAME>
1,3,7-trihydroxy-2-methoxyxanthen-9-one

>  <PUBCHEM_IUPAC_SYSTEMATIC_NAME>
2-methoxy-1,3,7-tris(oxidanyl)xanthen-9-one

>  <PUBCHEM_IUPAC_TRADITIONAL_NAME>
1,3,7-trihydroxy-2-methoxy-xanthone

>  <PUBCHEM_IUPAC_INCHI>
InChI=1S/C14H10O6/c1-19-14-8(16)5-10-11(13(14)18)12(17)7-4-6(15)2-3-9(7)20-10/h2-5,15-16,18H,1H3

>  <PUBCHEM_IUPAC_INCHIKEY>
GLXRAYJUKLGHEP-UHFFFAOYSA-N

>  <PUBCHEM_XLOGP3_AA>
2.4

>  <PUBCHEM_EXACT_MASS>
274.048

>  <PUBCHEM_MOLECULAR_FORMULA>
C14H10O6

>  <PUBCHEM_MOLECULAR_WEIGHT>
274.228

>  <PUBCHEM_OPENEYE_CAN_SMILES>
COC1=C(C=C2C(=C1O)C(=O)C3=C(O2)C=CC(=C3)O)O

>  <PUBCHEM_OPENEYE_ISO_SMILES>
COC1=C(C=C2C(=C1O)C(=O)C3=C(O2)C=CC(=C3)O)O

>  <PUBCHEM_CACTVS_TPSA>
96.2

>  <PUBCHEM_MONOISOTOPIC_WEIGHT>
274.048

>  <PUBCHEM_TOTAL_CHARGE>
0

>  <PUBCHEM_HEAVY_ATOM_COUNT>
20

>  <PUBCHEM_ATOM_DEF_STEREO_COUNT>
0

>  <PUBCHEM_ATOM_UDEF_STEREO_COUNT>
0

>  <PUBCHEM_BOND_DEF_STEREO_COUNT>
0

>  <PUBCHEM_BOND_UDEF_STEREO_COUNT>
0

>  <PUBCHEM_ISOTOPIC_ATOM_COUNT>
0

>  <PUBCHEM_COMPONENT_COUNT>
1

>  <PUBCHEM_CACTVS_TAUTO_COUNT>
36

>  <PUBCHEM_COORDINATE_TYPE>
1
5
255

>  <PUBCHEM_BONDANNOTATIONS>
1  11  8
1  8  8
11  17  8
12  14  8
13  15  8
14  15  8
16  18  8
17  19  8
18  19  8
7  10  8
7  12  8
7  8  8
8  13  8
9  10  8
9  11  8
9  16  8

$$$$
