12214333
 OpenBabel06101807152D

 32 34  0  0  0  0  0  0  0  0999 V2000
    4.6660    0.7398    0.0000 O   0  0  0  0  0  0  0  0  0  0  0  0
    6.4144    1.7744    0.0000 O   0  0  0  0  0  0  0  0  0  0  0  0
    8.1962   -1.2844    0.0000 O   0  0  0  0  0  0  0  0  0  0  0  0
    8.1962    0.7639    0.0000 O   0  0  0  0  0  0  0  0  0  0  0  0
    4.6660   -2.2602    0.0000 O   0  0  0  0  0  0  0  0  0  0  0  0
    5.5321   -0.7602    0.0000 C   0  0  0  0  0  0  0  0  0  0  0  0
    5.5321    0.2398    0.0000 C   0  0  0  0  0  0  0  0  0  0  0  0
    3.8000   -0.7602    0.0000 C   0  0  0  0  0  0  0  0  0  0  0  0
    4.6660   -1.2602    0.0000 C   0  0  0  0  0  0  0  0  0  0  0  0
    3.8000    0.2398    0.0000 C   0  0  0  0  0  0  0  0  0  0  0  0
    6.4260    0.7744    0.0000 C   0  0  0  0  0  0  0  0  0  0  0  0
    6.4260   -1.2949    0.0000 C   0  0  0  0  0  0  0  0  0  0  0  0
    7.3321   -0.7810    0.0000 C   0  0  0  0  0  0  0  0  0  0  0  0
    7.3321    0.2606    0.0000 C   0  0  0  0  0  0  0  0  0  0  0  0
    2.9061   -1.2949    0.0000 C   0  0  0  0  0  0  0  0  0  0  0  0
    2.9061    0.7744    0.0000 C   0  0  0  0  0  0  0  0  0  0  0  0
    2.0000   -0.7810    0.0000 C   0  0  0  0  0  0  0  0  0  0  0  0
    2.0000    0.2606    0.0000 C   0  0  0  0  0  0  0  0  0  0  0  0
    7.2746    2.2844    0.0000 C   0  0  0  0  0  0  0  0  0  0  0  0
    8.1923   -2.2844    0.0000 C   0  0  0  0  0  0  0  0  0  0  0  0
    6.4188   -1.9148    0.0000 H   0  0  0  0  0  0  0  0  0  0  0  0
    2.9132   -1.9148    0.0000 H   0  0  0  0  0  0  0  0  0  0  0  0
    2.9132    1.3944    0.0000 H   0  0  0  0  0  0  0  0  0  0  0  0
    1.4643   -1.0931    0.0000 H   0  0  0  0  0  0  0  0  0  0  0  0
    1.4643    0.5727    0.0000 H   0  0  0  0  0  0  0  0  0  0  0  0
    8.7343    0.4560    0.0000 H   0  0  0  0  0  0  0  0  0  0  0  0
    7.5908    1.7510    0.0000 H   0  0  0  0  0  0  0  0  0  0  0  0
    7.8079    2.6006    0.0000 H   0  0  0  0  0  0  0  0  0  0  0  0
    6.9584    2.8177    0.0000 H   0  0  0  0  0  0  0  0  0  0  0  0
    7.5723   -2.2820    0.0000 H   0  0  0  0  0  0  0  0  0  0  0  0
    8.1899   -2.9044    0.0000 H   0  0  0  0  0  0  0  0  0  0  0  0
    8.8123   -2.2868    0.0000 H   0  0  0  0  0  0  0  0  0  0  0  0
  1  7  1  0  0  0  0
  1 10  1  0  0  0  0
  2 11  1  0  0  0  0
  2 19  1  0  0  0  0
  3 13  1  0  0  0  0
  3 20  1  0  0  0  0
  4 14  1  0  0  0  0
  4 26  1  0  0  0  0
  5  9  2  0  0  0  0
  6  7  1  0  0  0  0
  6  9  1  0  0  0  0
  6 12  2  0  0  0  0
  7 11  2  0  0  0  0
  8  9  1  0  0  0  0
  8 10  1  0  0  0  0
  8 15  2  0  0  0  0
 10 16  2  0  0  0  0
 11 14  1  0  0  0  0
 12 13  1  0  0  0  0
 12 21  1  0  0  0  0
 13 14  2  0  0  0  0
 15 17  1  0  0  0  0
 15 22  1  0  0  0  0
 16 18  1  0  0  0  0
 16 23  1  0  0  0  0
 17 18  2  0  0  0  0
 17 24  1  0  0  0  0
 18 25  1  0  0  0  0
 19 27  1  0  0  0  0
 19 28  1  0  0  0  0
 19 29  1  0  0  0  0
 20 30  1  0  0  0  0
 20 31  1  0  0  0  0
 20 32  1  0  0  0  0
M  END
>  <PUBCHEM_COMPOUND_CID>
12214333

>  <PUBCHEM_COMPOUND_CANONICALIZED>
1

>  <PUBCHEM_CACTVS_COMPLEXITY>
371

>  <PUBCHEM_CACTVS_HBOND_ACCEPTOR>
5

>  <PUBCHEM_CACTVS_HBOND_DONOR>
1

>  <PUBCHEM_CACTVS_ROTATABLE_BOND>
2

>  <PUBCHEM_CACTVS_SUBSKEYS>
AAADccBwOAAAAAAAAAAAAAAAAAAAAAAAAAA0YIAAAAAAAACRQAAAGgAACAAADASAmAIyBoAABgCIAqBSAAACCAAkIAAIiAEGiMgNJzaGNRqCeWOl4BULuYfK7PzOIQABCAAIQABCAAIQABCAAAAAAAAAAA==

>  <PUBCHEM_IUPAC_OPENEYE_NAME>
3-hydroxy-2,4-dimethoxy-xanthen-9-one

>  <PUBCHEM_IUPAC_CAS_NAME>
3-hydroxy-2,4-dimethoxy-9-xanthenone

>  <PUBCHEM_IUPAC_NAME>
3-hydroxy-2,4-dimethoxyxanthen-9-one

>  <PUBCHEM_IUPAC_SYSTEMATIC_NAME>
2,4-dimethoxy-3-oxidanyl-xanthen-9-one

>  <PUBCHEM_IUPAC_TRADITIONAL_NAME>
3-hydroxy-2,4-dimethoxy-xanthone

>  <PUBCHEM_IUPAC_INCHI>
InChI=1S/C15H12O5/c1-18-11-7-9-12(16)8-5-3-4-6-10(8)20-14(9)15(19-2)13(11)17/h3-7,17H,1-2H3

>  <PUBCHEM_IUPAC_INCHIKEY>
DQAQTPIWHUEPAU-UHFFFAOYSA-N

>  <PUBCHEM_XLOGP3_AA>
2.5

>  <PUBCHEM_EXACT_MASS>
272.068

>  <PUBCHEM_MOLECULAR_FORMULA>
C15H12O5

>  <PUBCHEM_MOLECULAR_WEIGHT>
272.256

>  <PUBCHEM_OPENEYE_CAN_SMILES>
COC1=C(C(=C2C(=C1)C(=O)C3=CC=CC=C3O2)OC)O

>  <PUBCHEM_OPENEYE_ISO_SMILES>
COC1=C(C(=C2C(=C1)C(=O)C3=CC=CC=C3O2)OC)O

>  <PUBCHEM_CACTVS_TPSA>
65

>  <PUBCHEM_MONOISOTOPIC_WEIGHT>
272.068

>  <PUBCHEM_TOTAL_CHARGE>
0

>  <PUBCHEM_HEAVY_ATOM_COUNT>
20

>  <PUBCHEM_ATOM_DEF_STEREO_COUNT>
0

>  <PUBCHEM_ATOM_UDEF_STEREO_COUNT>
0

>  <PUBCHEM_BOND_DEF_STEREO_COUNT>
0

>  <PUBCHEM_BOND_UDEF_STEREO_COUNT>
0

>  <PUBCHEM_ISOTOPIC_ATOM_COUNT>
0

>  <PUBCHEM_COMPONENT_COUNT>
1

>  <PUBCHEM_CACTVS_TAUTO_COUNT>
5

>  <PUBCHEM_COORDINATE_TYPE>
1
5
255

>  <PUBCHEM_BONDANNOTATIONS>
1  10  8
1  7  8
10  16  8
11  14  8
12  13  8
13  14  8
15  17  8
16  18  8
17  18  8
6  12  8
6  7  8
6  9  8
7  11  8
8  10  8
8  15  8
8  9  8

$$$$
