122858
 OpenBabel06101807152D

 82 86  0  0  1  0  0  0  0  0999 V2000
    5.7726   -3.2628    0.0000 O   0  0  0  0  0  0  0  0  0  0  0  0
   11.1246    2.9508    0.0000 O   0  0  0  0  0  0  0  0  0  0  0  0
    7.5167   -0.1936    0.0000 C   0  0  2  0  0  0  0  0  0  0  0  0
    7.5167    0.8064    0.0000 C   0  0  3  0  0  0  0  0  0  0  0  0
    8.4106    1.3411    0.0000 C   0  0  2  0  0  0  0  0  0  0  0  0
    6.6507   -0.6936    0.0000 C   0  0  1  0  0  0  0  0  0  0  0  0
    9.3167    0.8272    0.0000 C   0  0  1  0  0  0  0  0  0  0  0  0
    8.4106   -0.7283    0.0000 C   0  0  0  0  0  0  0  0  0  0  0  0
    5.7847   -0.1936    0.0000 C   0  0  0  0  0  0  0  0  0  0  0  0
    4.8746   -0.7004    0.0000 C   0  0  1  0  0  0  0  0  0  0  0  0
    9.3167   -0.2144    0.0000 C   0  0  0  0  0  0  0  0  0  0  0  0
    4.8666   -1.7420    0.0000 C   0  0  1  0  0  0  0  0  0  0  0  0
   10.2605    1.3625    0.0000 C   0  0  0  0  0  0  0  0  0  0  0  0
    6.6667   -1.7351    0.0000 C   0  0  0  0  0  0  0  0  0  0  0  0
    6.6507    1.3064    0.0000 C   0  0  0  0  0  0  0  0  0  0  0  0
    8.3856    2.4258    0.0000 C   0  0  0  0  0  0  0  0  0  0  0  0
    5.7687   -2.2629    0.0000 C   0  0  2  0  0  0  0  0  0  0  0  0
    7.8588   -1.1333    0.0000 C   0  0  0  0  0  0  0  0  0  0  0  0
    5.7847    0.8064    0.0000 C   0  0  0  0  0  0  0  0  0  0  0  0
   10.2605    2.4474    0.0000 C   0  0  2  0  0  0  0  0  0  0  0  0
    7.5408    1.8344    0.0000 C   0  0  0  0  0  0  0  0  0  0  0  0
    7.2935   -1.4596    0.0000 C   0  0  0  0  0  0  0  0  0  0  0  0
    9.3167    2.9827    0.0000 C   0  0  0  0  0  0  0  0  0  0  0  0
    3.9478   -0.1364    0.0000 C   0  0  0  0  0  0  0  0  0  0  0  0
    3.9312   -2.2918    0.0000 C   0  0  0  0  0  0  0  0  0  0  0  0
    2.9999   -0.6643    0.0000 C   0  0  0  0  0  0  0  0  0  0  0  0
    2.9916   -1.7493    0.0000 C   0  0  0  0  0  0  0  0  0  0  0  0
    4.8589   -2.7420    0.0000 C   0  0  0  0  0  0  0  0  0  0  0  0
   11.2605    1.3586    0.0000 C   0  0  0  0  0  0  0  0  0  0  0  0
   10.7572    0.4945    0.0000 C   0  0  0  0  0  0  0  0  0  0  0  0
    2.0000   -0.6527    0.0000 C   0  0  0  0  0  0  0  0  0  0  0  0
    2.5100    0.2074    0.0000 C   0  0  0  0  0  0  0  0  0  0  0  0
    8.0560    0.5006    0.0000 H   0  0  0  0  0  0  0  0  0  0  0  0
   10.0512    0.3994    0.0000 H   0  0  0  0  0  0  0  0  0  0  0  0
    8.0060   -1.1980    0.0000 H   0  0  0  0  0  0  0  0  0  0  0  0
    8.8043   -1.2073    0.0000 H   0  0  0  0  0  0  0  0  0  0  0  0
    4.8910    0.1494    0.0000 H   0  0  0  0  0  0  0  0  0  0  0  0
    9.5258   -0.7981    0.0000 H   0  0  0  0  0  0  0  0  0  0  0  0
    9.9276   -0.1083    0.0000 H   0  0  0  0  0  0  0  0  0  0  0  0
    6.8848   -2.3155    0.0000 H   0  0  0  0  0  0  0  0  0  0  0  0
    7.2759   -1.6196    0.0000 H   0  0  0  0  0  0  0  0  0  0  0  0
    7.0492    1.7814    0.0000 H   0  0  0  0  0  0  0  0  0  0  0  0
    6.2522    1.7814    0.0000 H   0  0  0  0  0  0  0  0  0  0  0  0
    8.1631    3.0045    0.0000 H   0  0  0  0  0  0  0  0  0  0  0  0
    7.7773    2.3056    0.0000 H   0  0  0  0  0  0  0  0  0  0  0  0
    6.3074   -2.5698    0.0000 H   0  0  0  0  0  0  0  0  0  0  0  0
    7.2762   -1.3454    0.0000 H   0  0  0  0  0  0  0  0  0  0  0  0
    8.0709   -1.7158    0.0000 H   0  0  0  0  0  0  0  0  0  0  0  0
    8.4414   -0.9211    0.0000 H   0  0  0  0  0  0  0  0  0  0  0  0
    5.2477    1.1164    0.0000 H   0  0  0  0  0  0  0  0  0  0  0  0
   10.7980    2.1385    0.0000 H   0  0  0  0  0  0  0  0  0  0  0  0
    7.8466    2.3737    0.0000 H   0  0  0  0  0  0  0  0  0  0  0  0
    7.0015    2.1402    0.0000 H   0  0  0  0  0  0  0  0  0  0  0  0
    7.2349    1.2951    0.0000 H   0  0  0  0  0  0  0  0  0  0  0  0
    6.8185   -1.8582    0.0000 H   0  0  0  0  0  0  0  0  0  0  0  0
    7.6920   -1.9346    0.0000 H   0  0  0  0  0  0  0  0  0  0  0  0
    7.7684   -1.0611    0.0000 H   0  0  0  0  0  0  0  0  0  0  0  0
    9.7103    3.4617    0.0000 H   0  0  0  0  0  0  0  0  0  0  0  0
    8.9121    3.4525    0.0000 H   0  0  0  0  0  0  0  0  0  0  0  0
    4.3560    0.3303    0.0000 H   0  0  0  0  0  0  0  0  0  0  0  0
    3.5579    0.3457    0.0000 H   0  0  0  0  0  0  0  0  0  0  0  0
    3.5339   -2.7677    0.0000 H   0  0  0  0  0  0  0  0  0  0  0  0
    4.3322   -2.7647    0.0000 H   0  0  0  0  0  0  0  0  0  0  0  0
    2.3816   -1.6385    0.0000 H   0  0  0  0  0  0  0  0  0  0  0  0
    2.7780   -2.3313    0.0000 H   0  0  0  0  0  0  0  0  0  0  0  0
    4.2389   -2.7372    0.0000 H   0  0  0  0  0  0  0  0  0  0  0  0
    4.8541   -3.3620    0.0000 H   0  0  0  0  0  0  0  0  0  0  0  0
    5.4789   -2.7468    0.0000 H   0  0  0  0  0  0  0  0  0  0  0  0
   11.2581    0.7386    0.0000 H   0  0  0  0  0  0  0  0  0  0  0  0
   11.8805    1.3562    0.0000 H   0  0  0  0  0  0  0  0  0  0  0  0
   11.2629    1.9786    0.0000 H   0  0  0  0  0  0  0  0  0  0  0  0
   10.2190    0.1866    0.0000 H   0  0  0  0  0  0  0  0  0  0  0  0
   11.0651   -0.0436    0.0000 H   0  0  0  0  0  0  0  0  0  0  0  0
   11.2953    0.8024    0.0000 H   0  0  0  0  0  0  0  0  0  0  0  0
    6.3107   -3.5708    0.0000 H   0  0  0  0  0  0  0  0  0  0  0  0
    2.0072   -0.0328    0.0000 H   0  0  0  0  0  0  0  0  0  0  0  0
    1.3800   -0.6456    0.0000 H   0  0  0  0  0  0  0  0  0  0  0  0
    1.9928   -1.2727    0.0000 H   0  0  0  0  0  0  0  0  0  0  0  0
    3.0505    0.5112    0.0000 H   0  0  0  0  0  0  0  0  0  0  0  0
    2.2062    0.7479    0.0000 H   0  0  0  0  0  0  0  0  0  0  0  0
    1.9695   -0.0963    0.0000 H   0  0  0  0  0  0  0  0  0  0  0  0
   11.1222    3.5708    0.0000 H   0  0  0  0  0  0  0  0  0  0  0  0
  1 75  1  0  0  0  0
  2 82  1  0  0  0  0
  3  4  1  6  0  0  0
  3  8  1  0  0  0  0
  3 18  1  0  0  0  0
  4 15  1  0  0  0  0
  4 33  1  0  0  0  0
  5  4  1  1  0  0  0
  5 16  1  0  0  0  0
  5 21  1  0  0  0  0
  6  3  1  6  0  0  0
  6  9  1  0  0  0  0
  6 14  1  0  0  0  0
  6 22  1  0  0  0  0
  7  5  1  1  0  0  0
  7 11  1  0  0  0  0
  7 13  1  0  0  0  0
  7 34  1  0  0  0  0
  8 11  1  0  0  0  0
  8 35  1  0  0  0  0
  8 36  1  0  0  0  0
  9 10  1  0  0  0  0
  9 19  2  0  0  0  0
 10 12  1  6  0  0  0
 10 24  1  0  0  0  0
 10 37  1  0  0  0  0
 11 38  1  0  0  0  0
 11 39  1  0  0  0  0
 12 17  1  1  0  0  0
 12 25  1  0  0  0  0
 12 28  1  0  0  0  0
 13 20  1  0  0  0  0
 13 29  1  0  0  0  0
 13 30  1  0  0  0  0
 14 17  1  0  0  0  0
 14 40  1  0  0  0  0
 14 41  1  0  0  0  0
 15 19  1  0  0  0  0
 15 42  1  0  0  0  0
 15 43  1  0  0  0  0
 16 23  1  0  0  0  0
 16 44  1  0  0  0  0
 16 45  1  0  0  0  0
 17  1  1  0  0  0  0
 17 46  1  1  0  0  0
 18 47  1  0  0  0  0
 18 48  1  0  0  0  0
 18 49  1  0  0  0  0
 19 50  1  0  0  0  0
 20  2  1  0  0  0  0
 20 23  1  0  0  0  0
 20 51  1  1  0  0  0
 21 52  1  0  0  0  0
 21 53  1  0  0  0  0
 21 54  1  0  0  0  0
 22 55  1  0  0  0  0
 22 56  1  0  0  0  0
 22 57  1  0  0  0  0
 23 58  1  0  0  0  0
 23 59  1  0  0  0  0
 24 26  1  0  0  0  0
 24 60  1  0  0  0  0
 24 61  1  0  0  0  0
 25 27  1  0  0  0  0
 25 62  1  0  0  0  0
 25 63  1  0  0  0  0
 26 27  1  0  0  0  0
 26 31  1  0  0  0  0
 26 32  1  0  0  0  0
 27 64  1  0  0  0  0
 27 65  1  0  0  0  0
 28 66  1  0  0  0  0
 28 67  1  0  0  0  0
 28 68  1  0  0  0  0
 29 69  1  0  0  0  0
 29 70  1  0  0  0  0
 29 71  1  0  0  0  0
 30 72  1  0  0  0  0
 30 73  1  0  0  0  0
 30 74  1  0  0  0  0
 31 76  1  0  0  0  0
 31 77  1  0  0  0  0
 31 78  1  0  0  0  0
 32 79  1  0  0  0  0
 32 80  1  0  0  0  0
 32 81  1  0  0  0  0
M  END
>  <PUBCHEM_COMPOUND_CID>
122858

>  <PUBCHEM_COMPOUND_CANONICALIZED>
1

>  <PUBCHEM_CACTVS_COMPLEXITY>
825

>  <PUBCHEM_CACTVS_HBOND_ACCEPTOR>
2

>  <PUBCHEM_CACTVS_HBOND_DONOR>
2

>  <PUBCHEM_CACTVS_ROTATABLE_BOND>
0

>  <PUBCHEM_CACTVS_SUBSKEYS>
AAADcfB4MAAAAAAAAAAAAAAAAAAAAAAAAAAwYMGCAAAAAADAAAAAGgAACAAADxSggAICAAAAAgCAAiBCAAAAAAAgAAAACAAAAAgAEAIAAQAAQAAEgAAIAAOAwPAPgAAAAAAAAADAAAYAADAAAAAAAAAAAA==

>  <PUBCHEM_IUPAC_OPENEYE_NAME>
(3S,4aR,6aR,6bS,8S,8aS,12aS,14bR)-4,4,6a,6b,8a,11,11,14b-octamethyl-1,2,3,4a,5,6,7,8,9,10,12,12a,14,14a-tetradecahydropicene-3,8-diol

>  <PUBCHEM_IUPAC_CAS_NAME>
(3S,4aR,6aR,6bS,8S,8aS,12aS,14bR)-4,4,6a,6b,8a,11,11,14b-octamethyl-1,2,3,4a,5,6,7,8,9,10,12,12a,14,14a-tetradecahydropicene-3,8-diol

>  <PUBCHEM_IUPAC_NAME>
(3S,4aR,6aR,6bS,8S,8aS,12aS,14bR)-4,4,6a,6b,8a,11,11,14b-octamethyl-1,2,3,4a,5,6,7,8,9,10,12,12a,14,14a-tetradecahydropicene-3,8-diol

>  <PUBCHEM_IUPAC_SYSTEMATIC_NAME>
(3S,4aR,6aR,6bS,8S,8aS,12aS,14bR)-4,4,6a,6b,8a,11,11,14b-octamethyl-1,2,3,4a,5,6,7,8,9,10,12,12a,14,14a-tetradecahydropicene-3,8-diol

>  <PUBCHEM_IUPAC_TRADITIONAL_NAME>
(3S,4aR,6aR,6bS,8S,8aS,12aS,14bR)-4,4,6a,6b,8a,11,11,14b-octamethyl-1,2,3,4a,5,6,7,8,9,10,12,12a,14,14a-tetradecahydropicene-3,8-diol

>  <PUBCHEM_IUPAC_INCHI>
InChI=1S/C30H50O2/c1-25(2)15-16-27(5)20(17-25)19-9-10-22-28(6)13-12-23(31)26(3,4)21(28)11-14-29(22,7)30(19,8)18-24(27)32/h9,20-24,31-32H,10-18H2,1-8H3/t20-,21-,22?,23-,24-,27-,28-,29+,30+/m0/s1

>  <PUBCHEM_IUPAC_INCHIKEY>
VLRYIIPJIVGFIV-XSDXNTANSA-N

>  <PUBCHEM_XLOGP3_AA>
7.6

>  <PUBCHEM_EXACT_MASS>
442.381

>  <PUBCHEM_MOLECULAR_FORMULA>
C30H50O2

>  <PUBCHEM_MOLECULAR_WEIGHT>
442.728

>  <PUBCHEM_OPENEYE_CAN_SMILES>
CC1(CCC2(C(C1)C3=CCC4C5(CCC(C(C5CCC4(C3(CC2O)C)C)(C)C)O)C)C)C

>  <PUBCHEM_OPENEYE_ISO_SMILES>
C[C@]12CC[C@@H](C([C@@H]1CC[C@@]3(C2CC=C4[C@]3(C[C@@H]([C@@]5([C@H]4CC(CC5)(C)C)C)O)C)C)(C)C)O

>  <PUBCHEM_CACTVS_TPSA>
40.5

>  <PUBCHEM_MONOISOTOPIC_WEIGHT>
442.381

>  <PUBCHEM_TOTAL_CHARGE>
0

>  <PUBCHEM_HEAVY_ATOM_COUNT>
32

>  <PUBCHEM_ATOM_DEF_STEREO_COUNT>
8

>  <PUBCHEM_ATOM_UDEF_STEREO_COUNT>
1

>  <PUBCHEM_BOND_DEF_STEREO_COUNT>
0

>  <PUBCHEM_BOND_UDEF_STEREO_COUNT>
0

>  <PUBCHEM_ISOTOPIC_ATOM_COUNT>
0

>  <PUBCHEM_COMPONENT_COUNT>
1

>  <PUBCHEM_CACTVS_TAUTO_COUNT>
1

>  <PUBCHEM_COORDINATE_TYPE>
1
5
255

>  <PUBCHEM_BONDANNOTATIONS>
17  1  6
10  37  6
12  28  6
20  2  6
3  18  6
4  15  3
5  21  6
6  22  5
7  34  5

$$$$
