12305823
 OpenBabel06101807152D

 53 55  0  0  0  0  0  0  0  0999 V2000
    6.0682   -1.8518    0.0000 O   0  0  0  0  0  0  0  0  0  0  0  0
    7.8167    1.1827    0.0000 O   0  0  0  0  0  0  0  0  0  0  0  0
    9.5984   -1.8760    0.0000 O   0  0  0  0  0  0  0  0  0  0  0  0
    6.0682    1.1482    0.0000 O   0  0  0  0  0  0  0  0  0  0  0  0
    4.3198   -2.8864    0.0000 O   0  0  0  0  0  0  0  0  0  0  0  0
    2.5381   -1.8760    0.0000 O   0  0  0  0  0  0  0  0  0  0  0  0
    9.5984    0.1723    0.0000 C   0  0  0  0  0  0  0  0  0  0  0  0
    8.7343   -0.3310    0.0000 C   0  0  0  0  0  0  0  0  0  0  0  0
    6.9343   -0.3519    0.0000 C   0  0  0  0  0  0  0  0  0  0  0  0
    7.8282    0.1828    0.0000 C   0  0  0  0  0  0  0  0  0  0  0  0
   10.1017   -0.6918    0.0000 C   0  0  0  0  0  0  0  0  0  0  0  0
    9.0950    1.0364    0.0000 C   0  0  0  0  0  0  0  0  0  0  0  0
    6.9343   -1.3518    0.0000 C   0  0  0  0  0  0  0  0  0  0  0  0
    8.7343   -1.3727    0.0000 C   0  0  0  0  0  0  0  0  0  0  0  0
    5.2022   -0.3519    0.0000 C   0  0  0  0  0  0  0  0  0  0  0  0
    6.0682    0.1481    0.0000 C   0  0  0  0  0  0  0  0  0  0  0  0
   10.4625    0.6756    0.0000 C   0  0  0  0  0  0  0  0  0  0  0  0
    5.2022   -1.3518    0.0000 C   0  0  0  0  0  0  0  0  0  0  0  0
    7.8282   -1.8865    0.0000 C   0  0  0  0  0  0  0  0  0  0  0  0
    4.3083    0.1828    0.0000 C   0  0  0  0  0  0  0  0  0  0  0  0
    4.3198    1.1827    0.0000 C   0  0  0  0  0  0  0  0  0  0  0  0
    4.3083   -1.8865    0.0000 C   0  0  0  0  0  0  0  0  0  0  0  0
    3.4022   -0.3310    0.0000 C   0  0  0  0  0  0  0  0  0  0  0  0
    3.4022   -1.3727    0.0000 C   0  0  0  0  0  0  0  0  0  0  0  0
   11.3304    0.1790    0.0000 C   0  0  0  0  0  0  0  0  0  0  0  0
    3.4597    1.6927    0.0000 C   0  0  0  0  0  0  0  0  0  0  0  0
    3.4712    2.6927    0.0000 C   0  0  0  0  0  0  0  0  0  0  0  0
    2.6110    3.2026    0.0000 C   0  0  0  0  0  0  0  0  0  0  0  0
    4.3430    3.1826    0.0000 C   0  0  0  0  0  0  0  0  0  0  0  0
    9.5660   -1.0039    0.0000 H   0  0  0  0  0  0  0  0  0  0  0  0
   10.4138   -1.2275    0.0000 H   0  0  0  0  0  0  0  0  0  0  0  0
   10.6375   -0.3797    0.0000 H   0  0  0  0  0  0  0  0  0  0  0  0
    9.6308    1.3485    0.0000 H   0  0  0  0  0  0  0  0  0  0  0  0
    8.7830    1.5721    0.0000 H   0  0  0  0  0  0  0  0  0  0  0  0
    8.5593    0.7243    0.0000 H   0  0  0  0  0  0  0  0  0  0  0  0
   10.4601    1.2956    0.0000 H   0  0  0  0  0  0  0  0  0  0  0  0
    7.8210   -2.5065    0.0000 H   0  0  0  0  0  0  0  0  0  0  0  0
    4.9291    1.0680    0.0000 H   0  0  0  0  0  0  0  0  0  0  0  0
    4.5386    1.7629    0.0000 H   0  0  0  0  0  0  0  0  0  0  0  0
    2.8665   -0.0190    0.0000 H   0  0  0  0  0  0  0  0  0  0  0  0
    7.2762    1.4865    0.0000 H   0  0  0  0  0  0  0  0  0  0  0  0
   11.3328   -0.4410    0.0000 H   0  0  0  0  0  0  0  0  0  0  0  0
   11.8662    0.4910    0.0000 H   0  0  0  0  0  0  0  0  0  0  0  0
    2.9192    1.3889    0.0000 H   0  0  0  0  0  0  0  0  0  0  0  0
    9.5960   -2.4960    0.0000 H   0  0  0  0  0  0  0  0  0  0  0  0
    3.7865   -3.2026    0.0000 H   0  0  0  0  0  0  0  0  0  0  0  0
    2.0000   -1.5681    0.0000 H   0  0  0  0  0  0  0  0  0  0  0  0
    2.9272    3.7360    0.0000 H   0  0  0  0  0  0  0  0  0  0  0  0
    2.0777    3.5188    0.0000 H   0  0  0  0  0  0  0  0  0  0  0  0
    4.6468    2.6421    0.0000 H   0  0  0  0  0  0  0  0  0  0  0  0
    4.8835    3.4864    0.0000 H   0  0  0  0  0  0  0  0  0  0  0  0
    4.0392    3.7231    0.0000 H   0  0  0  0  0  0  0  0  0  0  0  0
    2.2948    2.6693    0.0000 H   0  0  0  0  0  0  0  0  0  0  0  0
  1 13  1  0  0  0  0
  1 18  1  0  0  0  0
  2 10  1  0  0  0  0
  2 41  1  0  0  0  0
  3 14  1  0  0  0  0
  3 45  1  0  0  0  0
  4 16  2  0  0  0  0
  5 22  1  0  0  0  0
  5 46  1  0  0  0  0
  6 24  1  0  0  0  0
  6 47  1  0  0  0  0
  7  8  1  0  0  0  0
  7 11  1  0  0  0  0
  7 12  1  0  0  0  0
  7 17  1  0  0  0  0
  8 10  2  0  0  0  0
  8 14  1  0  0  0  0
  9 10  1  0  0  0  0
  9 13  2  0  0  0  0
  9 16  1  0  0  0  0
 11 30  1  0  0  0  0
 11 31  1  0  0  0  0
 11 32  1  0  0  0  0
 12 33  1  0  0  0  0
 12 34  1  0  0  0  0
 12 35  1  0  0  0  0
 13 19  1  0  0  0  0
 14 19  2  0  0  0  0
 15 16  1  0  0  0  0
 15 18  2  0  0  0  0
 15 20  1  0  0  0  0
 17 25  2  0  0  0  0
 17 36  1  0  0  0  0
 18 22  1  0  0  0  0
 19 37  1  0  0  0  0
 20 21  1  0  0  0  0
 20 23  2  0  0  0  0
 21 26  1  0  0  0  0
 21 38  1  0  0  0  0
 21 39  1  0  0  0  0
 22 24  2  0  0  0  0
 23 24  1  0  0  0  0
 23 40  1  0  0  0  0
 25 42  1  0  0  0  0
 25 43  1  0  0  0  0
 26 27  2  0  0  0  0
 26 44  1  0  0  0  0
 27 28  1  0  0  0  0
 27 29  1  0  0  0  0
 28 48  1  0  0  0  0
 28 49  1  0  0  0  0
 28 53  1  0  0  0  0
 29 50  1  0  0  0  0
 29 51  1  0  0  0  0
 29 52  1  0  0  0  0
M  END
>  <PUBCHEM_COMPOUND_CID>
12305823

>  <PUBCHEM_COMPOUND_CANONICALIZED>
1

>  <PUBCHEM_CACTVS_COMPLEXITY>
666

>  <PUBCHEM_CACTVS_HBOND_ACCEPTOR>
6

>  <PUBCHEM_CACTVS_HBOND_DONOR>
4

>  <PUBCHEM_CACTVS_ROTATABLE_BOND>
4

>  <PUBCHEM_CACTVS_SUBSKEYS>
AAADceB4OAAAAAAAAAAAAAAAAAAAAAAAAAA0YIAAAAAAAACRQAAAGgAACAAADgSAmAAyBoAABgCIAqBSAAACCAAkIAAIiAEGiMgNJzaGNRqCeWOl4BULuQeK7PzPoAADCAAYQABAAAYQADCAAAAAAAAAAA==

>  <PUBCHEM_IUPAC_OPENEYE_NAME>
2-(1,1-dimethylallyl)-1,3,5,6-tetrahydroxy-8-(3-methylbut-2-enyl)xanthen-9-one

>  <PUBCHEM_IUPAC_CAS_NAME>
1,3,5,6-tetrahydroxy-2-(2-methylbut-3-en-2-yl)-8-(3-methylbut-2-enyl)-9-xanthenone

>  <PUBCHEM_IUPAC_NAME>
1,3,5,6-tetrahydroxy-2-(2-methylbut-3-en-2-yl)-8-(3-methylbut-2-enyl)xanthen-9-one

>  <PUBCHEM_IUPAC_SYSTEMATIC_NAME>
2-(2-methylbut-3-en-2-yl)-8-(3-methylbut-2-enyl)-1,3,5,6-tetrakis(oxidanyl)xanthen-9-one

>  <PUBCHEM_IUPAC_TRADITIONAL_NAME>
2-(1,1-dimethylallyl)-1,3,5,6-tetrahydroxy-8-(3-methylbut-2-enyl)xanthone

>  <PUBCHEM_IUPAC_INCHI>
InChI=1S/C23H24O6/c1-6-23(4,5)18-13(24)10-15-17(21(18)28)20(27)16-12(8-7-11(2)3)9-14(25)19(26)22(16)29-15/h6-7,9-10,24-26,28H,1,8H2,2-5H3

>  <PUBCHEM_IUPAC_INCHIKEY>
IXUNODGMZUQIQP-UHFFFAOYSA-N

>  <PUBCHEM_XLOGP3_AA>
6

>  <PUBCHEM_EXACT_MASS>
396.157

>  <PUBCHEM_MOLECULAR_FORMULA>
C23H24O6

>  <PUBCHEM_MOLECULAR_WEIGHT>
396.439

>  <PUBCHEM_OPENEYE_CAN_SMILES>
CC(=CCC1=CC(=C(C2=C1C(=O)C3=C(C(=C(C=C3O2)O)C(C)(C)C=C)O)O)O)C

>  <PUBCHEM_OPENEYE_ISO_SMILES>
CC(=CCC1=CC(=C(C2=C1C(=O)C3=C(C(=C(C=C3O2)O)C(C)(C)C=C)O)O)O)C

>  <PUBCHEM_CACTVS_TPSA>
107

>  <PUBCHEM_MONOISOTOPIC_WEIGHT>
396.157

>  <PUBCHEM_TOTAL_CHARGE>
0

>  <PUBCHEM_HEAVY_ATOM_COUNT>
29

>  <PUBCHEM_ATOM_DEF_STEREO_COUNT>
0

>  <PUBCHEM_ATOM_UDEF_STEREO_COUNT>
0

>  <PUBCHEM_BOND_DEF_STEREO_COUNT>
0

>  <PUBCHEM_BOND_UDEF_STEREO_COUNT>
0

>  <PUBCHEM_ISOTOPIC_ATOM_COUNT>
0

>  <PUBCHEM_COMPONENT_COUNT>
1

>  <PUBCHEM_CACTVS_TAUTO_COUNT>
444

>  <PUBCHEM_COORDINATE_TYPE>
1
5
255

>  <PUBCHEM_BONDANNOTATIONS>
1  13  8
1  18  8
13  19  8
14  19  8
15  16  8
15  18  8
15  20  8
18  22  8
20  23  8
22  24  8
23  24  8
8  10  8
8  14  8
9  10  8
9  13  8
9  16  8

$$$$
