12308984
 OpenBabel06101807152D

 53 56  0  0  1  0  0  0  0  0999 V2000
    4.2690   -1.6796    0.0000 O   0  0  0  0  0  0  0  0  0  0  0  0
    6.0010   -1.6796    0.0000 O   0  0  0  0  0  0  0  0  0  0  0  0
    4.2690   -4.6796    0.0000 O   0  0  0  0  0  0  0  0  0  0  0  0
    2.5369   -3.6796    0.0000 O   0  0  0  0  0  0  0  0  0  0  0  0
    6.0010   -3.6796    0.0000 O   0  0  0  0  0  0  0  0  0  0  0  0
    7.7570    1.3829    0.0000 O   0  0  0  0  0  0  0  0  0  0  0  0
    4.2548    1.3996    0.0000 O   0  0  0  0  0  0  0  0  0  0  0  0
    5.1647    2.8930    0.0000 O   0  0  0  0  0  0  0  0  0  0  0  0
   11.2249    2.3696    0.0000 O   0  0  0  0  0  0  0  0  0  0  0  0
   11.2326    4.3696    0.0000 O   0  0  0  0  0  0  0  0  0  0  0  0
    4.2690   -3.6796    0.0000 C   0  0  3  0  0  0  0  0  0  0  0  0
    3.4030   -3.1796    0.0000 C   0  0  3  0  0  0  0  0  0  0  0  0
    5.1350   -3.1796    0.0000 C   0  0  3  0  0  0  0  0  0  0  0  0
    3.4030   -2.1796    0.0000 C   0  0  3  0  0  0  0  0  0  0  0  0
    5.1350   -2.1796    0.0000 C   0  0  3  0  0  0  0  0  0  0  0  0
    2.5369   -1.6796    0.0000 C   0  0  0  0  0  0  0  0  0  0  0  0
    6.0010   -0.6796    0.0000 C   0  0  0  0  0  0  0  0  0  0  0  0
    7.7609    2.3829    0.0000 C   0  0  3  0  0  0  0  0  0  0  0  0
    6.8968    2.8863    0.0000 C   0  0  0  0  0  0  0  0  0  0  0  0
    6.8891    0.8863    0.0000 C   0  0  0  0  0  0  0  0  0  0  0  0
    6.0250    1.3896    0.0000 C   0  0  0  0  0  0  0  0  0  0  0  0
    6.9011   -0.1553    0.0000 C   0  0  0  0  0  0  0  0  0  0  0  0
    6.0288    2.3896    0.0000 C   0  0  0  0  0  0  0  0  0  0  0  0
    5.1010   -0.1553    0.0000 C   0  0  0  0  0  0  0  0  0  0  0  0
    5.1130    0.8863    0.0000 C   0  0  0  0  0  0  0  0  0  0  0  0
    8.6288    2.8796    0.0000 C   0  0  0  0  0  0  0  0  0  0  0  0
    9.4929    2.3763    0.0000 C   0  0  0  0  0  0  0  0  0  0  0  0
    8.6327    3.8796    0.0000 C   0  0  0  0  0  0  0  0  0  0  0  0
   10.3608    2.8729    0.0000 C   0  0  0  0  0  0  0  0  0  0  0  0
    9.5006    4.3762    0.0000 C   0  0  0  0  0  0  0  0  0  0  0  0
   10.3647    3.8729    0.0000 C   0  0  0  0  0  0  0  0  0  0  0  0
    4.8059   -3.9896    0.0000 H   0  0  0  0  0  0  0  0  0  0  0  0
    3.4030   -3.7996    0.0000 H   0  0  0  0  0  0  0  0  0  0  0  0
    5.6720   -2.8696    0.0000 H   0  0  0  0  0  0  0  0  0  0  0  0
    3.4030   -1.5596    0.0000 H   0  0  0  0  0  0  0  0  0  0  0  0
    5.1350   -1.5596    0.0000 H   0  0  0  0  0  0  0  0  0  0  0  0
    2.8469   -1.1426    0.0000 H   0  0  0  0  0  0  0  0  0  0  0  0
    2.0000   -1.3696    0.0000 H   0  0  0  0  0  0  0  0  0  0  0  0
    2.2269   -2.2165    0.0000 H   0  0  0  0  0  0  0  0  0  0  0  0
    3.7320   -4.9896    0.0000 H   0  0  0  0  0  0  0  0  0  0  0  0
    2.0000   -3.3696    0.0000 H   0  0  0  0  0  0  0  0  0  0  0  0
    6.0010   -4.2996    0.0000 H   0  0  0  0  0  0  0  0  0  0  0  0
    7.7632    3.0029    0.0000 H   0  0  0  0  0  0  0  0  0  0  0  0
    7.2971    3.3597    0.0000 H   0  0  0  0  0  0  0  0  0  0  0  0
    6.5001    3.3628    0.0000 H   0  0  0  0  0  0  0  0  0  0  0  0
    7.4404   -0.4611    0.0000 H   0  0  0  0  0  0  0  0  0  0  0  0
    4.5617   -0.4611    0.0000 H   0  0  0  0  0  0  0  0  0  0  0  0
    9.4905    1.7563    0.0000 H   0  0  0  0  0  0  0  0  0  0  0  0
    8.0969    4.1916    0.0000 H   0  0  0  0  0  0  0  0  0  0  0  0
    9.5030    4.9962    0.0000 H   0  0  0  0  0  0  0  0  0  0  0  0
    3.7132    1.0979    0.0000 H   0  0  0  0  0  0  0  0  0  0  0  0
   11.7631    2.6775    0.0000 H   0  0  0  0  0  0  0  0  0  0  0  0
   11.2350    4.9896    0.0000 H   0  0  0  0  0  0  0  0  0  0  0  0
  1 14  1  0  0  0  0
  1 15  1  0  0  0  0
  2 15  1  0  0  0  0
  2 17  1  0  0  0  0
  3 11  1  0  0  0  0
  3 40  1  0  0  0  0
  4 12  1  0  0  0  0
  4 41  1  0  0  0  0
  5 13  1  0  0  0  0
  5 42  1  0  0  0  0
  6 18  1  0  0  0  0
  6 20  1  0  0  0  0
  7 25  1  0  0  0  0
  7 51  1  0  0  0  0
  8 23  2  0  0  0  0
  9 29  1  0  0  0  0
  9 52  1  0  0  0  0
 10 31  1  0  0  0  0
 10 53  1  0  0  0  0
 11 12  1  0  0  0  0
 11 13  1  0  0  0  0
 11 32  1  0  0  0  0
 12 14  1  0  0  0  0
 12 33  1  0  0  0  0
 13 15  1  0  0  0  0
 13 34  1  0  0  0  0
 14 16  1  0  0  0  0
 14 35  1  0  0  0  0
 15 36  1  0  0  0  0
 16 37  1  0  0  0  0
 16 38  1  0  0  0  0
 16 39  1  0  0  0  0
 17 22  1  0  0  0  0
 17 24  2  0  0  0  0
 18 19  1  0  0  0  0
 18 26  1  0  0  0  0
 18 43  1  0  0  0  0
 19 23  1  0  0  0  0
 19 44  1  0  0  0  0
 19 45  1  0  0  0  0
 20 21  1  0  0  0  0
 20 22  2  0  0  0  0
 21 23  1  0  0  0  0
 21 25  2  0  0  0  0
 22 46  1  0  0  0  0
 24 25  1  0  0  0  0
 24 47  1  0  0  0  0
 26 27  2  0  0  0  0
 26 28  1  0  0  0  0
 27 29  1  0  0  0  0
 27 48  1  0  0  0  0
 28 30  2  0  0  0  0
 28 49  1  0  0  0  0
 29 31  2  0  0  0  0
 30 31  1  0  0  0  0
 30 50  1  0  0  0  0
M  END
>  <PUBCHEM_COMPOUND_CID>
12308984

>  <PUBCHEM_COMPOUND_CANONICALIZED>
1

>  <PUBCHEM_CACTVS_COMPLEXITY>
646

>  <PUBCHEM_CACTVS_HBOND_ACCEPTOR>
10

>  <PUBCHEM_CACTVS_HBOND_DONOR>
6

>  <PUBCHEM_CACTVS_ROTATABLE_BOND>
3

>  <PUBCHEM_CACTVS_SUBSKEYS>
AAADceB4PAAAAAAAAAAAAAAAAAAAAAAAAAA0aIEAAAAAAACRQAAAGgAACAAADBSwmAMyDoAABgCIAqBSAAACCAAkIAAIiAEGiMgdNzaGNRqieWGl4BUPuQfI7PzOIAABCAAIQABAAAIQABCAAAAAAAAAAA==

>  <PUBCHEM_IUPAC_OPENEYE_NAME>
2-(3,4-dihydroxyphenyl)-5-hydroxy-7-(3,4,5-trihydroxy-6-methyl-tetrahydropyran-2-yl)oxy-chroman-4-one

>  <PUBCHEM_IUPAC_CAS_NAME>
2-(3,4-dihydroxyphenyl)-5-hydroxy-7-[(3,4,5-trihydroxy-6-methyl-2-oxanyl)oxy]-3,4-dihydro-2H-1-benzopyran-4-one

>  <PUBCHEM_IUPAC_NAME>
2-(3,4-dihydroxyphenyl)-5-hydroxy-7-(3,4,5-trihydroxy-6-methyloxan-2-yl)oxy-2,3-dihydrochromen-4-one

>  <PUBCHEM_IUPAC_SYSTEMATIC_NAME>
2-[3,4-bis(oxidanyl)phenyl]-7-[6-methyl-3,4,5-tris(oxidanyl)oxan-2-yl]oxy-5-oxidanyl-2,3-dihydrochromen-4-one

>  <PUBCHEM_IUPAC_TRADITIONAL_NAME>
2-(3,4-dihydroxyphenyl)-5-hydroxy-7-(3,4,5-trihydroxy-6-methyl-tetrahydropyran-2-yl)oxy-chroman-4-one

>  <PUBCHEM_IUPAC_INCHI>
InChI=1S/C21H22O10/c1-8-18(26)19(27)20(28)21(29-8)30-10-5-13(24)17-14(25)7-15(31-16(17)6-10)9-2-3-11(22)12(23)4-9/h2-6,8,15,18-24,26-28H,7H2,1H3

>  <PUBCHEM_IUPAC_INCHIKEY>
JMVXRLMOIOTWSB-UHFFFAOYSA-N

>  <PUBCHEM_XLOGP3_AA>
0.7

>  <PUBCHEM_EXACT_MASS>
434.121

>  <PUBCHEM_MOLECULAR_FORMULA>
C21H22O10

>  <PUBCHEM_MOLECULAR_WEIGHT>
434.397

>  <PUBCHEM_OPENEYE_CAN_SMILES>
CC1C(C(C(C(O1)OC2=CC(=C3C(=O)CC(OC3=C2)C4=CC(=C(C=C4)O)O)O)O)O)O

>  <PUBCHEM_OPENEYE_ISO_SMILES>
CC1C(C(C(C(O1)OC2=CC(=C3C(=O)CC(OC3=C2)C4=CC(=C(C=C4)O)O)O)O)O)O

>  <PUBCHEM_CACTVS_TPSA>
166

>  <PUBCHEM_MONOISOTOPIC_WEIGHT>
434.121

>  <PUBCHEM_TOTAL_CHARGE>
0

>  <PUBCHEM_HEAVY_ATOM_COUNT>
31

>  <PUBCHEM_ATOM_DEF_STEREO_COUNT>
0

>  <PUBCHEM_ATOM_UDEF_STEREO_COUNT>
6

>  <PUBCHEM_BOND_DEF_STEREO_COUNT>
0

>  <PUBCHEM_BOND_UDEF_STEREO_COUNT>
0

>  <PUBCHEM_ISOTOPIC_ATOM_COUNT>
0

>  <PUBCHEM_COMPONENT_COUNT>
1

>  <PUBCHEM_CACTVS_TAUTO_COUNT>
90

>  <PUBCHEM_COORDINATE_TYPE>
1
5
255

>  <PUBCHEM_BONDANNOTATIONS>
14  16  3
17  22  8
17  24  8
18  26  3
15  2  3
20  21  8
20  22  8
21  25  8
24  25  8
26  27  8
26  28  8
27  29  8
28  30  8
29  31  8
11  3  3
30  31  8
12  4  3
13  5  3

$$$$
