12310190
 OpenBabel06101807152D

 53 56  0  0  1  0  0  0  0  0999 V2000
    6.5434    3.5692    0.0000 O   0  0  0  0  0  0  0  0  0  0  0  0
    2.6198   -2.4784    0.0000 O   0  0  0  0  0  0  0  0  0  0  0  0
    7.3668   -0.9947    0.0000 O   0  0  0  0  0  0  0  0  0  0  0  0
    2.5385    0.4674    0.0000 O   0  0  0  0  0  0  0  0  0  0  0  0
    6.1677   -2.2445    0.0000 O   0  0  0  0  0  0  0  0  0  0  0  0
    3.2846   -3.1320    0.0000 O   0  0  0  0  0  0  0  0  0  0  0  0
    5.0164   -3.1623    0.0000 O   0  0  0  0  0  0  0  0  0  0  0  0
    5.8209    0.4036    0.0000 C   0  0  1  0  0  0  0  0  0  0  0  0
    4.9199    0.8375    0.0000 C   0  0  2  0  0  0  0  0  0  0  0  0
    4.2348    0.1172    0.0000 C   0  0  1  0  0  0  0  0  0  0  0  0
    4.7066   -0.7578    0.0000 C   0  0  2  0  0  0  0  0  0  0  0  0
    5.6849   -0.5811    0.0000 C   0  0  2  0  0  0  0  0  0  0  0  0
    5.7140    1.5804    0.0000 C   0  0  0  0  0  0  0  0  0  0  0  0
    6.3209    2.5942    0.0000 C   0  0  2  0  0  0  0  0  0  0  0  0
    6.7218    0.8375    0.0000 C   0  0  0  0  0  0  0  0  0  0  0  0
    4.1767   -1.6474    0.0000 C   0  0  2  0  0  0  0  0  0  0  0  0
    4.6974    1.8124    0.0000 C   0  0  0  0  0  0  0  0  0  0  0  0
    3.2003    0.1632    0.0000 C   0  0  0  0  0  0  0  0  0  0  0  0
    5.3209    2.5942    0.0000 C   0  0  0  0  0  0  0  0  0  0  0  0
    6.9444    1.8124    0.0000 C   0  0  0  0  0  0  0  0  0  0  0  0
    3.1415   -1.6253    0.0000 C   0  0  2  0  0  0  0  0  0  0  0  0
    2.6500   -0.7139    0.0000 C   0  0  0  0  0  0  0  0  0  0  0  0
    3.4877    0.7820    0.0000 C   0  0  0  0  0  0  0  0  0  0  0  0
    6.4065   -1.2734    0.0000 C   0  0  0  0  0  0  0  0  0  0  0  0
    5.0338   -2.1625    0.0000 C   0  0  0  0  0  0  0  0  0  0  0  0
    4.1592   -2.6472    0.0000 C   0  0  0  0  0  0  0  0  0  0  0  0
    7.9193    2.0349    0.0000 C   0  0  0  0  0  0  0  0  0  0  0  0
    4.1541    1.2063    0.0000 H   0  0  0  0  0  0  0  0  0  0  0  0
    5.1908   -1.4564    0.0000 H   0  0  0  0  0  0  0  0  0  0  0  0
    6.2705   -0.3776    0.0000 H   0  0  0  0  0  0  0  0  0  0  0  0
    5.3062    2.0474    0.0000 H   0  0  0  0  0  0  0  0  0  0  0  0
    5.1440    1.3365    0.0000 H   0  0  0  0  0  0  0  0  0  0  0  0
    6.8598    0.2330    0.0000 H   0  0  0  0  0  0  0  0  0  0  0  0
    7.3418    0.8375    0.0000 H   0  0  0  0  0  0  0  0  0  0  0  0
    4.3108    2.2971    0.0000 H   0  0  0  0  0  0  0  0  0  0  0  0
    4.1388    1.5434    0.0000 H   0  0  0  0  0  0  0  0  0  0  0  0
    3.3335    0.7688    0.0000 H   0  0  0  0  0  0  0  0  0  0  0  0
    2.6265    0.3980    0.0000 H   0  0  0  0  0  0  0  0  0  0  0  0
    5.4588    3.1987    0.0000 H   0  0  0  0  0  0  0  0  0  0  0  0
    4.7623    2.8632    0.0000 H   0  0  0  0  0  0  0  0  0  0  0  0
    3.4389   -2.1693    0.0000 H   0  0  0  0  0  0  0  0  0  0  0  0
    2.1890   -0.2994    0.0000 H   0  0  0  0  0  0  0  0  0  0  0  0
    2.1627   -1.0972    0.0000 H   0  0  0  0  0  0  0  0  0  0  0  0
    3.6131    1.3892    0.0000 H   0  0  0  0  0  0  0  0  0  0  0  0
    4.7145   -2.6939    0.0000 H   0  0  0  0  0  0  0  0  0  0  0  0
    5.5653   -2.4818    0.0000 H   0  0  0  0  0  0  0  0  0  0  0  0
    5.3532   -1.6310    0.0000 H   0  0  0  0  0  0  0  0  0  0  0  0
    7.1358    3.7519    0.0000 H   0  0  0  0  0  0  0  0  0  0  0  0
    8.3410    1.5804    0.0000 H   0  0  0  0  0  0  0  0  0  0  0  0
    8.1020    2.6274    0.0000 H   0  0  0  0  0  0  0  0  0  0  0  0
    2.0000   -2.4628    0.0000 H   0  0  0  0  0  0  0  0  0  0  0  0
    7.8142   -1.4239    0.0000 H   0  0  0  0  0  0  0  0  0  0  0  0
    3.2737   -3.7519    0.0000 H   0  0  0  0  0  0  0  0  0  0  0  0
  1 48  1  0  0  0  0
  2 51  1  0  0  0  0
  3 24  1  0  0  0  0
  3 52  1  0  0  0  0
  4 23  2  0  0  0  0
  5 24  2  0  0  0  0
  6 26  1  0  0  0  0
  6 53  1  0  0  0  0
  7 26  2  0  0  0  0
  8  9  1  1  0  0  0
  8 13  1  0  0  0  0
  8 15  1  0  0  0  0
  9 10  1  6  0  0  0
  9 17  1  0  0  0  0
  9 28  1  0  0  0  0
 10 11  1  6  0  0  0
 10 18  1  0  0  0  0
 10 23  1  0  0  0  0
 11 12  1  6  0  0  0
 11 29  1  0  0  0  0
 12  8  1  1  0  0  0
 12 24  1  0  0  0  0
 12 30  1  0  0  0  0
 13 14  1  0  0  0  0
 13 31  1  0  0  0  0
 13 32  1  0  0  0  0
 14  1  1  6  0  0  0
 14 19  1  0  0  0  0
 14 20  1  0  0  0  0
 15 20  1  0  0  0  0
 15 33  1  0  0  0  0
 15 34  1  0  0  0  0
 16 11  1  6  0  0  0
 16 25  1  0  0  0  0
 16 26  1  0  0  0  0
 17 19  1  0  0  0  0
 17 35  1  0  0  0  0
 17 36  1  0  0  0  0
 18 22  1  0  0  0  0
 18 37  1  0  0  0  0
 18 38  1  0  0  0  0
 19 39  1  0  0  0  0
 19 40  1  0  0  0  0
 20 27  2  0  0  0  0
 21  2  1  0  0  0  0
 21 16  1  1  0  0  0
 21 22  1  0  0  0  0
 21 41  1  0  0  0  0
 22 42  1  0  0  0  0
 22 43  1  0  0  0  0
 23 44  1  0  0  0  0
 25 45  1  0  0  0  0
 25 46  1  0  0  0  0
 25 47  1  0  0  0  0
 27 49  1  0  0  0  0
 27 50  1  0  0  0  0
M  END
>  <PUBCHEM_COMPOUND_CID>
12310190

>  <PUBCHEM_COMPOUND_CANONICALIZED>
1

>  <PUBCHEM_CACTVS_COMPLEXITY>
761

>  <PUBCHEM_CACTVS_HBOND_ACCEPTOR>
7

>  <PUBCHEM_CACTVS_HBOND_DONOR>
4

>  <PUBCHEM_CACTVS_ROTATABLE_BOND>
3

>  <PUBCHEM_CACTVS_SUBSKEYS>
AAADceB4OAAAAAAAAAAAAAAAAAAAAYMAAAAwYAAABgAAAGDAAAAAGgAACAAAD1SggAICCAAAAgCIAgjSiAAAAAAgAAAAAAEAAAgAFBYAAQAAQAAFoAAAEAGI7vTPgAAAAAAAAADAAAYAADAAAYAACAAAAA==

>  <PUBCHEM_IUPAC_INCHI>
InChI=1S/C20H26O7/c1-10-7-19-8-20(10,27)6-3-11(19)18(9-21)5-4-12(22)17(2,16(25)26)14(18)13(19)15(23)24/h9,11-14,22,27H,1,3-8H2,2H3,(H,23,24)(H,25,26)/t11-,12-,13+,14+,17+,18+,19-,20-/m0/s1

>  <PUBCHEM_IUPAC_INCHIKEY>
HRIAGYDCQBIJJM-ARCJWRNYSA-N

>  <PUBCHEM_XLOGP3_AA>
0.1

>  <PUBCHEM_EXACT_MASS>
378.168

>  <PUBCHEM_MOLECULAR_FORMULA>
C20H26O7

>  <PUBCHEM_MOLECULAR_WEIGHT>
378.421

>  <PUBCHEM_OPENEYE_CAN_SMILES>
CC1(C(CCC2(C1C(C34C2CCC(C3)(C(=C)C4)O)C(=O)O)C=O)O)C(=O)O

>  <PUBCHEM_OPENEYE_ISO_SMILES>
C[C@]1([C@H](CC[C@@]2([C@@H]1[C@@H]([C@]34[C@H]2CC[C@](C3)(C(=C)C4)O)C(=O)O)C=O)O)C(=O)O

>  <PUBCHEM_CACTVS_TPSA>
132

>  <PUBCHEM_MONOISOTOPIC_WEIGHT>
378.168

>  <PUBCHEM_TOTAL_CHARGE>
0

>  <PUBCHEM_HEAVY_ATOM_COUNT>
27

>  <PUBCHEM_ATOM_DEF_STEREO_COUNT>
8

>  <PUBCHEM_ATOM_UDEF_STEREO_COUNT>
0

>  <PUBCHEM_BOND_DEF_STEREO_COUNT>
0

>  <PUBCHEM_BOND_UDEF_STEREO_COUNT>
0

>  <PUBCHEM_ISOTOPIC_ATOM_COUNT>
0

>  <PUBCHEM_COMPONENT_COUNT>
1

>  <PUBCHEM_CACTVS_TAUTO_COUNT>
1

>  <PUBCHEM_COORDINATE_TYPE>
1
5
255

>  <PUBCHEM_BONDANNOTATIONS>
14  1  6
10  23  6
11  29  5
12  24  5
16  25  5
21  2  5
8  13  6
9  28  5

$$$$
