12315466
 OpenBabel06101807152D

 39 40  0  0  0  0  0  0  0  0999 V2000
    5.6023    0.1224    0.0000 O   0  0  0  0  0  0  0  0  0  0  0  0
    2.5000    1.4001    0.0000 O   0  0  0  0  0  0  0  0  0  0  0  0
    4.2508    0.9310    0.0000 O   0  0  0  0  0  0  0  0  0  0  0  0
    4.6561   -1.1824    0.0000 C   0  0  0  0  0  0  0  0  0  0  0  0
    4.6561   -0.1824    0.0000 C   0  0  0  0  0  0  0  0  0  0  0  0
    3.7900    0.3176    0.0000 C   0  0  0  0  0  0  0  0  0  0  0  0
    3.7900   -1.6824    0.0000 C   0  0  0  0  0  0  0  0  0  0  0  0
    3.7900    1.3176    0.0000 C   0  0  0  0  0  0  0  0  0  0  0  0
    2.0580    0.3176    0.0000 C   0  0  0  0  0  0  0  0  0  0  0  0
    2.0580    1.3176    0.0000 C   0  0  0  0  0  0  0  0  0  0  0  0
    5.6023   -1.4871    0.0000 C   0  0  0  0  0  0  0  0  0  0  0  0
    2.9240   -0.1824    0.0000 C   0  0  0  0  0  0  0  0  0  0  0  0
    2.9240   -1.1824    0.0000 C   0  0  0  0  0  0  0  0  0  0  0  0
    2.9240    1.8176    0.0000 C   0  0  0  0  0  0  0  0  0  0  0  0
    6.1859   -0.6824    0.0000 C   0  0  0  0  0  0  0  0  0  0  0  0
    4.6561    1.8176    0.0000 C   0  0  0  0  0  0  0  0  0  0  0  0
    5.9130   -2.4376    0.0000 C   0  0  0  0  0  0  0  0  0  0  0  0
    3.2660    0.7573    0.0000 C   0  0  0  0  0  0  0  0  0  0  0  0
    2.0000    2.2661    0.0000 C   0  0  0  0  0  0  0  0  0  0  0  0
    3.1795    0.4253    0.0000 H   0  0  0  0  0  0  0  0  0  0  0  0
    3.5780   -0.2650    0.0000 H   0  0  0  0  0  0  0  0  0  0  0  0
    3.3915   -2.1573    0.0000 H   0  0  0  0  0  0  0  0  0  0  0  0
    4.1886   -2.1573    0.0000 H   0  0  0  0  0  0  0  0  0  0  0  0
    1.4474    0.4253    0.0000 H   0  0  0  0  0  0  0  0  0  0  0  0
    1.8460   -0.2650    0.0000 H   0  0  0  0  0  0  0  0  0  0  0  0
    1.8460    1.9002    0.0000 H   0  0  0  0  0  0  0  0  0  0  0  0
    1.4474    1.2100    0.0000 H   0  0  0  0  0  0  0  0  0  0  0  0
    2.3871   -1.4924    0.0000 H   0  0  0  0  0  0  0  0  0  0  0  0
    2.9240    2.4376    0.0000 H   0  0  0  0  0  0  0  0  0  0  0  0
    6.8059   -0.6824    0.0000 H   0  0  0  0  0  0  0  0  0  0  0  0
    4.9661    1.2807    0.0000 H   0  0  0  0  0  0  0  0  0  0  0  0
    5.1930    2.1276    0.0000 H   0  0  0  0  0  0  0  0  0  0  0  0
    4.3461    2.3546    0.0000 H   0  0  0  0  0  0  0  0  0  0  0  0
    5.3236   -2.6302    0.0000 H   0  0  0  0  0  0  0  0  0  0  0  0
    6.1056   -3.0269    0.0000 H   0  0  0  0  0  0  0  0  0  0  0  0
    6.5023   -2.2450    0.0000 H   0  0  0  0  0  0  0  0  0  0  0  0
    2.5369    2.5761    0.0000 H   0  0  0  0  0  0  0  0  0  0  0  0
    1.6900    2.8031    0.0000 H   0  0  0  0  0  0  0  0  0  0  0  0
    1.4631    1.9561    0.0000 H   0  0  0  0  0  0  0  0  0  0  0  0
  1  5  1  0  0  0  0
  1 15  1  0  0  0  0
  2 18  1  0  0  0  0
  2 19  1  0  0  0  0
  3 18  2  0  0  0  0
  4  5  2  0  0  0  0
  4  7  1  0  0  0  0
  4 11  1  0  0  0  0
  5  6  1  0  0  0  0
  6  8  1  0  0  0  0
  6 20  1  0  0  0  0
  6 21  1  0  0  0  0
  7 13  1  0  0  0  0
  7 22  1  0  0  0  0
  7 23  1  0  0  0  0
  8 14  2  0  0  0  0
  8 16  1  0  0  0  0
  9 10  1  0  0  0  0
  9 12  1  0  0  0  0
  9 24  1  0  0  0  0
  9 25  1  0  0  0  0
 10 14  1  0  0  0  0
 10 26  1  0  0  0  0
 10 27  1  0  0  0  0
 11 15  2  0  0  0  0
 11 17  1  0  0  0  0
 12 13  2  0  0  0  0
 12 18  1  0  0  0  0
 13 28  1  0  0  0  0
 14 29  1  0  0  0  0
 15 30  1  0  0  0  0
 16 31  1  0  0  0  0
 16 32  1  0  0  0  0
 16 33  1  0  0  0  0
 17 34  1  0  0  0  0
 17 35  1  0  0  0  0
 17 36  1  0  0  0  0
 19 37  1  0  0  0  0
 19 38  1  0  0  0  0
 19 39  1  0  0  0  0
M  END
>  <PUBCHEM_COMPOUND_CID>
12315466

>  <PUBCHEM_COMPOUND_CANONICALIZED>
1

>  <PUBCHEM_CACTVS_COMPLEXITY>
395

>  <PUBCHEM_CACTVS_HBOND_ACCEPTOR>
3

>  <PUBCHEM_CACTVS_HBOND_DONOR>
0

>  <PUBCHEM_CACTVS_ROTATABLE_BOND>
2

>  <PUBCHEM_CACTVS_SUBSKEYS>
AAADceB4MAAAAAAAAAAAAAAAAAAAASAAAAAAAAAAAAAAAACBgAAAGgAAAAAADASgmAIiDIAABECIAqjSiAACCAAkIAAAiAEECMgMJjKENRqCGSCkwBEIqYeIyGCOgAAAAAAAAAAAAAAAAAAAAAAAAAAAAA==

>  <PUBCHEM_IUPAC_OPENEYE_NAME>
methyl (5Z,9Z)-3,10-dimethyl-4,7,8,11-tetrahydrocyclodeca[b]furan-6-carboxylate

>  <PUBCHEM_IUPAC_CAS_NAME>
(5Z,9Z)-3,10-dimethyl-4,7,8,11-tetrahydrocyclodeca[b]furan-6-carboxylic acid methyl ester

>  <PUBCHEM_IUPAC_NAME>
methyl (5Z,9Z)-3,10-dimethyl-4,7,8,11-tetrahydrocyclodeca[b]furan-6-carboxylate

>  <PUBCHEM_IUPAC_SYSTEMATIC_NAME>
methyl (5Z,9Z)-3,10-dimethyl-4,7,8,11-tetrahydrocyclodeca[b]furan-6-carboxylate

>  <PUBCHEM_IUPAC_TRADITIONAL_NAME>
(5Z,9Z)-3,10-dimethyl-4,7,8,11-tetrahydrocyclodeca[b]furan-6-carboxylic acid methyl ester

>  <PUBCHEM_IUPAC_INCHI>
InChI=1S/C16H20O3/c1-11-5-4-6-13(16(17)18-3)7-8-14-12(2)10-19-15(14)9-11/h5,7,10H,4,6,8-9H2,1-3H3/b11-5-,13-7-

>  <PUBCHEM_IUPAC_INCHIKEY>
JTPNVTVKRKPGBJ-ISWNZBHVSA-N

>  <PUBCHEM_XLOGP3_AA>
3.3

>  <PUBCHEM_EXACT_MASS>
260.141

>  <PUBCHEM_MOLECULAR_FORMULA>
C16H20O3

>  <PUBCHEM_MOLECULAR_WEIGHT>
260.333

>  <PUBCHEM_OPENEYE_CAN_SMILES>
CC1=CCCC(=CCC2=C(C1)OC=C2C)C(=O)OC

>  <PUBCHEM_OPENEYE_ISO_SMILES>
C/C/1=C/CC/C(=C/CC2=C(C1)OC=C2C)/C(=O)OC

>  <PUBCHEM_CACTVS_TPSA>
39.4

>  <PUBCHEM_MONOISOTOPIC_WEIGHT>
260.141

>  <PUBCHEM_TOTAL_CHARGE>
0

>  <PUBCHEM_HEAVY_ATOM_COUNT>
19

>  <PUBCHEM_ATOM_DEF_STEREO_COUNT>
0

>  <PUBCHEM_ATOM_UDEF_STEREO_COUNT>
0

>  <PUBCHEM_BOND_DEF_STEREO_COUNT>
2

>  <PUBCHEM_BOND_UDEF_STEREO_COUNT>
0

>  <PUBCHEM_ISOTOPIC_ATOM_COUNT>
0

>  <PUBCHEM_COMPONENT_COUNT>
1

>  <PUBCHEM_CACTVS_TAUTO_COUNT>
1

>  <PUBCHEM_COORDINATE_TYPE>
1
5
255

>  <PUBCHEM_BONDANNOTATIONS>
1  15  8
1  5  8
11  15  8
4  11  8
4  5  8

$$$$
