12310178
 OpenBabel06101807152D

 50 54  0  0  1  0  0  0  0  0999 V2000
    5.0414   -0.7862    0.0000 O   0  0  0  0  0  0  0  0  0  0  0  0
    6.7168   -0.9668    0.0000 O   0  0  0  0  0  0  0  0  0  0  0  0
    4.6745   -2.6221    0.0000 O   0  0  0  0  0  0  0  0  0  0  0  0
    5.8643   -2.2398    0.0000 O   0  0  0  0  0  0  0  0  0  0  0  0
    5.1708    0.4315    0.0000 C   0  0  3  0  0  0  0  0  0  0  0  0
    3.5848    0.1450    0.0000 C   0  0  3  0  0  0  0  0  0  0  0  0
    4.2699    0.8653    0.0000 C   0  0  3  0  0  0  0  0  0  0  0  0
    4.0566   -0.7299    0.0000 C   0  0  3  0  0  0  0  0  0  0  0  0
    5.0349   -0.5533    0.0000 C   0  0  3  0  0  0  0  0  0  0  0  0
    3.5267   -1.6195    0.0000 C   0  0  3  0  0  0  0  0  0  0  0  0
    5.0640    1.6082    0.0000 C   0  0  0  0  0  0  0  0  0  0  0  0
    6.0718    0.8653    0.0000 C   0  0  0  0  0  0  0  0  0  0  0  0
    4.0474    1.8403    0.0000 C   0  0  0  0  0  0  0  0  0  0  0  0
    5.6708    2.6221    0.0000 C   0  0  3  0  0  0  0  0  0  0  0  0
    2.5503    0.1911    0.0000 C   0  0  0  0  0  0  0  0  0  0  0  0
    4.5781    0.0940    0.0000 C   0  0  0  0  0  0  0  0  0  0  0  0
    4.6708    2.6221    0.0000 C   0  0  0  0  0  0  0  0  0  0  0  0
    2.4915   -1.5974    0.0000 C   0  0  0  0  0  0  0  0  0  0  0  0
    6.2943    1.8403    0.0000 C   0  0  0  0  0  0  0  0  0  0  0  0
    2.0000   -0.6860    0.0000 C   0  0  0  0  0  0  0  0  0  0  0  0
    4.5212   -1.6339    0.0000 C   0  0  0  0  0  0  0  0  0  0  0  0
    5.7565   -1.2456    0.0000 C   0  0  0  0  0  0  0  0  0  0  0  0
    3.5088   -2.6194    0.0000 C   0  0  0  0  0  0  0  0  0  0  0  0
    7.2693    2.0628    0.0000 C   0  0  0  0  0  0  0  0  0  0  0  0
    4.7546    1.2519    0.0000 H   0  0  0  0  0  0  0  0  0  0  0  0
    4.4098   -1.2395    0.0000 H   0  0  0  0  0  0  0  0  0  0  0  0
    4.8558   -1.1468    0.0000 H   0  0  0  0  0  0  0  0  0  0  0  0
    4.6562    2.0752    0.0000 H   0  0  0  0  0  0  0  0  0  0  0  0
    4.4940    1.3644    0.0000 H   0  0  0  0  0  0  0  0  0  0  0  0
    6.2098    0.2609    0.0000 H   0  0  0  0  0  0  0  0  0  0  0  0
    6.6918    0.8653    0.0000 H   0  0  0  0  0  0  0  0  0  0  0  0
    3.6608    2.3250    0.0000 H   0  0  0  0  0  0  0  0  0  0  0  0
    3.4888    1.5713    0.0000 H   0  0  0  0  0  0  0  0  0  0  0  0
    5.9399    3.1807    0.0000 H   0  0  0  0  0  0  0  0  0  0  0  0
    2.6835    0.7966    0.0000 H   0  0  0  0  0  0  0  0  0  0  0  0
    1.9765    0.4259    0.0000 H   0  0  0  0  0  0  0  0  0  0  0  0
    5.1693    0.2807    0.0000 H   0  0  0  0  0  0  0  0  0  0  0  0
    4.4994    0.7090    0.0000 H   0  0  0  0  0  0  0  0  0  0  0  0
    4.8088    3.2266    0.0000 H   0  0  0  0  0  0  0  0  0  0  0  0
    4.1123    2.8911    0.0000 H   0  0  0  0  0  0  0  0  0  0  0  0
    1.9034   -1.7940    0.0000 H   0  0  0  0  0  0  0  0  0  0  0  0
    2.5845   -2.2104    0.0000 H   0  0  0  0  0  0  0  0  0  0  0  0
    1.5390   -0.2715    0.0000 H   0  0  0  0  0  0  0  0  0  0  0  0
    1.5127   -1.0693    0.0000 H   0  0  0  0  0  0  0  0  0  0  0  0
    2.8889   -2.6083    0.0000 H   0  0  0  0  0  0  0  0  0  0  0  0
    3.4977   -3.2393    0.0000 H   0  0  0  0  0  0  0  0  0  0  0  0
    4.1287   -2.6305    0.0000 H   0  0  0  0  0  0  0  0  0  0  0  0
    7.6910    1.6083    0.0000 H   0  0  0  0  0  0  0  0  0  0  0  0
    7.4520    2.6552    0.0000 H   0  0  0  0  0  0  0  0  0  0  0  0
    7.1642   -1.3961    0.0000 H   0  0  0  0  0  0  0  0  0  0  0  0
  1 16  1  0  0  0  0
  1 21  1  0  0  0  0
  2 22  1  0  0  0  0
  2 50  1  0  0  0  0
  3 21  2  0  0  0  0
  4 22  2  0  0  0  0
  5  7  1  0  0  0  0
  5  9  1  0  0  0  0
  5 11  1  0  0  0  0
  5 12  1  0  0  0  0
  6  7  1  0  0  0  0
  6  8  1  0  0  0  0
  6 15  1  0  0  0  0
  6 16  1  0  0  0  0
  7 13  1  0  0  0  0
  7 25  1  0  0  0  0
  8  9  1  0  0  0  0
  8 10  1  0  0  0  0
  8 26  1  0  0  0  0
  9 22  1  0  0  0  0
  9 27  1  0  0  0  0
 10 18  1  0  0  0  0
 10 21  1  0  0  0  0
 10 23  1  0  0  0  0
 11 14  1  0  0  0  0
 11 28  1  0  0  0  0
 11 29  1  0  0  0  0
 12 19  1  0  0  0  0
 12 30  1  0  0  0  0
 12 31  1  0  0  0  0
 13 17  1  0  0  0  0
 13 32  1  0  0  0  0
 13 33  1  0  0  0  0
 14 17  1  0  0  0  0
 14 19  1  0  0  0  0
 14 34  1  0  0  0  0
 15 20  1  0  0  0  0
 15 35  1  0  0  0  0
 15 36  1  0  0  0  0
 16 37  1  0  0  0  0
 16 38  1  0  0  0  0
 17 39  1  0  0  0  0
 17 40  1  0  0  0  0
 18 20  1  0  0  0  0
 18 41  1  0  0  0  0
 18 42  1  0  0  0  0
 19 24  2  0  0  0  0
 20 43  1  0  0  0  0
 20 44  1  0  0  0  0
 23 45  1  0  0  0  0
 23 46  1  0  0  0  0
 23 47  1  0  0  0  0
 24 48  1  0  0  0  0
 24 49  1  0  0  0  0
M  END
>  <PUBCHEM_COMPOUND_CID>
12310178

>  <PUBCHEM_COMPOUND_CANONICALIZED>
1

>  <PUBCHEM_CACTVS_COMPLEXITY>
669

>  <PUBCHEM_CACTVS_HBOND_ACCEPTOR>
4

>  <PUBCHEM_CACTVS_HBOND_DONOR>
1

>  <PUBCHEM_CACTVS_ROTATABLE_BOND>
1

>  <PUBCHEM_CACTVS_SUBSKEYS>
AAADceB4OAAAAAAAAAAAAAAAAAAAAYMAAAA0YIAABgASAGjAAAAAGgAACAAADwCggAICCAAABgCIAgDSCAAAAAAgAAAAAAEAAAgAABIAAQACQAAEgAAAAAGI7viPgAAAAAAAAACAAAQAACAAAQAACAAAAA==

>  <PUBCHEM_IUPAC_INCHI>
InChI=1S/C20H26O4/c1-11-8-20-9-12(11)4-5-13(20)19-7-3-6-18(2,17(23)24-10-19)15(19)14(20)16(21)22/h12-15H,1,3-10H2,2H3,(H,21,22)

>  <PUBCHEM_IUPAC_INCHIKEY>
MXCOJKLBLFWFNI-UHFFFAOYSA-N

>  <PUBCHEM_XLOGP3_AA>
3.3

>  <PUBCHEM_EXACT_MASS>
330.183

>  <PUBCHEM_MOLECULAR_FORMULA>
C20H26O4

>  <PUBCHEM_MOLECULAR_WEIGHT>
330.424

>  <PUBCHEM_OPENEYE_CAN_SMILES>
CC12CCCC3(C1C(C45C3CCC(C4)C(=C)C5)C(=O)O)COC2=O

>  <PUBCHEM_OPENEYE_ISO_SMILES>
CC12CCCC3(C1C(C45C3CCC(C4)C(=C)C5)C(=O)O)COC2=O

>  <PUBCHEM_CACTVS_TPSA>
63.6

>  <PUBCHEM_MONOISOTOPIC_WEIGHT>
330.183

>  <PUBCHEM_TOTAL_CHARGE>
0

>  <PUBCHEM_HEAVY_ATOM_COUNT>
24

>  <PUBCHEM_ATOM_DEF_STEREO_COUNT>
0

>  <PUBCHEM_ATOM_UDEF_STEREO_COUNT>
7

>  <PUBCHEM_BOND_DEF_STEREO_COUNT>
0

>  <PUBCHEM_BOND_UDEF_STEREO_COUNT>
0

>  <PUBCHEM_ISOTOPIC_ATOM_COUNT>
0

>  <PUBCHEM_COMPONENT_COUNT>
1

>  <PUBCHEM_CACTVS_TAUTO_COUNT>
1

>  <PUBCHEM_COORDINATE_TYPE>
1
5
255

>  <PUBCHEM_BONDANNOTATIONS>
10  23  3
14  11  3
5  11  3
6  16  3
7  13  3
8  9  3
9  22  3

$$$$
