12314812
 OpenBabel06101807152D

 32 34  0  0  0  0  0  0  0  0999 V2000
    2.5836   -2.0894    0.0000 O   0  0  0  0  0  0  0  0  0  0  0  0
    5.2619   -0.7846    0.0000 C   0  0  0  0  0  0  0  0  0  0  0  0
    4.3958   -0.2846    0.0000 C   0  0  0  0  0  0  0  0  0  0  0  0
    6.1719   -0.2778    0.0000 C   0  0  0  0  0  0  0  0  0  0  0  0
    6.1799    0.7638    0.0000 C   0  0  0  0  0  0  0  0  0  0  0  0
    3.5298   -0.7846    0.0000 C   0  0  0  0  0  0  0  0  0  0  0  0
    5.2619   -1.7846    0.0000 C   0  0  0  0  0  0  0  0  0  0  0  0
    5.2778    1.2846    0.0000 C   0  0  0  0  0  0  0  0  0  0  0  0
    4.3798    0.7569    0.0000 C   0  0  0  0  0  0  0  0  0  0  0  0
    3.5298   -1.7846    0.0000 C   0  0  0  0  0  0  0  0  0  0  0  0
    4.3958   -2.2846    0.0000 C   0  0  0  0  0  0  0  0  0  0  0  0
    2.5836   -0.4799    0.0000 C   0  0  0  0  0  0  0  0  0  0  0  0
    6.1279   -2.2846    0.0000 C   0  0  0  0  0  0  0  0  0  0  0  0
    5.2740    2.2846    0.0000 C   0  0  0  0  0  0  0  0  0  0  0  0
    2.0000   -1.2846    0.0000 C   0  0  0  0  0  0  0  0  0  0  0  0
    2.2729    0.4706    0.0000 C   0  0  0  0  0  0  0  0  0  0  0  0
    6.3764   -0.8631    0.0000 H   0  0  0  0  0  0  0  0  0  0  0  0
    6.7835   -0.1764    0.0000 H   0  0  0  0  0  0  0  0  0  0  0  0
    6.7899    0.6530    0.0000 H   0  0  0  0  0  0  0  0  0  0  0  0
    6.3935    1.3459    0.0000 H   0  0  0  0  0  0  0  0  0  0  0  0
    3.8393    1.0607    0.0000 H   0  0  0  0  0  0  0  0  0  0  0  0
    4.3958   -2.9046    0.0000 H   0  0  0  0  0  0  0  0  0  0  0  0
    5.8179   -2.8216    0.0000 H   0  0  0  0  0  0  0  0  0  0  0  0
    6.6648   -2.5946    0.0000 H   0  0  0  0  0  0  0  0  0  0  0  0
    6.4379   -1.7477    0.0000 H   0  0  0  0  0  0  0  0  0  0  0  0
    5.8940    2.2870    0.0000 H   0  0  0  0  0  0  0  0  0  0  0  0
    5.2716    2.9046    0.0000 H   0  0  0  0  0  0  0  0  0  0  0  0
    4.6540    2.2822    0.0000 H   0  0  0  0  0  0  0  0  0  0  0  0
    1.3800   -1.2846    0.0000 H   0  0  0  0  0  0  0  0  0  0  0  0
    2.8623    0.6632    0.0000 H   0  0  0  0  0  0  0  0  0  0  0  0
    2.0803    1.0600    0.0000 H   0  0  0  0  0  0  0  0  0  0  0  0
    1.6836    0.2780    0.0000 H   0  0  0  0  0  0  0  0  0  0  0  0
  1 10  1  0  0  0  0
  1 15  1  0  0  0  0
  2  3  2  0  0  0  0
  2  4  1  0  0  0  0
  2  7  1  0  0  0  0
  3  6  1  0  0  0  0
  3  9  1  0  0  0  0
  4  5  1  0  0  0  0
  4 17  1  0  0  0  0
  4 18  1  0  0  0  0
  5  8  1  0  0  0  0
  5 19  1  0  0  0  0
  5 20  1  0  0  0  0
  6 10  2  0  0  0  0
  6 12  1  0  0  0  0
  7 11  2  0  0  0  0
  7 13  1  0  0  0  0
  8  9  2  0  0  0  0
  8 14  1  0  0  0  0
  9 21  1  0  0  0  0
 10 11  1  0  0  0  0
 11 22  1  0  0  0  0
 12 15  2  0  0  0  0
 12 16  1  0  0  0  0
 13 23  1  0  0  0  0
 13 24  1  0  0  0  0
 13 25  1  0  0  0  0
 14 26  1  0  0  0  0
 14 27  1  0  0  0  0
 14 28  1  0  0  0  0
 15 29  1  0  0  0  0
 16 30  1  0  0  0  0
 16 31  1  0  0  0  0
 16 32  1  0  0  0  0
M  END
>  <PUBCHEM_COMPOUND_CID>
12314812

>  <PUBCHEM_COMPOUND_CANONICALIZED>
1

>  <PUBCHEM_CACTVS_COMPLEXITY>
307

>  <PUBCHEM_CACTVS_HBOND_ACCEPTOR>
1

>  <PUBCHEM_CACTVS_HBOND_DONOR>
0

>  <PUBCHEM_CACTVS_ROTATABLE_BOND>
0

>  <PUBCHEM_CACTVS_SUBSKEYS>
AAADceBwIAAAAAAAAAAAAAAAAAAAASAAAAAwQAAAAAAAAEiB8AAAGgAAAAAADASgmAIyBsAABECIAqhSgAACCAAkIAAAiAEGCMgMJjKENRqCOSCkwBEIqQeIyPCO4AADAAAYAADAAAYAADAAAAAAAAAAAA==

>  <PUBCHEM_IUPAC_OPENEYE_NAME>
1,5,8-trimethyl-6,7-dihydrobenzo[e]benzofuran

>  <PUBCHEM_IUPAC_CAS_NAME>
1,5,8-trimethyl-6,7-dihydrobenzo[e]benzofuran

>  <PUBCHEM_IUPAC_NAME>
1,5,8-trimethyl-6,7-dihydrobenzo[e][1]benzofuran

>  <PUBCHEM_IUPAC_SYSTEMATIC_NAME>
1,5,8-trimethyl-6,7-dihydrobenzo[e][1]benzofuran

>  <PUBCHEM_IUPAC_TRADITIONAL_NAME>
1,5,8-trimethyl-6,7-dihydrobenzo[e]benzofuran

>  <PUBCHEM_IUPAC_INCHI>
InChI=1S/C15H16O/c1-9-4-5-12-10(2)7-14-15(13(12)6-9)11(3)8-16-14/h6-8H,4-5H2,1-3H3

>  <PUBCHEM_IUPAC_INCHIKEY>
JSWOSPDHAFLJHZ-UHFFFAOYSA-N

>  <PUBCHEM_XLOGP3_AA>
4.1

>  <PUBCHEM_EXACT_MASS>
212.12

>  <PUBCHEM_MOLECULAR_FORMULA>
C15H16O

>  <PUBCHEM_MOLECULAR_WEIGHT>
212.292

>  <PUBCHEM_OPENEYE_CAN_SMILES>
CC1=CC2=C(CC1)C(=CC3=C2C(=CO3)C)C

>  <PUBCHEM_OPENEYE_ISO_SMILES>
CC1=CC2=C(CC1)C(=CC3=C2C(=CO3)C)C

>  <PUBCHEM_CACTVS_TPSA>
13.1

>  <PUBCHEM_MONOISOTOPIC_WEIGHT>
212.12

>  <PUBCHEM_TOTAL_CHARGE>
0

>  <PUBCHEM_HEAVY_ATOM_COUNT>
16

>  <PUBCHEM_ATOM_DEF_STEREO_COUNT>
0

>  <PUBCHEM_ATOM_UDEF_STEREO_COUNT>
0

>  <PUBCHEM_BOND_DEF_STEREO_COUNT>
0

>  <PUBCHEM_BOND_UDEF_STEREO_COUNT>
0

>  <PUBCHEM_ISOTOPIC_ATOM_COUNT>
0

>  <PUBCHEM_COMPONENT_COUNT>
1

>  <PUBCHEM_CACTVS_TAUTO_COUNT>
1

>  <PUBCHEM_COORDINATE_TYPE>
1
5
255

>  <PUBCHEM_BONDANNOTATIONS>
1  10  8
1  15  8
10  11  8
12  15  8
2  3  8
2  7  8
3  6  8
6  10  8
6  12  8
7  11  8

$$$$
