12315074
 OpenBabel06101807152D

 83 87  0  0  1  0  0  0  0  0999 V2000
   10.9848    3.0930    0.0000 O   0  0  0  0  0  0  0  0  0  0  0  0
    3.3248    0.8814    0.0000 O   0  0  0  0  0  0  0  0  0  0  0  0
   11.6174    0.6329    0.0000 O   0  0  0  0  0  0  0  0  0  0  0  0
    3.8493   -3.0931    0.0000 O   0  0  0  0  0  0  0  0  0  0  0  0
    5.5813   -3.1064    0.0000 O   0  0  0  0  0  0  0  0  0  0  0  0
    7.3770   -0.0513    0.0000 C   0  0  3  0  0  0  0  0  0  0  0  0
    7.3770    0.9487    0.0000 C   0  0  3  0  0  0  0  0  0  0  0  0
    8.2709    1.4833    0.0000 C   0  0  3  0  0  0  0  0  0  0  0  0
    6.5109   -0.5513    0.0000 C   0  0  3  0  0  0  0  0  0  0  0  0
    9.1770    0.9695    0.0000 C   0  0  3  0  0  0  0  0  0  0  0  0
    8.2709   -0.5860    0.0000 C   0  0  0  0  0  0  0  0  0  0  0  0
    5.6449   -0.0513    0.0000 C   0  0  0  0  0  0  0  0  0  0  0  0
    9.1770   -0.0722    0.0000 C   0  0  0  0  0  0  0  0  0  0  0  0
    4.7349   -0.5582    0.0000 C   0  0  3  0  0  0  0  0  0  0  0  0
   10.1208    1.5047    0.0000 C   0  0  3  0  0  0  0  0  0  0  0  0
    6.5109    1.4487    0.0000 C   0  0  0  0  0  0  0  0  0  0  0  0
    6.5270   -1.5928    0.0000 C   0  0  0  0  0  0  0  0  0  0  0  0
    4.7269   -1.5998    0.0000 C   0  0  3  0  0  0  0  0  0  0  0  0
    8.2458    2.5680    0.0000 C   0  0  0  0  0  0  0  0  0  0  0  0
    5.6290   -2.1206    0.0000 C   0  0  0  0  0  0  0  0  0  0  0  0
    7.7191   -0.9910    0.0000 C   0  0  0  0  0  0  0  0  0  0  0  0
    5.6449    0.9487    0.0000 C   0  0  0  0  0  0  0  0  0  0  0  0
   10.1208    2.5897    0.0000 C   0  0  3  0  0  0  0  0  0  0  0  0
    3.8081    0.0059    0.0000 C   0  0  3  0  0  0  0  0  0  0  0  0
    7.4010    1.9766    0.0000 C   0  0  0  0  0  0  0  0  0  0  0  0
    9.1770    3.1250    0.0000 C   0  0  0  0  0  0  0  0  0  0  0  0
    7.1537   -1.3174    0.0000 C   0  0  0  0  0  0  0  0  0  0  0  0
    3.7914   -2.1495    0.0000 C   0  0  0  0  0  0  0  0  0  0  0  0
    2.8602   -0.5220    0.0000 C   0  0  3  0  0  0  0  0  0  0  0  0
   11.1207    1.5009    0.0000 C   0  0  0  0  0  0  0  0  0  0  0  0
   10.6174    0.6368    0.0000 C   0  0  0  0  0  0  0  0  0  0  0  0
    2.8518   -1.6070    0.0000 C   0  0  0  0  0  0  0  0  0  0  0  0
    4.7192   -2.5997    0.0000 C   0  0  0  0  0  0  0  0  0  0  0  0
    4.3247    0.8621    0.0000 C   0  0  0  0  0  0  0  0  0  0  0  0
    2.0000   -0.0121    0.0000 C   0  0  0  0  0  0  0  0  0  0  0  0
    7.9163    0.6428    0.0000 H   0  0  0  0  0  0  0  0  0  0  0  0
    9.7127    0.6574    0.0000 H   0  0  0  0  0  0  0  0  0  0  0  0
    7.8663   -1.0558    0.0000 H   0  0  0  0  0  0  0  0  0  0  0  0
    8.6645   -1.0650    0.0000 H   0  0  0  0  0  0  0  0  0  0  0  0
    9.3860   -0.6558    0.0000 H   0  0  0  0  0  0  0  0  0  0  0  0
    9.7878    0.0339    0.0000 H   0  0  0  0  0  0  0  0  0  0  0  0
    4.7469    0.0617    0.0000 H   0  0  0  0  0  0  0  0  0  0  0  0
    6.9095    1.9236    0.0000 H   0  0  0  0  0  0  0  0  0  0  0  0
    6.1124    1.9236    0.0000 H   0  0  0  0  0  0  0  0  0  0  0  0
    6.7450   -2.1732    0.0000 H   0  0  0  0  0  0  0  0  0  0  0  0
    7.1361   -1.4773    0.0000 H   0  0  0  0  0  0  0  0  0  0  0  0
    8.0233    3.1467    0.0000 H   0  0  0  0  0  0  0  0  0  0  0  0
    7.6376    2.4478    0.0000 H   0  0  0  0  0  0  0  0  0  0  0  0
    5.2316   -2.5966    0.0000 H   0  0  0  0  0  0  0  0  0  0  0  0
    6.0299   -2.5935    0.0000 H   0  0  0  0  0  0  0  0  0  0  0  0
    7.1365   -1.2031    0.0000 H   0  0  0  0  0  0  0  0  0  0  0  0
    7.9312   -1.5736    0.0000 H   0  0  0  0  0  0  0  0  0  0  0  0
    8.3017   -0.7789    0.0000 H   0  0  0  0  0  0  0  0  0  0  0  0
    5.1080    1.2587    0.0000 H   0  0  0  0  0  0  0  0  0  0  0  0
   10.6583    2.2808    0.0000 H   0  0  0  0  0  0  0  0  0  0  0  0
    7.7069    2.5159    0.0000 H   0  0  0  0  0  0  0  0  0  0  0  0
    6.8617    2.2825    0.0000 H   0  0  0  0  0  0  0  0  0  0  0  0
    7.0952    1.4373    0.0000 H   0  0  0  0  0  0  0  0  0  0  0  0
    9.5706    3.6040    0.0000 H   0  0  0  0  0  0  0  0  0  0  0  0
    8.7724    3.5947    0.0000 H   0  0  0  0  0  0  0  0  0  0  0  0
    6.6788   -1.7159    0.0000 H   0  0  0  0  0  0  0  0  0  0  0  0
    7.5522   -1.7923    0.0000 H   0  0  0  0  0  0  0  0  0  0  0  0
    7.6287   -0.9189    0.0000 H   0  0  0  0  0  0  0  0  0  0  0  0
    3.3942   -2.6255    0.0000 H   0  0  0  0  0  0  0  0  0  0  0  0
    4.1924   -2.6224    0.0000 H   0  0  0  0  0  0  0  0  0  0  0  0
    2.8686    0.0979    0.0000 H   0  0  0  0  0  0  0  0  0  0  0  0
   11.7042    1.7107    0.0000 H   0  0  0  0  0  0  0  0  0  0  0  0
   11.0154    2.1118    0.0000 H   0  0  0  0  0  0  0  0  0  0  0  0
   10.0793    0.3288    0.0000 H   0  0  0  0  0  0  0  0  0  0  0  0
   10.9253    0.0986    0.0000 H   0  0  0  0  0  0  0  0  0  0  0  0
   11.1555    0.9447    0.0000 H   0  0  0  0  0  0  0  0  0  0  0  0
    2.2418   -1.4962    0.0000 H   0  0  0  0  0  0  0  0  0  0  0  0
    2.6383   -2.1891    0.0000 H   0  0  0  0  0  0  0  0  0  0  0  0
    4.8555    0.5418    0.0000 H   0  0  0  0  0  0  0  0  0  0  0  0
    4.6450    1.3930    0.0000 H   0  0  0  0  0  0  0  0  0  0  0  0
    3.7938    1.1824    0.0000 H   0  0  0  0  0  0  0  0  0  0  0  0
    2.3162    0.5212    0.0000 H   0  0  0  0  0  0  0  0  0  0  0  0
    1.4667    0.3041    0.0000 H   0  0  0  0  0  0  0  0  0  0  0  0
    1.6838   -0.5454    0.0000 H   0  0  0  0  0  0  0  0  0  0  0  0
   10.9825    3.7130    0.0000 H   0  0  0  0  0  0  0  0  0  0  0  0
    2.7050    0.8933    0.0000 H   0  0  0  0  0  0  0  0  0  0  0  0
   12.2374    0.6305    0.0000 H   0  0  0  0  0  0  0  0  0  0  0  0
    3.8445   -3.7130    0.0000 H   0  0  0  0  0  0  0  0  0  0  0  0
  1 23  1  0  0  0  0
  1 80  1  0  0  0  0
  2 24  1  0  0  0  0
  2 81  1  0  0  0  0
  3 30  1  0  0  0  0
  3 82  1  0  0  0  0
  4 33  1  0  0  0  0
  4 83  1  0  0  0  0
  5 33  2  0  0  0  0
  6  7  1  0  0  0  0
  6  9  1  0  0  0  0
  6 11  1  0  0  0  0
  6 21  1  0  0  0  0
  7  8  1  0  0  0  0
  7 16  1  0  0  0  0
  7 36  1  0  0  0  0
  8 10  1  0  0  0  0
  8 19  1  0  0  0  0
  8 25  1  0  0  0  0
  9 12  1  0  0  0  0
  9 17  1  0  0  0  0
  9 27  1  0  0  0  0
 10 13  1  0  0  0  0
 10 15  1  0  0  0  0
 10 37  1  0  0  0  0
 11 13  1  0  0  0  0
 11 38  1  0  0  0  0
 11 39  1  0  0  0  0
 12 14  1  0  0  0  0
 12 22  2  0  0  0  0
 13 40  1  0  0  0  0
 13 41  1  0  0  0  0
 14 18  1  0  0  0  0
 14 24  1  0  0  0  0
 14 42  1  0  0  0  0
 15 23  1  0  0  0  0
 15 30  1  0  0  0  0
 15 31  1  0  0  0  0
 16 22  1  0  0  0  0
 16 43  1  0  0  0  0
 16 44  1  0  0  0  0
 17 20  1  0  0  0  0
 17 45  1  0  0  0  0
 17 46  1  0  0  0  0
 18 20  1  0  0  0  0
 18 28  1  0  0  0  0
 18 33  1  0  0  0  0
 19 26  1  0  0  0  0
 19 47  1  0  0  0  0
 19 48  1  0  0  0  0
 20 49  1  0  0  0  0
 20 50  1  0  0  0  0
 21 51  1  0  0  0  0
 21 52  1  0  0  0  0
 21 53  1  0  0  0  0
 22 54  1  0  0  0  0
 23 26  1  0  0  0  0
 23 55  1  0  0  0  0
 24 29  1  0  0  0  0
 24 34  1  0  0  0  0
 25 56  1  0  0  0  0
 25 57  1  0  0  0  0
 25 58  1  0  0  0  0
 26 59  1  0  0  0  0
 26 60  1  0  0  0  0
 27 61  1  0  0  0  0
 27 62  1  0  0  0  0
 27 63  1  0  0  0  0
 28 32  1  0  0  0  0
 28 64  1  0  0  0  0
 28 65  1  0  0  0  0
 29 32  1  0  0  0  0
 29 35  1  0  0  0  0
 29 66  1  0  0  0  0
 30 67  1  0  0  0  0
 30 68  1  0  0  0  0
 31 69  1  0  0  0  0
 31 70  1  0  0  0  0
 31 71  1  0  0  0  0
 32 72  1  0  0  0  0
 32 73  1  0  0  0  0
 34 74  1  0  0  0  0
 34 75  1  0  0  0  0
 34 76  1  0  0  0  0
 35 77  1  0  0  0  0
 35 78  1  0  0  0  0
 35 79  1  0  0  0  0
M  END
>  <PUBCHEM_COMPOUND_CID>
12315074

>  <PUBCHEM_COMPOUND_CANONICALIZED>
1

>  <PUBCHEM_CACTVS_COMPLEXITY>
945

>  <PUBCHEM_CACTVS_HBOND_ACCEPTOR>
5

>  <PUBCHEM_CACTVS_HBOND_DONOR>
4

>  <PUBCHEM_CACTVS_ROTATABLE_BOND>
2

>  <PUBCHEM_CACTVS_SUBSKEYS>
AAADcfB4OAAAAAAAAAAAAAAAAAAAAAAAAAAwYMGCAAAAAADAAAAAGgAACAAAD1SggAICCAAAAgCIAiDSCAAAAAAgAAAACAEAAAgAEBIAAQAAQAAFwAAIAAPKyPCPgAAAAAAAAADAAAYAADAAAAAAAAAAAA==

>  <PUBCHEM_IUPAC_OPENEYE_NAME>
1,10-dihydroxy-9-(hydroxymethyl)-1,2,6a,6b,9,12a-hexamethyl-2,3,4,5,6,6a,7,8,8a,10,11,12,13,14b-tetradecahydropicene-4a-carboxylic acid

>  <PUBCHEM_IUPAC_CAS_NAME>
1,10-dihydroxy-9-(hydroxymethyl)-1,2,6a,6b,9,12a-hexamethyl-2,3,4,5,6,6a,7,8,8a,10,11,12,13,14b-tetradecahydropicene-4a-carboxylic acid

>  <PUBCHEM_IUPAC_NAME>
1,10-dihydroxy-9-(hydroxymethyl)-1,2,6a,6b,9,12a-hexamethyl-2,3,4,5,6,6a,7,8,8a,10,11,12,13,14b-tetradecahydropicene-4a-carboxylic acid

>  <PUBCHEM_IUPAC_SYSTEMATIC_NAME>
9-(hydroxymethyl)-1,2,6a,6b,9,12a-hexamethyl-1,10-bis(oxidanyl)-2,3,4,5,6,6a,7,8,8a,10,11,12,13,14b-tetradecahydropicene-4a-carboxylic acid

>  <PUBCHEM_IUPAC_TRADITIONAL_NAME>
1,10-dihydroxy-1,2,6a,6b,9,12a-hexamethyl-9-methylol-2,3,4,5,6,6a,7,8,8a,10,11,12,13,14b-tetradecahydropicene-4a-carboxylic acid

>  <PUBCHEM_IUPAC_INCHI>
InChI=1S/C30H48O5/c1-18-9-14-30(24(33)34)16-15-27(4)19(23(30)29(18,6)35)7-8-21-25(2)12-11-22(32)26(3,17-31)20(25)10-13-28(21,27)5/h7,18,20-23,31-32,35H,8-17H2,1-6H3,(H,33,34)

>  <PUBCHEM_IUPAC_INCHIKEY>
YLHQFGOOMKJFLP-UHFFFAOYSA-N

>  <PUBCHEM_XLOGP3_AA>
5.3

>  <PUBCHEM_EXACT_MASS>
488.35

>  <PUBCHEM_MOLECULAR_FORMULA>
C30H48O5

>  <PUBCHEM_MOLECULAR_WEIGHT>
488.709

>  <PUBCHEM_OPENEYE_CAN_SMILES>
CC1CCC2(CCC3(C(=CCC4C3(CCC5C4(CCC(C5(C)CO)O)C)C)C2C1(C)O)C)C(=O)O

>  <PUBCHEM_OPENEYE_ISO_SMILES>
CC1CCC2(CCC3(C(=CCC4C3(CCC5C4(CCC(C5(C)CO)O)C)C)C2C1(C)O)C)C(=O)O

>  <PUBCHEM_CACTVS_TPSA>
98

>  <PUBCHEM_MONOISOTOPIC_WEIGHT>
488.35

>  <PUBCHEM_TOTAL_CHARGE>
0

>  <PUBCHEM_HEAVY_ATOM_COUNT>
35

>  <PUBCHEM_ATOM_DEF_STEREO_COUNT>
0

>  <PUBCHEM_ATOM_UDEF_STEREO_COUNT>
11

>  <PUBCHEM_BOND_DEF_STEREO_COUNT>
0

>  <PUBCHEM_BOND_UDEF_STEREO_COUNT>
0

>  <PUBCHEM_ISOTOPIC_ATOM_COUNT>
0

>  <PUBCHEM_COMPONENT_COUNT>
1

>  <PUBCHEM_CACTVS_TAUTO_COUNT>
1

>  <PUBCHEM_COORDINATE_TYPE>
1
5
255

>  <PUBCHEM_BONDANNOTATIONS>
23  1  3
10  13  3
14  12  3
15  31  3
18  33  3
24  2  3
29  35  3
6  21  3
7  16  3
8  25  3
9  27  3

$$$$
