12313716
 OpenBabel06101807152D

 29 29  0  0  1  0  0  0  0  0999 V2000
    3.0000    2.9050    0.0000 O   0  0  0  0  0  0  0  0  0  0  0  0
    2.1340   -2.5950    0.0000 O   0  0  0  0  0  0  0  0  0  0  0  0
    3.8660   -2.5950    0.0000 O   0  0  0  0  0  0  0  0  0  0  0  0
    3.0000    0.9050    0.0000 C   0  0  3  0  0  0  0  0  0  0  0  0
    3.0000    1.9050    0.0000 C   0  0  0  0  0  0  0  0  0  0  0  0
    2.1340    0.4050    0.0000 C   0  0  0  0  0  0  0  0  0  0  0  0
    3.8660    0.4050    0.0000 C   0  0  0  0  0  0  0  0  0  0  0  0
    2.1340   -0.5950    0.0000 C   0  0  0  0  0  0  0  0  0  0  0  0
    3.8660   -0.5950    0.0000 C   0  0  0  0  0  0  0  0  0  0  0  0
    3.0000   -1.0950    0.0000 C   0  0  0  0  0  0  0  0  0  0  0  0
    4.0000    1.9050    0.0000 C   0  0  0  0  0  0  0  0  0  0  0  0
    2.0000    1.9050    0.0000 C   0  0  0  0  0  0  0  0  0  0  0  0
    3.0000   -2.0950    0.0000 C   0  0  0  0  0  0  0  0  0  0  0  0
    3.5369    1.2150    0.0000 H   0  0  0  0  0  0  0  0  0  0  0  0
    1.9219    0.9876    0.0000 H   0  0  0  0  0  0  0  0  0  0  0  0
    1.5234    0.2973    0.0000 H   0  0  0  0  0  0  0  0  0  0  0  0
    4.4766    0.2973    0.0000 H   0  0  0  0  0  0  0  0  0  0  0  0
    4.0781    0.9876    0.0000 H   0  0  0  0  0  0  0  0  0  0  0  0
    1.5234   -0.4873    0.0000 H   0  0  0  0  0  0  0  0  0  0  0  0
    1.9219   -1.1776    0.0000 H   0  0  0  0  0  0  0  0  0  0  0  0
    4.4030   -0.9050    0.0000 H   0  0  0  0  0  0  0  0  0  0  0  0
    4.0000    1.2850    0.0000 H   0  0  0  0  0  0  0  0  0  0  0  0
    4.6200    1.9050    0.0000 H   0  0  0  0  0  0  0  0  0  0  0  0
    4.0000    2.5250    0.0000 H   0  0  0  0  0  0  0  0  0  0  0  0
    2.0000    2.5250    0.0000 H   0  0  0  0  0  0  0  0  0  0  0  0
    1.3800    1.9050    0.0000 H   0  0  0  0  0  0  0  0  0  0  0  0
    2.0000    1.2850    0.0000 H   0  0  0  0  0  0  0  0  0  0  0  0
    3.5369    3.2150    0.0000 H   0  0  0  0  0  0  0  0  0  0  0  0
    2.1340   -3.2150    0.0000 H   0  0  0  0  0  0  0  0  0  0  0  0
  1  5  1  0  0  0  0
  1 28  1  0  0  0  0
  2 13  1  0  0  0  0
  2 29  1  0  0  0  0
  3 13  2  0  0  0  0
  4  5  1  0  0  0  0
  4  6  1  0  0  0  0
  4  7  1  0  0  0  0
  4 14  1  0  0  0  0
  5 11  1  0  0  0  0
  5 12  1  0  0  0  0
  6  8  1  0  0  0  0
  6 15  1  0  0  0  0
  6 16  1  0  0  0  0
  7  9  1  0  0  0  0
  7 17  1  0  0  0  0
  7 18  1  0  0  0  0
  8 10  1  0  0  0  0
  8 19  1  0  0  0  0
  8 20  1  0  0  0  0
  9 10  2  0  0  0  0
  9 21  1  0  0  0  0
 10 13  1  0  0  0  0
 11 22  1  0  0  0  0
 11 23  1  0  0  0  0
 11 24  1  0  0  0  0
 12 25  1  0  0  0  0
 12 26  1  0  0  0  0
 12 27  1  0  0  0  0
M  END
>  <PUBCHEM_COMPOUND_CID>
12313716

>  <PUBCHEM_COMPOUND_CANONICALIZED>
1

>  <PUBCHEM_CACTVS_COMPLEXITY>
241

>  <PUBCHEM_CACTVS_HBOND_ACCEPTOR>
3

>  <PUBCHEM_CACTVS_HBOND_DONOR>
2

>  <PUBCHEM_CACTVS_ROTATABLE_BOND>
2

>  <PUBCHEM_CACTVS_SUBSKEYS>
AAADceBwMAAAAAAAAAAAAAAAAAAAAAAAAAAgAAAAAAAAAAAAAAAAGgAACAAADUSAgAACCAAAAgCIAiDSCAAAAAAgAAAACAEAAEgABBIAAQAAUAAEgAAIEYOIyHCOgAAAAAAAAAAAAAAAAAAAAAAAAAAAAA==

>  <PUBCHEM_IUPAC_OPENEYE_NAME>
4-(1-hydroxy-1-methyl-ethyl)cyclohexene-1-carboxylic acid

>  <PUBCHEM_IUPAC_CAS_NAME>
4-(2-hydroxypropan-2-yl)-1-cyclohexenecarboxylic acid

>  <PUBCHEM_IUPAC_NAME>
4-(2-hydroxypropan-2-yl)cyclohexene-1-carboxylic acid

>  <PUBCHEM_IUPAC_SYSTEMATIC_NAME>
4-(2-oxidanylpropan-2-yl)cyclohexene-1-carboxylic acid

>  <PUBCHEM_IUPAC_TRADITIONAL_NAME>
4-(1-hydroxy-1-methyl-ethyl)cyclohexene-1-carboxylic acid

>  <PUBCHEM_IUPAC_INCHI>
InChI=1S/C10H16O3/c1-10(2,13)8-5-3-7(4-6-8)9(11)12/h3,8,13H,4-6H2,1-2H3,(H,11,12)

>  <PUBCHEM_IUPAC_INCHIKEY>
BFYWJELXORKNFO-UHFFFAOYSA-N

>  <PUBCHEM_XLOGP3_AA>
1.2

>  <PUBCHEM_EXACT_MASS>
184.11

>  <PUBCHEM_MOLECULAR_FORMULA>
C10H16O3

>  <PUBCHEM_MOLECULAR_WEIGHT>
184.235

>  <PUBCHEM_OPENEYE_CAN_SMILES>
CC(C)(C1CCC(=CC1)C(=O)O)O

>  <PUBCHEM_OPENEYE_ISO_SMILES>
CC(C)(C1CCC(=CC1)C(=O)O)O

>  <PUBCHEM_CACTVS_TPSA>
57.5

>  <PUBCHEM_MONOISOTOPIC_WEIGHT>
184.11

>  <PUBCHEM_TOTAL_CHARGE>
0

>  <PUBCHEM_HEAVY_ATOM_COUNT>
13

>  <PUBCHEM_ATOM_DEF_STEREO_COUNT>
0

>  <PUBCHEM_ATOM_UDEF_STEREO_COUNT>
1

>  <PUBCHEM_BOND_DEF_STEREO_COUNT>
0

>  <PUBCHEM_BOND_UDEF_STEREO_COUNT>
0

>  <PUBCHEM_ISOTOPIC_ATOM_COUNT>
0

>  <PUBCHEM_COMPONENT_COUNT>
1

>  <PUBCHEM_CACTVS_TAUTO_COUNT>
1

>  <PUBCHEM_COORDINATE_TYPE>
1
5
255

>  <PUBCHEM_BONDANNOTATIONS>
4  5  3

$$$$
