12312989
 OpenBabel06101807152D

 81 85  0  0  1  0  0  0  0  0999 V2000
   11.1246    2.5364    0.0000 O   0  0  0  0  0  0  0  0  0  0  0  0
    5.7847   -0.6080    0.0000 C   0  0  3  0  0  0  0  0  0  0  0  0
    6.6507   -1.1080    0.0000 C   0  0  3  0  0  0  0  0  0  0  0  0
    4.8746   -1.1148    0.0000 C   0  0  3  0  0  0  0  0  0  0  0  0
    4.8666   -2.1564    0.0000 C   0  0  3  0  0  0  0  0  0  0  0  0
    7.5167    0.3920    0.0000 C   0  0  3  0  0  0  0  0  0  0  0  0
    8.4106    0.9267    0.0000 C   0  0  3  0  0  0  0  0  0  0  0  0
    7.5167   -0.6080    0.0000 C   0  0  0  0  0  0  0  0  0  0  0  0
    5.7847    0.3920    0.0000 C   0  0  0  0  0  0  0  0  0  0  0  0
    6.6667   -2.1495    0.0000 C   0  0  0  0  0  0  0  0  0  0  0  0
    5.7687   -2.6772    0.0000 C   0  0  0  0  0  0  0  0  0  0  0  0
    9.3167    0.4128    0.0000 C   0  0  3  0  0  0  0  0  0  0  0  0
    6.6507    0.8920    0.0000 C   0  0  0  0  0  0  0  0  0  0  0  0
    3.9478   -0.5507    0.0000 C   0  0  0  0  0  0  0  0  0  0  0  0
    3.9312   -2.7062    0.0000 C   0  0  0  0  0  0  0  0  0  0  0  0
    2.9999   -1.0787    0.0000 C   0  0  0  0  0  0  0  0  0  0  0  0
    4.9186   -0.1080    0.0000 C   0  0  0  0  0  0  0  0  0  0  0  0
   10.2605    0.9481    0.0000 C   0  0  0  0  0  0  0  0  0  0  0  0
    7.5167   -1.6080    0.0000 C   0  0  0  0  0  0  0  0  0  0  0  0
    8.3856    2.0114    0.0000 C   0  0  0  0  0  0  0  0  0  0  0  0
    2.9916   -2.1636    0.0000 C   0  0  0  0  0  0  0  0  0  0  0  0
    9.3167   -0.6288    0.0000 C   0  0  0  0  0  0  0  0  0  0  0  0
    8.4106   -1.1426    0.0000 C   0  0  0  0  0  0  0  0  0  0  0  0
    4.8589   -3.1564    0.0000 C   0  0  0  0  0  0  0  0  0  0  0  0
    7.5408    1.4200    0.0000 C   0  0  0  0  0  0  0  0  0  0  0  0
   10.2605    2.0331    0.0000 C   0  0  3  0  0  0  0  0  0  0  0  0
    9.3167    2.5683    0.0000 C   0  0  0  0  0  0  0  0  0  0  0  0
    2.0000   -1.0671    0.0000 C   0  0  0  0  0  0  0  0  0  0  0  0
    2.5100   -0.2069    0.0000 C   0  0  0  0  0  0  0  0  0  0  0  0
   11.2605    0.9442    0.0000 C   0  0  0  0  0  0  0  0  0  0  0  0
   10.7572    0.0801    0.0000 C   0  0  0  0  0  0  0  0  0  0  0  0
    5.4080   -1.4310    0.0000 H   0  0  0  0  0  0  0  0  0  0  0  0
    8.0560    0.0862    0.0000 H   0  0  0  0  0  0  0  0  0  0  0  0
    5.5726    0.9746    0.0000 H   0  0  0  0  0  0  0  0  0  0  0  0
    5.1741    0.2844    0.0000 H   0  0  0  0  0  0  0  0  0  0  0  0
    6.8848   -2.7299    0.0000 H   0  0  0  0  0  0  0  0  0  0  0  0
    7.2759   -2.0340    0.0000 H   0  0  0  0  0  0  0  0  0  0  0  0
    5.3714   -3.1532    0.0000 H   0  0  0  0  0  0  0  0  0  0  0  0
    6.1697   -3.1501    0.0000 H   0  0  0  0  0  0  0  0  0  0  0  0
    9.8524    0.1008    0.0000 H   0  0  0  0  0  0  0  0  0  0  0  0
    7.0492    1.3670    0.0000 H   0  0  0  0  0  0  0  0  0  0  0  0
    6.2522    1.3670    0.0000 H   0  0  0  0  0  0  0  0  0  0  0  0
    4.3560   -0.0841    0.0000 H   0  0  0  0  0  0  0  0  0  0  0  0
    3.5579   -0.0687    0.0000 H   0  0  0  0  0  0  0  0  0  0  0  0
    3.5339   -3.1821    0.0000 H   0  0  0  0  0  0  0  0  0  0  0  0
    4.3322   -3.1790    0.0000 H   0  0  0  0  0  0  0  0  0  0  0  0
    5.2286    0.4290    0.0000 H   0  0  0  0  0  0  0  0  0  0  0  0
    4.3817    0.2020    0.0000 H   0  0  0  0  0  0  0  0  0  0  0  0
    4.6086   -0.6449    0.0000 H   0  0  0  0  0  0  0  0  0  0  0  0
    7.2067   -2.1449    0.0000 H   0  0  0  0  0  0  0  0  0  0  0  0
    8.0536   -1.9180    0.0000 H   0  0  0  0  0  0  0  0  0  0  0  0
    7.8267   -1.0710    0.0000 H   0  0  0  0  0  0  0  0  0  0  0  0
    8.1631    2.5901    0.0000 H   0  0  0  0  0  0  0  0  0  0  0  0
    7.7773    1.8912    0.0000 H   0  0  0  0  0  0  0  0  0  0  0  0
    2.3816   -2.0529    0.0000 H   0  0  0  0  0  0  0  0  0  0  0  0
    2.7780   -2.7457    0.0000 H   0  0  0  0  0  0  0  0  0  0  0  0
    9.5258   -1.2125    0.0000 H   0  0  0  0  0  0  0  0  0  0  0  0
    9.9276   -0.5227    0.0000 H   0  0  0  0  0  0  0  0  0  0  0  0
    8.4035   -1.7626    0.0000 H   0  0  0  0  0  0  0  0  0  0  0  0
    4.2389   -3.1516    0.0000 H   0  0  0  0  0  0  0  0  0  0  0  0
    4.8541   -3.7764    0.0000 H   0  0  0  0  0  0  0  0  0  0  0  0
    5.4789   -3.1612    0.0000 H   0  0  0  0  0  0  0  0  0  0  0  0
    7.8466    1.9593    0.0000 H   0  0  0  0  0  0  0  0  0  0  0  0
    7.0015    1.7258    0.0000 H   0  0  0  0  0  0  0  0  0  0  0  0
    7.2349    0.8807    0.0000 H   0  0  0  0  0  0  0  0  0  0  0  0
   10.7980    1.7241    0.0000 H   0  0  0  0  0  0  0  0  0  0  0  0
    9.7103    3.0473    0.0000 H   0  0  0  0  0  0  0  0  0  0  0  0
    8.9121    3.0381    0.0000 H   0  0  0  0  0  0  0  0  0  0  0  0
    2.0072   -0.4472    0.0000 H   0  0  0  0  0  0  0  0  0  0  0  0
    1.3800   -1.0600    0.0000 H   0  0  0  0  0  0  0  0  0  0  0  0
    1.9928   -1.6871    0.0000 H   0  0  0  0  0  0  0  0  0  0  0  0
    3.0505    0.0968    0.0000 H   0  0  0  0  0  0  0  0  0  0  0  0
    2.2062    0.3335    0.0000 H   0  0  0  0  0  0  0  0  0  0  0  0
    1.9695   -0.5107    0.0000 H   0  0  0  0  0  0  0  0  0  0  0  0
   11.2581    0.3242    0.0000 H   0  0  0  0  0  0  0  0  0  0  0  0
   11.8805    0.9418    0.0000 H   0  0  0  0  0  0  0  0  0  0  0  0
   11.2629    1.5642    0.0000 H   0  0  0  0  0  0  0  0  0  0  0  0
   10.2190   -0.2278    0.0000 H   0  0  0  0  0  0  0  0  0  0  0  0
   11.0651   -0.4580    0.0000 H   0  0  0  0  0  0  0  0  0  0  0  0
   11.2953    0.3881    0.0000 H   0  0  0  0  0  0  0  0  0  0  0  0
   11.1222    3.1564    0.0000 H   0  0  0  0  0  0  0  0  0  0  0  0
  1 26  1  0  0  0  0
  1 81  1  0  0  0  0
  2  3  1  0  0  0  0
  2  4  1  0  0  0  0
  2  9  1  0  0  0  0
  2 17  1  0  0  0  0
  3  8  1  0  0  0  0
  3 10  1  0  0  0  0
  3 19  1  0  0  0  0
  4  5  1  0  0  0  0
  4 14  1  0  0  0  0
  4 32  1  0  0  0  0
  5 11  1  0  0  0  0
  5 15  1  0  0  0  0
  5 24  1  0  0  0  0
  6  7  1  0  0  0  0
  6  8  1  0  0  0  0
  6 13  1  0  0  0  0
  6 33  1  0  0  0  0
  7 12  1  0  0  0  0
  7 20  1  0  0  0  0
  7 25  1  0  0  0  0
  8 23  2  0  0  0  0
  9 13  1  0  0  0  0
  9 34  1  0  0  0  0
  9 35  1  0  0  0  0
 10 11  1  0  0  0  0
 10 36  1  0  0  0  0
 10 37  1  0  0  0  0
 11 38  1  0  0  0  0
 11 39  1  0  0  0  0
 12 18  1  0  0  0  0
 12 22  1  0  0  0  0
 12 40  1  0  0  0  0
 13 41  1  0  0  0  0
 13 42  1  0  0  0  0
 14 16  1  0  0  0  0
 14 43  1  0  0  0  0
 14 44  1  0  0  0  0
 15 21  1  0  0  0  0
 15 45  1  0  0  0  0
 15 46  1  0  0  0  0
 16 21  1  0  0  0  0
 16 28  1  0  0  0  0
 16 29  1  0  0  0  0
 17 47  1  0  0  0  0
 17 48  1  0  0  0  0
 17 49  1  0  0  0  0
 18 26  1  0  0  0  0
 18 30  1  0  0  0  0
 18 31  1  0  0  0  0
 19 50  1  0  0  0  0
 19 51  1  0  0  0  0
 19 52  1  0  0  0  0
 20 27  1  0  0  0  0
 20 53  1  0  0  0  0
 20 54  1  0  0  0  0
 21 55  1  0  0  0  0
 21 56  1  0  0  0  0
 22 23  1  0  0  0  0
 22 57  1  0  0  0  0
 22 58  1  0  0  0  0
 23 59  1  0  0  0  0
 24 60  1  0  0  0  0
 24 61  1  0  0  0  0
 24 62  1  0  0  0  0
 25 63  1  0  0  0  0
 25 64  1  0  0  0  0
 25 65  1  0  0  0  0
 26 27  1  0  0  0  0
 26 66  1  0  0  0  0
 27 67  1  0  0  0  0
 27 68  1  0  0  0  0
 28 69  1  0  0  0  0
 28 70  1  0  0  0  0
 28 71  1  0  0  0  0
 29 72  1  0  0  0  0
 29 73  1  0  0  0  0
 29 74  1  0  0  0  0
 30 75  1  0  0  0  0
 30 76  1  0  0  0  0
 30 77  1  0  0  0  0
 31 78  1  0  0  0  0
 31 79  1  0  0  0  0
 31 80  1  0  0  0  0
M  END
>  <PUBCHEM_COMPOUND_CID>
12312989

>  <PUBCHEM_COMPOUND_CANONICALIZED>
1

>  <PUBCHEM_CACTVS_COMPLEXITY>
790

>  <PUBCHEM_CACTVS_HBOND_ACCEPTOR>
1

>  <PUBCHEM_CACTVS_HBOND_DONOR>
1

>  <PUBCHEM_CACTVS_ROTATABLE_BOND>
0

>  <PUBCHEM_CACTVS_SUBSKEYS>
AAADcfB4IAAAAAAAAAAAAAAAAAAAAAAAAAAwYMGCAAAAAADAAAAAGgAACAAADxSggAICAAAAAgCAAiBCAAAAAAAgAAAACAAAAAgAEAIAAQAAQAAEgAAIAAOAwPAPgAAAAAAAAADAAAYAADAAAAAAAAAAAA==

>  <PUBCHEM_IUPAC_OPENEYE_NAME>
4,4,6a,6b,8a,11,11,14b-octamethyl-1,2,3,4a,5,7,8,9,10,12,12a,13,14,14a-tetradecahydropicen-3-ol

>  <PUBCHEM_IUPAC_CAS_NAME>
4,4,6a,6b,8a,11,11,14b-octamethyl-1,2,3,4a,5,7,8,9,10,12,12a,13,14,14a-tetradecahydropicen-3-ol

>  <PUBCHEM_IUPAC_NAME>
4,4,6a,6b,8a,11,11,14b-octamethyl-1,2,3,4a,5,7,8,9,10,12,12a,13,14,14a-tetradecahydropicen-3-ol

>  <PUBCHEM_IUPAC_SYSTEMATIC_NAME>
4,4,6a,6b,8a,11,11,14b-octamethyl-1,2,3,4a,5,7,8,9,10,12,12a,13,14,14a-tetradecahydropicen-3-ol

>  <PUBCHEM_IUPAC_TRADITIONAL_NAME>
4,4,6a,6b,8a,11,11,14b-octamethyl-1,2,3,4a,5,7,8,9,10,12,12a,13,14,14a-tetradecahydropicen-3-ol

>  <PUBCHEM_IUPAC_INCHI>
InChI=1S/C30H50O/c1-25(2)15-16-27(5)17-18-29(7)21-9-10-22-26(3,4)24(31)12-13-28(22,6)20(21)11-14-30(29,8)23(27)19-25/h9,20,22-24,31H,10-19H2,1-8H3

>  <PUBCHEM_IUPAC_INCHIKEY>
ZDFUASMRJUVZJP-UHFFFAOYSA-N

>  <PUBCHEM_XLOGP3_AA>
9.2

>  <PUBCHEM_EXACT_MASS>
426.386

>  <PUBCHEM_MOLECULAR_FORMULA>
C30H50O

>  <PUBCHEM_MOLECULAR_WEIGHT>
426.729

>  <PUBCHEM_OPENEYE_CAN_SMILES>
CC1(CCC2(CCC3(C4=CCC5C(C(CCC5(C4CCC3(C2C1)C)C)O)(C)C)C)C)C

>  <PUBCHEM_OPENEYE_ISO_SMILES>
CC1(CCC2(CCC3(C4=CCC5C(C(CCC5(C4CCC3(C2C1)C)C)O)(C)C)C)C)C

>  <PUBCHEM_CACTVS_TPSA>
20.2

>  <PUBCHEM_MONOISOTOPIC_WEIGHT>
426.386

>  <PUBCHEM_TOTAL_CHARGE>
0

>  <PUBCHEM_HEAVY_ATOM_COUNT>
31

>  <PUBCHEM_ATOM_DEF_STEREO_COUNT>
0

>  <PUBCHEM_ATOM_UDEF_STEREO_COUNT>
8

>  <PUBCHEM_BOND_DEF_STEREO_COUNT>
0

>  <PUBCHEM_BOND_UDEF_STEREO_COUNT>
0

>  <PUBCHEM_ISOTOPIC_ATOM_COUNT>
0

>  <PUBCHEM_COMPONENT_COUNT>
1

>  <PUBCHEM_CACTVS_TAUTO_COUNT>
1

>  <PUBCHEM_COORDINATE_TYPE>
1
5
255

>  <PUBCHEM_BONDANNOTATIONS>
26  1  3
12  22  3
2  17  3
3  19  3
4  14  3
5  24  3
6  13  3
7  25  3

$$$$
