123389
 OpenBabel06101807152D

  8  8  0  0  0  0  0  0  0  0999 V2000
    4.0000   -1.5000    0.0000 Cl  0  0  0  0  0  0  0  0  0  0  0  0
    5.0000   -0.5000    0.0000 Cl  0  0  0  0  0  0  0  0  0  0  0  0
    2.0000    0.5000    0.0000 Cl  0  0  0  0  0  0  0  0  0  0  0  0
    3.0000    1.5000    0.0000 Cl  0  0  0  0  0  0  0  0  0  0  0  0
    4.0000    0.5000    0.0000 S   0  0  0  0  0  0  0  0  0  0  0  0
    3.0000   -0.5000    0.0000 S   0  0  0  0  0  0  0  0  0  0  0  0
    4.0000   -0.5000    0.0000 C   0  0  0  0  0  0  0  0  0  0  0  0
    3.0000    0.5000    0.0000 C   0  0  0  0  0  0  0  0  0  0  0  0
  1  7  1  0  0  0  0
  2  7  1  0  0  0  0
  3  8  1  0  0  0  0
  4  8  1  0  0  0  0
  5  7  1  0  0  0  0
  5  8  1  0  0  0  0
  6  7  1  0  0  0  0
  6  8  1  0  0  0  0
M  END
>  <PUBCHEM_COMPOUND_CID>
123389

>  <PUBCHEM_COMPOUND_CANONICALIZED>
1

>  <PUBCHEM_CACTVS_COMPLEXITY>
84.6

>  <PUBCHEM_CACTVS_HBOND_ACCEPTOR>
2

>  <PUBCHEM_CACTVS_HBOND_DONOR>
0

>  <PUBCHEM_CACTVS_ROTATABLE_BOND>
0

>  <PUBCHEM_CACTVS_SUBSKEYS>
AAADcQBAAABnAAAAAAAAAAAAAABIAAAAAAAAAAAAAAAAAAAAAAAAAAYAAAAAAAAAAIAAAAAAAAgAAAAAAAAAAQAAAAAAAAAAAAAAAAAAAAAAAAAAAAAAAAAAAAAAAAAAAAAAAAAAAAAAAAAAAAAAAAAAAA==

>  <PUBCHEM_IUPAC_OPENEYE_NAME>
2,2,4,4-tetrachloro-1,3-dithietane

>  <PUBCHEM_IUPAC_CAS_NAME>
2,2,4,4-tetrachloro-1,3-dithietane

>  <PUBCHEM_IUPAC_NAME>
2,2,4,4-tetrachloro-1,3-dithietane

>  <PUBCHEM_IUPAC_SYSTEMATIC_NAME>
2,2,4,4-tetrakis(chloranyl)-1,3-dithietane

>  <PUBCHEM_IUPAC_TRADITIONAL_NAME>
2,2,4,4-tetrachloro-1,3-dithietane

>  <PUBCHEM_IUPAC_INCHI>
InChI=1S/C2Cl4S2/c3-1(4)7-2(5,6)8-1

>  <PUBCHEM_IUPAC_INCHIKEY>
QIULAHZFLGCCFQ-UHFFFAOYSA-N

>  <PUBCHEM_XLOGP3_AA>
4

>  <PUBCHEM_EXACT_MASS>
229.817

>  <PUBCHEM_MOLECULAR_FORMULA>
C2Cl4S2

>  <PUBCHEM_MOLECULAR_WEIGHT>
229.942

>  <PUBCHEM_OPENEYE_CAN_SMILES>
C1(SC(S1)(Cl)Cl)(Cl)Cl

>  <PUBCHEM_OPENEYE_ISO_SMILES>
C1(SC(S1)(Cl)Cl)(Cl)Cl

>  <PUBCHEM_CACTVS_TPSA>
50.6

>  <PUBCHEM_MONOISOTOPIC_WEIGHT>
227.82

>  <PUBCHEM_TOTAL_CHARGE>
0

>  <PUBCHEM_HEAVY_ATOM_COUNT>
8

>  <PUBCHEM_ATOM_DEF_STEREO_COUNT>
0

>  <PUBCHEM_ATOM_UDEF_STEREO_COUNT>
0

>  <PUBCHEM_BOND_DEF_STEREO_COUNT>
0

>  <PUBCHEM_BOND_UDEF_STEREO_COUNT>
0

>  <PUBCHEM_ISOTOPIC_ATOM_COUNT>
0

>  <PUBCHEM_COMPONENT_COUNT>
1

>  <PUBCHEM_CACTVS_TAUTO_COUNT>
1

>  <PUBCHEM_COORDINATE_TYPE>
1
5
255

$$$$
