12367055
 OpenBabel06101807152D

 34 35  0  0  1  0  0  0  0  0999 V2000
    5.2619   -0.6815    0.0000 O   0  0  0  0  0  0  0  0  0  0  0  0
    4.9889   -2.4367    0.0000 O   0  0  0  0  0  0  0  0  0  0  0  0
    3.7320   -0.1815    0.0000 C   0  0  3  0  0  0  0  0  0  0  0  0
    3.7320   -1.1815    0.0000 C   0  0  3  0  0  0  0  0  0  0  0  0
    4.6783    0.1233    0.0000 C   0  0  3  0  0  0  0  0  0  0  0  0
    2.8660    0.3185    0.0000 C   0  0  0  0  0  0  0  0  0  0  0  0
    2.8660   -1.6815    0.0000 C   0  0  0  0  0  0  0  0  0  0  0  0
    2.0000   -0.1815    0.0000 C   0  0  0  0  0  0  0  0  0  0  0  0
    2.0000   -1.1815    0.0000 C   0  0  0  0  0  0  0  0  0  0  0  0
    4.9889    1.0738    0.0000 C   0  0  0  0  0  0  0  0  0  0  0  0
    4.6783   -1.4862    0.0000 C   0  0  0  0  0  0  0  0  0  0  0  0
    5.9674    1.2800    0.0000 C   0  0  0  0  0  0  0  0  0  0  0  0
    6.2781    2.2305    0.0000 C   0  0  0  0  0  0  0  0  0  0  0  0
    7.2566    2.4367    0.0000 C   0  0  0  0  0  0  0  0  0  0  0  0
    3.7977    0.4350    0.0000 H   0  0  0  0  0  0  0  0  0  0  0  0
    3.7977   -1.7980    0.0000 H   0  0  0  0  0  0  0  0  0  0  0  0
    5.2908    0.2194    0.0000 H   0  0  0  0  0  0  0  0  0  0  0  0
    3.2646    0.7935    0.0000 H   0  0  0  0  0  0  0  0  0  0  0  0
    2.4675    0.7935    0.0000 H   0  0  0  0  0  0  0  0  0  0  0  0
    2.4675   -2.1564    0.0000 H   0  0  0  0  0  0  0  0  0  0  0  0
    3.2646   -2.1564    0.0000 H   0  0  0  0  0  0  0  0  0  0  0  0
    1.7880    0.4011    0.0000 H   0  0  0  0  0  0  0  0  0  0  0  0
    1.3894   -0.2891    0.0000 H   0  0  0  0  0  0  0  0  0  0  0  0
    1.3894   -1.0738    0.0000 H   0  0  0  0  0  0  0  0  0  0  0  0
    1.7880   -1.7641    0.0000 H   0  0  0  0  0  0  0  0  0  0  0  0
    4.9684    1.6934    0.0000 H   0  0  0  0  0  0  0  0  0  0  0  0
    4.3751    1.1611    0.0000 H   0  0  0  0  0  0  0  0  0  0  0  0
    5.9880    0.6603    0.0000 H   0  0  0  0  0  0  0  0  0  0  0  0
    6.5812    1.1926    0.0000 H   0  0  0  0  0  0  0  0  0  0  0  0
    6.2575    2.8502    0.0000 H   0  0  0  0  0  0  0  0  0  0  0  0
    5.6643    2.3179    0.0000 H   0  0  0  0  0  0  0  0  0  0  0  0
    7.3845    1.8301    0.0000 H   0  0  0  0  0  0  0  0  0  0  0  0
    7.8633    2.5646    0.0000 H   0  0  0  0  0  0  0  0  0  0  0  0
    7.1288    3.0434    0.0000 H   0  0  0  0  0  0  0  0  0  0  0  0
  1  5  1  0  0  0  0
  1 11  1  0  0  0  0
  2 11  2  0  0  0  0
  3  4  1  0  0  0  0
  3  5  1  0  0  0  0
  3  6  1  0  0  0  0
  3 15  1  0  0  0  0
  4  7  1  0  0  0  0
  4 11  1  0  0  0  0
  4 16  1  0  0  0  0
  5 10  1  0  0  0  0
  5 17  1  0  0  0  0
  6  8  1  0  0  0  0
  6 18  1  0  0  0  0
  6 19  1  0  0  0  0
  7  9  1  0  0  0  0
  7 20  1  0  0  0  0
  7 21  1  0  0  0  0
  8  9  1  0  0  0  0
  8 22  1  0  0  0  0
  8 23  1  0  0  0  0
  9 24  1  0  0  0  0
  9 25  1  0  0  0  0
 10 12  1  0  0  0  0
 10 26  1  0  0  0  0
 10 27  1  0  0  0  0
 12 13  1  0  0  0  0
 12 28  1  0  0  0  0
 12 29  1  0  0  0  0
 13 14  1  0  0  0  0
 13 30  1  0  0  0  0
 13 31  1  0  0  0  0
 14 32  1  0  0  0  0
 14 33  1  0  0  0  0
 14 34  1  0  0  0  0
M  END
>  <PUBCHEM_COMPOUND_CID>
12367055

>  <PUBCHEM_COMPOUND_CANONICALIZED>
1

>  <PUBCHEM_CACTVS_COMPLEXITY>
212

>  <PUBCHEM_CACTVS_HBOND_ACCEPTOR>
2

>  <PUBCHEM_CACTVS_HBOND_DONOR>
0

>  <PUBCHEM_CACTVS_ROTATABLE_BOND>
3

>  <PUBCHEM_CACTVS_SUBSKEYS>
AAADceBwMAAAAAAAAAAAAAAAAAAAASAAAAAwAAAAAAAAAEgAAAAAGgAAAAAADRSggAICCAAABAAIAACQCAAAAAAAAAAAAAEAAAAAABIAAAACAAAEAAAAAAGKyOCOgAAAAAAAAAAAAAAAACAAAAAAAAAAAA==

>  <PUBCHEM_IUPAC_OPENEYE_NAME>
3-butyl-3a,4,5,6,7,7a-hexahydro-3H-isobenzofuran-1-one

>  <PUBCHEM_IUPAC_CAS_NAME>
3-butyl-3a,4,5,6,7,7a-hexahydro-3H-isobenzofuran-1-one

>  <PUBCHEM_IUPAC_NAME>
3-butyl-3a,4,5,6,7,7a-hexahydro-3H-2-benzofuran-1-one

>  <PUBCHEM_IUPAC_SYSTEMATIC_NAME>
3-butyl-3a,4,5,6,7,7a-hexahydro-3H-2-benzofuran-1-one

>  <PUBCHEM_IUPAC_TRADITIONAL_NAME>
3-butyl-3a,4,5,6,7,7a-hexahydro-3H-isobenzofuran-1-one

>  <PUBCHEM_IUPAC_INCHI>
InChI=1S/C12H20O2/c1-2-3-8-11-9-6-4-5-7-10(9)12(13)14-11/h9-11H,2-8H2,1H3

>  <PUBCHEM_IUPAC_INCHIKEY>
TZRMFZSOOVBPPN-UHFFFAOYSA-N

>  <PUBCHEM_XLOGP3_AA>
3.5

>  <PUBCHEM_EXACT_MASS>
196.146

>  <PUBCHEM_MOLECULAR_FORMULA>
C12H20O2

>  <PUBCHEM_MOLECULAR_WEIGHT>
196.29

>  <PUBCHEM_OPENEYE_CAN_SMILES>
CCCCC1C2CCCCC2C(=O)O1

>  <PUBCHEM_OPENEYE_ISO_SMILES>
CCCCC1C2CCCCC2C(=O)O1

>  <PUBCHEM_CACTVS_TPSA>
26.3

>  <PUBCHEM_MONOISOTOPIC_WEIGHT>
196.146

>  <PUBCHEM_TOTAL_CHARGE>
0

>  <PUBCHEM_HEAVY_ATOM_COUNT>
14

>  <PUBCHEM_ATOM_DEF_STEREO_COUNT>
0

>  <PUBCHEM_ATOM_UDEF_STEREO_COUNT>
3

>  <PUBCHEM_BOND_DEF_STEREO_COUNT>
0

>  <PUBCHEM_BOND_UDEF_STEREO_COUNT>
0

>  <PUBCHEM_ISOTOPIC_ATOM_COUNT>
0

>  <PUBCHEM_COMPONENT_COUNT>
1

>  <PUBCHEM_CACTVS_TAUTO_COUNT>
2

>  <PUBCHEM_COORDINATE_TYPE>
1
5
255

>  <PUBCHEM_BONDANNOTATIONS>
3  6  3
4  11  3
5  10  3

$$$$
