12363975
 OpenBabel06101807152D

 58 57  0  0  0  0  0  0  0  0999 V2000
    3.7320    1.9400    0.0000 O   0  0  0  0  0  0  0  0  0  0  0  0
    4.5981    0.4400    0.0000 O   0  0  0  0  0  0  0  0  0  0  0  0
    8.0622    1.4400    0.0000 C   0  0  0  0  0  0  0  0  0  0  0  0
    8.9282    1.9400    0.0000 C   0  0  0  0  0  0  0  0  0  0  0  0
    7.1962    1.9400    0.0000 C   0  0  0  0  0  0  0  0  0  0  0  0
    9.7942    1.4400    0.0000 C   0  0  0  0  0  0  0  0  0  0  0  0
    6.3301    1.4400    0.0000 C   0  0  0  0  0  0  0  0  0  0  0  0
   10.6603    1.9400    0.0000 C   0  0  0  0  0  0  0  0  0  0  0  0
    5.4641    1.9400    0.0000 C   0  0  0  0  0  0  0  0  0  0  0  0
   15.8564   -0.0600    0.0000 C   0  0  0  0  0  0  0  0  0  0  0  0
   15.8564   -1.0600    0.0000 C   0  0  0  0  0  0  0  0  0  0  0  0
   11.5263    1.4400    0.0000 C   0  0  0  0  0  0  0  0  0  0  0  0
   14.9904    0.4400    0.0000 C   0  0  0  0  0  0  0  0  0  0  0  0
   16.7224   -1.5600    0.0000 C   0  0  0  0  0  0  0  0  0  0  0  0
    4.5981    1.4400    0.0000 C   0  0  0  0  0  0  0  0  0  0  0  0
   12.3923    1.9400    0.0000 C   0  0  0  0  0  0  0  0  0  0  0  0
   13.2583    1.4400    0.0000 C   0  0  0  0  0  0  0  0  0  0  0  0
   14.9904    1.4400    0.0000 C   0  0  0  0  0  0  0  0  0  0  0  0
   14.1244    1.9400    0.0000 C   0  0  0  0  0  0  0  0  0  0  0  0
   16.7224   -2.5600    0.0000 C   0  0  0  0  0  0  0  0  0  0  0  0
    2.8660    1.4400    0.0000 C   0  0  0  0  0  0  0  0  0  0  0  0
    2.0000    1.9400    0.0000 C   0  0  0  0  0  0  0  0  0  0  0  0
    7.6636    0.9651    0.0000 H   0  0  0  0  0  0  0  0  0  0  0  0
    8.4607    0.9651    0.0000 H   0  0  0  0  0  0  0  0  0  0  0  0
    9.3267    2.4150    0.0000 H   0  0  0  0  0  0  0  0  0  0  0  0
    8.5297    2.4150    0.0000 H   0  0  0  0  0  0  0  0  0  0  0  0
    7.5947    2.4150    0.0000 H   0  0  0  0  0  0  0  0  0  0  0  0
    6.7976    2.4150    0.0000 H   0  0  0  0  0  0  0  0  0  0  0  0
    9.3957    0.9651    0.0000 H   0  0  0  0  0  0  0  0  0  0  0  0
   10.1928    0.9651    0.0000 H   0  0  0  0  0  0  0  0  0  0  0  0
    5.9316    0.9651    0.0000 H   0  0  0  0  0  0  0  0  0  0  0  0
    6.7287    0.9651    0.0000 H   0  0  0  0  0  0  0  0  0  0  0  0
   11.0588    2.4150    0.0000 H   0  0  0  0  0  0  0  0  0  0  0  0
   10.2617    2.4150    0.0000 H   0  0  0  0  0  0  0  0  0  0  0  0
    5.8626    2.4150    0.0000 H   0  0  0  0  0  0  0  0  0  0  0  0
    5.0656    2.4150    0.0000 H   0  0  0  0  0  0  0  0  0  0  0  0
   16.4670   -0.1677    0.0000 H   0  0  0  0  0  0  0  0  0  0  0  0
   16.0685    0.5226    0.0000 H   0  0  0  0  0  0  0  0  0  0  0  0
   15.2458   -0.9523    0.0000 H   0  0  0  0  0  0  0  0  0  0  0  0
   15.6444   -1.6426    0.0000 H   0  0  0  0  0  0  0  0  0  0  0  0
   11.5263    0.8200    0.0000 H   0  0  0  0  0  0  0  0  0  0  0  0
   14.3798    0.5477    0.0000 H   0  0  0  0  0  0  0  0  0  0  0  0
   14.7783   -0.1426    0.0000 H   0  0  0  0  0  0  0  0  0  0  0  0
   17.3330   -1.6677    0.0000 H   0  0  0  0  0  0  0  0  0  0  0  0
   16.9345   -0.9774    0.0000 H   0  0  0  0  0  0  0  0  0  0  0  0
   12.3923    2.5600    0.0000 H   0  0  0  0  0  0  0  0  0  0  0  0
   12.8598    0.9651    0.0000 H   0  0  0  0  0  0  0  0  0  0  0  0
   13.6569    0.9651    0.0000 H   0  0  0  0  0  0  0  0  0  0  0  0
   15.5273    1.7500    0.0000 H   0  0  0  0  0  0  0  0  0  0  0  0
   14.1244    2.5600    0.0000 H   0  0  0  0  0  0  0  0  0  0  0  0
   16.1024   -2.5600    0.0000 H   0  0  0  0  0  0  0  0  0  0  0  0
   16.7224   -3.1800    0.0000 H   0  0  0  0  0  0  0  0  0  0  0  0
   17.3424   -2.5600    0.0000 H   0  0  0  0  0  0  0  0  0  0  0  0
    2.4675    0.9651    0.0000 H   0  0  0  0  0  0  0  0  0  0  0  0
    3.2646    0.9651    0.0000 H   0  0  0  0  0  0  0  0  0  0  0  0
    2.3100    2.4769    0.0000 H   0  0  0  0  0  0  0  0  0  0  0  0
    1.4631    2.2500    0.0000 H   0  0  0  0  0  0  0  0  0  0  0  0
    1.6900    1.4031    0.0000 H   0  0  0  0  0  0  0  0  0  0  0  0
  1 15  1  0  0  0  0
  1 21  1  0  0  0  0
  2 15  2  0  0  0  0
  3  4  1  0  0  0  0
  3  5  1  0  0  0  0
  3 23  1  0  0  0  0
  3 24  1  0  0  0  0
  4  6  1  0  0  0  0
  4 25  1  0  0  0  0
  4 26  1  0  0  0  0
  5  7  1  0  0  0  0
  5 27  1  0  0  0  0
  5 28  1  0  0  0  0
  6  8  1  0  0  0  0
  6 29  1  0  0  0  0
  6 30  1  0  0  0  0
  7  9  1  0  0  0  0
  7 31  1  0  0  0  0
  7 32  1  0  0  0  0
  8 12  1  0  0  0  0
  8 33  1  0  0  0  0
  8 34  1  0  0  0  0
  9 15  1  0  0  0  0
  9 35  1  0  0  0  0
  9 36  1  0  0  0  0
 10 11  1  0  0  0  0
 10 13  1  0  0  0  0
 10 37  1  0  0  0  0
 10 38  1  0  0  0  0
 11 14  1  0  0  0  0
 11 39  1  0  0  0  0
 11 40  1  0  0  0  0
 12 16  2  0  0  0  0
 12 41  1  0  0  0  0
 13 18  1  0  0  0  0
 13 42  1  0  0  0  0
 13 43  1  0  0  0  0
 14 20  1  0  0  0  0
 14 44  1  0  0  0  0
 14 45  1  0  0  0  0
 16 17  1  0  0  0  0
 16 46  1  0  0  0  0
 17 19  1  0  0  0  0
 17 47  1  0  0  0  0
 17 48  1  0  0  0  0
 18 19  2  0  0  0  0
 18 49  1  0  0  0  0
 19 50  1  0  0  0  0
 20 51  1  0  0  0  0
 20 52  1  0  0  0  0
 20 53  1  0  0  0  0
 21 22  1  0  0  0  0
 21 54  1  0  0  0  0
 21 55  1  0  0  0  0
 22 56  1  0  0  0  0
 22 57  1  0  0  0  0
 22 58  1  0  0  0  0
M  END
>  <PUBCHEM_COMPOUND_CID>
12363975

>  <PUBCHEM_COMPOUND_CANONICALIZED>
1

>  <PUBCHEM_CACTVS_COMPLEXITY>
292

>  <PUBCHEM_CACTVS_HBOND_ACCEPTOR>
2

>  <PUBCHEM_CACTVS_HBOND_DONOR>
0

>  <PUBCHEM_CACTVS_ROTATABLE_BOND>
16

>  <PUBCHEM_CACTVS_SUBSKEYS>
AAADcfB4MAAAAAAAAAAAAAAAAAAAAAAAAAAAAAAAAAAAAAAAAAAAGgAAAAAACACggAICCAAABACIACDSCAAAAAAgAAAICAEAAAgAABIAAQACAAAEgAAIAAOIyKCAAAAAAAAAAAAAAAAAAAAAAAAAAAAAAA==

>  <PUBCHEM_IUPAC_OPENEYE_NAME>
ethyl (9E,12Z)-octadeca-9,12-dienoate

>  <PUBCHEM_IUPAC_CAS_NAME>
(9E,12Z)-octadeca-9,12-dienoic acid ethyl ester

>  <PUBCHEM_IUPAC_NAME>
ethyl (9E,12Z)-octadeca-9,12-dienoate

>  <PUBCHEM_IUPAC_SYSTEMATIC_NAME>
ethyl (9E,12Z)-octadeca-9,12-dienoate

>  <PUBCHEM_IUPAC_TRADITIONAL_NAME>
(9E,12Z)-octadeca-9,12-dienoic acid ethyl ester

>  <PUBCHEM_IUPAC_INCHI>
InChI=1S/C20H36O2/c1-3-5-6-7-8-9-10-11-12-13-14-15-16-17-18-19-20(21)22-4-2/h8-9,11-12H,3-7,10,13-19H2,1-2H3/b9-8-,12-11+

>  <PUBCHEM_IUPAC_INCHIKEY>
FMMOOAYVCKXGMF-UONSLQGUSA-N

>  <PUBCHEM_XLOGP3_AA>
7.3

>  <PUBCHEM_EXACT_MASS>
308.272

>  <PUBCHEM_MOLECULAR_FORMULA>
C20H36O2

>  <PUBCHEM_MOLECULAR_WEIGHT>
308.506

>  <PUBCHEM_OPENEYE_CAN_SMILES>
CCCCCC=CCC=CCCCCCCCC(=O)OCC

>  <PUBCHEM_OPENEYE_ISO_SMILES>
CCCCC/C=C\C/C=C/CCCCCCCC(=O)OCC

>  <PUBCHEM_CACTVS_TPSA>
26.3

>  <PUBCHEM_MONOISOTOPIC_WEIGHT>
308.272

>  <PUBCHEM_TOTAL_CHARGE>
0

>  <PUBCHEM_HEAVY_ATOM_COUNT>
22

>  <PUBCHEM_ATOM_DEF_STEREO_COUNT>
0

>  <PUBCHEM_ATOM_UDEF_STEREO_COUNT>
0

>  <PUBCHEM_BOND_DEF_STEREO_COUNT>
2

>  <PUBCHEM_BOND_UDEF_STEREO_COUNT>
0

>  <PUBCHEM_ISOTOPIC_ATOM_COUNT>
0

>  <PUBCHEM_COMPONENT_COUNT>
1

>  <PUBCHEM_CACTVS_TAUTO_COUNT>
1

>  <PUBCHEM_COORDINATE_TYPE>
1
5
255

$$$$
