12444745
 OpenBabel06101807152D

 30 31  0  0  1  0  0  0  0  0999 V2000
    2.0000   -1.0950    0.0000 O   0  0  0  0  0  0  0  0  0  0  0  0
    2.8660   -2.5950    0.0000 O   0  0  0  0  0  0  0  0  0  0  0  0
    4.9889    1.1602    0.0000 O   0  0  0  0  0  0  0  0  0  0  0  0
    2.0000    1.9050    0.0000 O   0  0  0  0  0  0  0  0  0  0  0  0
    3.7320    1.9050    0.0000 O   0  0  0  0  0  0  0  0  0  0  0  0
    3.7320   -1.0950    0.0000 C   0  0  2  0  0  0  0  0  0  0  0  0
    4.6783   -1.3997    0.0000 C   0  0  2  0  0  0  0  0  0  0  0  0
    3.7320   -0.0950    0.0000 C   0  0  2  0  0  0  0  0  0  0  0  0
    5.2619   -0.5950    0.0000 C   0  0  0  0  0  0  0  0  0  0  0  0
    4.6783    0.2097    0.0000 C   0  0  0  0  0  0  0  0  0  0  0  0
    2.8660   -1.5950    0.0000 C   0  0  1  0  0  0  0  0  0  0  0  0
    2.8660    0.4050    0.0000 C   0  0  0  0  0  0  0  0  0  0  0  0
    4.9889   -2.3502    0.0000 C   0  0  0  0  0  0  0  0  0  0  0  0
    2.0000   -0.0950    0.0000 C   0  0  0  0  0  0  0  0  0  0  0  0
    2.8660    1.4050    0.0000 C   0  0  0  0  0  0  0  0  0  0  0  0
    2.0000    2.9050    0.0000 C   0  0  0  0  0  0  0  0  0  0  0  0
    3.8220   -1.9402    0.0000 H   0  0  0  0  0  0  0  0  0  0  0  0
    5.2908   -1.4959    0.0000 H   0  0  0  0  0  0  0  0  0  0  0  0
    3.8220    0.7502    0.0000 H   0  0  0  0  0  0  0  0  0  0  0  0
    5.7227   -1.0097    0.0000 H   0  0  0  0  0  0  0  0  0  0  0  0
    5.7227   -0.1803    0.0000 H   0  0  0  0  0  0  0  0  0  0  0  0
    3.4030   -1.9050    0.0000 H   0  0  0  0  0  0  0  0  0  0  0  0
    4.3996   -2.5429    0.0000 H   0  0  0  0  0  0  0  0  0  0  0  0
    5.1815   -2.9396    0.0000 H   0  0  0  0  0  0  0  0  0  0  0  0
    5.5783   -2.1576    0.0000 H   0  0  0  0  0  0  0  0  0  0  0  0
    1.4631    0.2150    0.0000 H   0  0  0  0  0  0  0  0  0  0  0  0
    2.3291   -2.9050    0.0000 H   0  0  0  0  0  0  0  0  0  0  0  0
    2.6200    2.9050    0.0000 H   0  0  0  0  0  0  0  0  0  0  0  0
    2.0000    3.5250    0.0000 H   0  0  0  0  0  0  0  0  0  0  0  0
    1.3800    2.9050    0.0000 H   0  0  0  0  0  0  0  0  0  0  0  0
  1 11  1  0  0  0  0
  1 14  1  0  0  0  0
  2 27  1  0  0  0  0
  3 10  2  0  0  0  0
  4 15  1  0  0  0  0
  4 16  1  0  0  0  0
  5 15  2  0  0  0  0
  6  7  1  1  0  0  0
  6 17  1  0  0  0  0
  7  9  1  0  0  0  0
  7 13  1  0  0  0  0
  7 18  1  1  0  0  0
  8  6  1  6  0  0  0
  8 10  1  0  0  0  0
  8 12  1  0  0  0  0
  8 19  1  0  0  0  0
  9 10  1  0  0  0  0
  9 20  1  0  0  0  0
  9 21  1  0  0  0  0
 11  2  1  0  0  0  0
 11  6  1  6  0  0  0
 11 22  1  0  0  0  0
 12 14  2  0  0  0  0
 12 15  1  0  0  0  0
 13 23  1  0  0  0  0
 13 24  1  0  0  0  0
 13 25  1  0  0  0  0
 14 26  1  0  0  0  0
 16 28  1  0  0  0  0
 16 29  1  0  0  0  0
 16 30  1  0  0  0  0
M  END
>  <PUBCHEM_COMPOUND_CID>
12444745

>  <PUBCHEM_COMPOUND_CANONICALIZED>
1

>  <PUBCHEM_CACTVS_COMPLEXITY>
359

>  <PUBCHEM_CACTVS_HBOND_ACCEPTOR>
5

>  <PUBCHEM_CACTVS_HBOND_DONOR>
1

>  <PUBCHEM_CACTVS_ROTATABLE_BOND>
2

>  <PUBCHEM_CACTVS_SUBSKEYS>
AAADccBwOAAAAAAAAAAAAAAAAAAAAYAAAAAgAAAAAAAAAEAAAAAAGgAACAAADQSwgAMCCAAABgCIAoDSCAAACAAgIAAAAAEAAEgQFBIAIQAAQAAEgAAAIIGL7PiOgAAAAAAAAAAAAAAAAAAAAQAACAAAAA==

>  <PUBCHEM_IUPAC_OPENEYE_NAME>
methyl (1R,4aS,7S,7aR)-1-hydroxy-7-methyl-5-oxo-4a,6,7,7a-tetrahydro-1H-cyclopenta[c]pyran-4-carboxylate

>  <PUBCHEM_IUPAC_CAS_NAME>
(1R,4aS,7S,7aR)-1-hydroxy-7-methyl-5-oxo-4a,6,7,7a-tetrahydro-1H-cyclopenta[c]pyran-4-carboxylic acid methyl ester

>  <PUBCHEM_IUPAC_NAME>
methyl (1R,4aS,7S,7aR)-1-hydroxy-7-methyl-5-oxo-4a,6,7,7a-tetrahydro-1H-cyclopenta[c]pyran-4-carboxylate

>  <PUBCHEM_IUPAC_SYSTEMATIC_NAME>
methyl (1R,4aS,7S,7aR)-7-methyl-1-oxidanyl-5-oxidanylidene-4a,6,7,7a-tetrahydro-1H-cyclopenta[c]pyran-4-carboxylate

>  <PUBCHEM_IUPAC_TRADITIONAL_NAME>
(1R,4aS,7S,7aR)-1-hydroxy-5-keto-7-methyl-4a,6,7,7a-tetrahydro-1H-cyclopenta[c]pyran-4-carboxylic acid methyl ester

>  <PUBCHEM_IUPAC_INCHI>
InChI=1S/C11H14O5/c1-5-3-7(12)9-6(10(13)15-2)4-16-11(14)8(5)9/h4-5,8-9,11,14H,3H2,1-2H3/t5-,8+,9-,11+/m0/s1

>  <PUBCHEM_IUPAC_INCHIKEY>
ICLHTGIHDLYEDX-PPZZJSARSA-N

>  <PUBCHEM_XLOGP3_AA>
0.1

>  <PUBCHEM_EXACT_MASS>
226.084

>  <PUBCHEM_MOLECULAR_FORMULA>
C11H14O5

>  <PUBCHEM_MOLECULAR_WEIGHT>
226.228

>  <PUBCHEM_OPENEYE_CAN_SMILES>
CC1CC(=O)C2C1C(OC=C2C(=O)OC)O

>  <PUBCHEM_OPENEYE_ISO_SMILES>
C[C@H]1CC(=O)[C@H]2[C@@H]1[C@@H](OC=C2C(=O)OC)O

>  <PUBCHEM_CACTVS_TPSA>
72.8

>  <PUBCHEM_MONOISOTOPIC_WEIGHT>
226.084

>  <PUBCHEM_TOTAL_CHARGE>
0

>  <PUBCHEM_HEAVY_ATOM_COUNT>
16

>  <PUBCHEM_ATOM_DEF_STEREO_COUNT>
4

>  <PUBCHEM_ATOM_UDEF_STEREO_COUNT>
0

>  <PUBCHEM_BOND_DEF_STEREO_COUNT>
0

>  <PUBCHEM_BOND_UDEF_STEREO_COUNT>
0

>  <PUBCHEM_ISOTOPIC_ATOM_COUNT>
0

>  <PUBCHEM_COMPONENT_COUNT>
1

>  <PUBCHEM_CACTVS_TAUTO_COUNT>
3

>  <PUBCHEM_COORDINATE_TYPE>
1
5
255

>  <PUBCHEM_BONDANNOTATIONS>
11  2  6
6  17  6
7  13  6
8  19  6

$$$$
