12445018
 OpenBabel06101807152D

 20 21  0  0  0  0  0  0  0  0999 V2000
    3.7320   -1.5000    0.0000 S   0  0  0  0  0  0  0  0  0  0  0  0
    2.8660    0.0000    0.0000 N   0  0  0  0  0  0  0  0  0  0  0  0
    4.5981    0.0000    0.0000 N   0  0  0  0  0  0  0  0  0  0  0  0
    6.1279    0.5000    0.0000 N   0  0  0  0  0  0  0  0  0  0  0  0
    3.7320    1.5000    0.0000 C   0  0  0  0  0  0  0  0  0  0  0  0
    2.8660    1.0000    0.0000 C   0  0  0  0  0  0  0  0  0  0  0  0
    4.5981    1.0000    0.0000 C   0  0  0  0  0  0  0  0  0  0  0  0
    3.7320   -0.5000    0.0000 C   0  0  0  0  0  0  0  0  0  0  0  0
    5.5443    1.3047    0.0000 C   0  0  0  0  0  0  0  0  0  0  0  0
    2.0000   -0.5000    0.0000 C   0  0  0  0  0  0  0  0  0  0  0  0
    5.5443   -0.3047    0.0000 C   0  0  0  0  0  0  0  0  0  0  0  0
    4.1306    1.9750    0.0000 H   0  0  0  0  0  0  0  0  0  0  0  0
    3.3335    1.9750    0.0000 H   0  0  0  0  0  0  0  0  0  0  0  0
    2.6540    1.5826    0.0000 H   0  0  0  0  0  0  0  0  0  0  0  0
    2.2554    0.8923    0.0000 H   0  0  0  0  0  0  0  0  0  0  0  0
    5.7369    1.8940    0.0000 H   0  0  0  0  0  0  0  0  0  0  0  0
    1.6900    0.0369    0.0000 H   0  0  0  0  0  0  0  0  0  0  0  0
    1.4631   -0.8100    0.0000 H   0  0  0  0  0  0  0  0  0  0  0  0
    2.3100   -1.0369    0.0000 H   0  0  0  0  0  0  0  0  0  0  0  0
    5.7369   -0.8941    0.0000 H   0  0  0  0  0  0  0  0  0  0  0  0
  1  8  2  0  0  0  0
  2  6  1  0  0  0  0
  2  8  1  0  0  0  0
  2 10  1  0  0  0  0
  3  7  1  0  0  0  0
  3  8  1  0  0  0  0
  3 11  1  0  0  0  0
  4  9  1  0  0  0  0
  4 11  2  0  0  0  0
  5  6  1  0  0  0  0
  5  7  1  0  0  0  0
  5 12  1  0  0  0  0
  5 13  1  0  0  0  0
  6 14  1  0  0  0  0
  6 15  1  0  0  0  0
  7  9  2  0  0  0  0
  9 16  1  0  0  0  0
 10 17  1  0  0  0  0
 10 18  1  0  0  0  0
 10 19  1  0  0  0  0
 11 20  1  0  0  0  0
M  END
>  <PUBCHEM_COMPOUND_CID>
12445018

>  <PUBCHEM_COMPOUND_CANONICALIZED>
1

>  <PUBCHEM_CACTVS_COMPLEXITY>
183

>  <PUBCHEM_CACTVS_HBOND_ACCEPTOR>
2

>  <PUBCHEM_CACTVS_HBOND_DONOR>
0

>  <PUBCHEM_CACTVS_ROTATABLE_BOND>
0

>  <PUBCHEM_CACTVS_SUBSKEYS>
AAADccBjAABAAAAAAAAAAAAAAAAAAWAAAAAsAAAAAAAAAFgBgAAAHAQAAAAACAjBFgQvkBcMEACkARRnZAAAgC0xEqgBUAA4cAiAaABAyQEUAAAIAAJAQCAAAAAAAAAAAAAAAAAAAAAAAAAAAAAAAAAAAA==

>  <PUBCHEM_IUPAC_OPENEYE_NAME>
6-methyl-7,8-dihydroimidazo[1,5-c]pyrimidine-5-thione

>  <PUBCHEM_IUPAC_CAS_NAME>
6-methyl-7,8-dihydroimidazo[1,5-c]pyrimidine-5-thione

>  <PUBCHEM_IUPAC_NAME>
6-methyl-7,8-dihydroimidazo[1,5-c]pyrimidine-5-thione

>  <PUBCHEM_IUPAC_SYSTEMATIC_NAME>
6-methyl-7,8-dihydroimidazo[1,5-c]pyrimidine-5-thione

>  <PUBCHEM_IUPAC_TRADITIONAL_NAME>
6-methyl-7,8-dihydroimidazo[1,5-c]pyrimidine-5-thione

>  <PUBCHEM_IUPAC_INCHI>
InChI=1S/C7H9N3S/c1-9-3-2-6-4-8-5-10(6)7(9)11/h4-5H,2-3H2,1H3

>  <PUBCHEM_IUPAC_INCHIKEY>
OXVNSOXLMCVHBU-UHFFFAOYSA-N

>  <PUBCHEM_XLOGP3_AA>
0.6

>  <PUBCHEM_EXACT_MASS>
167.052

>  <PUBCHEM_MOLECULAR_FORMULA>
C7H9N3S

>  <PUBCHEM_MOLECULAR_WEIGHT>
167.23

>  <PUBCHEM_OPENEYE_CAN_SMILES>
CN1CCC2=CN=CN2C1=S

>  <PUBCHEM_OPENEYE_ISO_SMILES>
CN1CCC2=CN=CN2C1=S

>  <PUBCHEM_CACTVS_TPSA>
53.2

>  <PUBCHEM_MONOISOTOPIC_WEIGHT>
167.052

>  <PUBCHEM_TOTAL_CHARGE>
0

>  <PUBCHEM_HEAVY_ATOM_COUNT>
11

>  <PUBCHEM_ATOM_DEF_STEREO_COUNT>
0

>  <PUBCHEM_ATOM_UDEF_STEREO_COUNT>
0

>  <PUBCHEM_BOND_DEF_STEREO_COUNT>
0

>  <PUBCHEM_BOND_UDEF_STEREO_COUNT>
0

>  <PUBCHEM_ISOTOPIC_ATOM_COUNT>
0

>  <PUBCHEM_COMPONENT_COUNT>
1

>  <PUBCHEM_CACTVS_TAUTO_COUNT>
1

>  <PUBCHEM_COORDINATE_TYPE>
1
5
255

>  <PUBCHEM_BONDANNOTATIONS>
3  11  8
3  7  8
4  11  8
4  9  8
7  9  8

$$$$
