12444709
 OpenBabel06101807152D

 52 54  0  0  1  0  0  0  0  0999 V2000
    5.1350   -0.6296    0.0000 O   0  0  0  0  0  0  0  0  0  0  0  0
    6.8671   -0.6296    0.0000 O   0  0  0  0  0  0  0  0  0  0  0  0
    5.1350   -3.6296    0.0000 O   0  0  0  0  0  0  0  0  0  0  0  0
    3.4030   -2.6296    0.0000 O   0  0  0  0  0  0  0  0  0  0  0  0
    6.8671   -2.6296    0.0000 O   0  0  0  0  0  0  0  0  0  0  0  0
    2.5369   -1.1296    0.0000 O   0  0  0  0  0  0  0  0  0  0  0  0
    8.6431    2.3772    0.0000 O   0  0  0  0  0  0  0  0  0  0  0  0
    9.5191    3.9155    0.0000 O   0  0  0  0  0  0  0  0  0  0  0  0
    5.1350   -2.6296    0.0000 C   0  0  3  0  0  0  0  0  0  0  0  0
    4.2690   -2.1296    0.0000 C   0  0  3  0  0  0  0  0  0  0  0  0
    6.0010   -2.1296    0.0000 C   0  0  3  0  0  0  0  0  0  0  0  0
    4.2690   -1.1296    0.0000 C   0  0  3  0  0  0  0  0  0  0  0  0
    6.0010   -1.1296    0.0000 C   0  0  3  0  0  0  0  0  0  0  0  0
    3.4030   -0.6296    0.0000 C   0  0  0  0  0  0  0  0  0  0  0  0
    6.8671    0.3704    0.0000 C   0  0  0  0  0  0  0  0  0  0  0  0
    7.7331    0.8704    0.0000 C   0  0  0  0  0  0  0  0  0  0  0  0
    6.0010    0.8704    0.0000 C   0  0  0  0  0  0  0  0  0  0  0  0
    7.7331    1.8704    0.0000 C   0  0  0  0  0  0  0  0  0  0  0  0
    8.5991    0.3704    0.0000 C   0  0  0  0  0  0  0  0  0  0  0  0
    6.8671    2.3704    0.0000 C   0  0  0  0  0  0  0  0  0  0  0  0
    6.0010    1.8704    0.0000 C   0  0  0  0  0  0  0  0  0  0  0  0
    9.4651    0.8704    0.0000 C   0  0  0  0  0  0  0  0  0  0  0  0
    6.8510    3.4119    0.0000 C   0  0  0  0  0  0  0  0  0  0  0  0
   10.3312    0.3704    0.0000 C   0  0  0  0  0  0  0  0  0  0  0  0
    7.7490    3.9396    0.0000 C   0  0  0  0  0  0  0  0  0  0  0  0
    8.6511    3.4188    0.0000 C   0  0  0  0  0  0  0  0  0  0  0  0
   11.1972    0.8704    0.0000 C   0  0  0  0  0  0  0  0  0  0  0  0
   10.3312   -0.6296    0.0000 C   0  0  0  0  0  0  0  0  0  0  0  0
    5.6720   -2.9396    0.0000 H   0  0  0  0  0  0  0  0  0  0  0  0
    4.2690   -2.7496    0.0000 H   0  0  0  0  0  0  0  0  0  0  0  0
    6.5380   -1.8196    0.0000 H   0  0  0  0  0  0  0  0  0  0  0  0
    4.2690   -0.5096    0.0000 H   0  0  0  0  0  0  0  0  0  0  0  0
    6.0010   -0.5096    0.0000 H   0  0  0  0  0  0  0  0  0  0  0  0
    3.8015   -0.1547    0.0000 H   0  0  0  0  0  0  0  0  0  0  0  0
    3.0044   -0.1547    0.0000 H   0  0  0  0  0  0  0  0  0  0  0  0
    4.5981   -3.9396    0.0000 H   0  0  0  0  0  0  0  0  0  0  0  0
    3.4030   -3.2496    0.0000 H   0  0  0  0  0  0  0  0  0  0  0  0
    6.8671   -3.2496    0.0000 H   0  0  0  0  0  0  0  0  0  0  0  0
    2.0000   -0.8196    0.0000 H   0  0  0  0  0  0  0  0  0  0  0  0
    5.4641    0.5604    0.0000 H   0  0  0  0  0  0  0  0  0  0  0  0
    8.2006   -0.1046    0.0000 H   0  0  0  0  0  0  0  0  0  0  0  0
    8.9976   -0.1046    0.0000 H   0  0  0  0  0  0  0  0  0  0  0  0
    5.4641    2.1804    0.0000 H   0  0  0  0  0  0  0  0  0  0  0  0
    9.4651    1.4904    0.0000 H   0  0  0  0  0  0  0  0  0  0  0  0
    6.3105    3.7156    0.0000 H   0  0  0  0  0  0  0  0  0  0  0  0
    7.7466    4.5596    0.0000 H   0  0  0  0  0  0  0  0  0  0  0  0
   11.5072    0.3334    0.0000 H   0  0  0  0  0  0  0  0  0  0  0  0
   11.7341    1.1804    0.0000 H   0  0  0  0  0  0  0  0  0  0  0  0
    9.7112   -0.6296    0.0000 H   0  0  0  0  0  0  0  0  0  0  0  0
   10.3312   -1.2496    0.0000 H   0  0  0  0  0  0  0  0  0  0  0  0
   10.9512   -0.6296    0.0000 H   0  0  0  0  0  0  0  0  0  0  0  0
   10.8872    1.4073    0.0000 H   0  0  0  0  0  0  0  0  0  0  0  0
  1 12  1  0  0  0  0
  1 13  1  0  0  0  0
  2 13  1  0  0  0  0
  2 15  1  0  0  0  0
  3  9  1  0  0  0  0
  3 36  1  0  0  0  0
  4 10  1  0  0  0  0
  4 37  1  0  0  0  0
  5 11  1  0  0  0  0
  5 38  1  0  0  0  0
  6 14  1  0  0  0  0
  6 39  1  0  0  0  0
  7 18  1  0  0  0  0
  7 26  1  0  0  0  0
  8 26  2  0  0  0  0
  9 10  1  0  0  0  0
  9 11  1  0  0  0  0
  9 29  1  0  0  0  0
 10 12  1  0  0  0  0
 10 30  1  0  0  0  0
 11 13  1  0  0  0  0
 11 31  1  0  0  0  0
 12 14  1  0  0  0  0
 12 32  1  0  0  0  0
 13 33  1  0  0  0  0
 14 34  1  0  0  0  0
 14 35  1  0  0  0  0
 15 16  2  0  0  0  0
 15 17  1  0  0  0  0
 16 18  1  0  0  0  0
 16 19  1  0  0  0  0
 17 21  2  0  0  0  0
 17 40  1  0  0  0  0
 18 20  2  0  0  0  0
 19 22  1  0  0  0  0
 19 41  1  0  0  0  0
 19 42  1  0  0  0  0
 20 21  1  0  0  0  0
 20 23  1  0  0  0  0
 21 43  1  0  0  0  0
 22 24  2  0  0  0  0
 22 44  1  0  0  0  0
 23 25  2  0  0  0  0
 23 45  1  0  0  0  0
 24 27  1  0  0  0  0
 24 28  1  0  0  0  0
 25 26  1  0  0  0  0
 25 46  1  0  0  0  0
 27 47  1  0  0  0  0
 27 48  1  0  0  0  0
 27 52  1  0  0  0  0
 28 49  1  0  0  0  0
 28 50  1  0  0  0  0
 28 51  1  0  0  0  0
M  END
>  <PUBCHEM_COMPOUND_CID>
12444709

>  <PUBCHEM_COMPOUND_CANONICALIZED>
1

>  <PUBCHEM_CACTVS_COMPLEXITY>
613

>  <PUBCHEM_CACTVS_HBOND_ACCEPTOR>
8

>  <PUBCHEM_CACTVS_HBOND_DONOR>
4

>  <PUBCHEM_CACTVS_ROTATABLE_BOND>
5

>  <PUBCHEM_CACTVS_SUBSKEYS>
AAADceB4PAAAAAAAAAAAAAAAAAAAAAAAAAA0QIAAAAAAAACBAAAAGgAACAAADBSwmAMyDoAABgCIAiDSCAACCAAgIAAIiAAGCMgdNyKEMRqieiClwBUPqYfA4OwOIAACCAAIAABAAAQQABAAAAAAAAAAAA==

>  <PUBCHEM_IUPAC_OPENEYE_NAME>
8-(3-methylbut-2-enyl)-7-[3,4,5-trihydroxy-6-(hydroxymethyl)tetrahydropyran-2-yl]oxy-chromen-2-one

>  <PUBCHEM_IUPAC_CAS_NAME>
8-(3-methylbut-2-enyl)-7-[[3,4,5-trihydroxy-6-(hydroxymethyl)-2-oxanyl]oxy]-1-benzopyran-2-one

>  <PUBCHEM_IUPAC_NAME>
8-(3-methylbut-2-enyl)-7-[3,4,5-trihydroxy-6-(hydroxymethyl)oxan-2-yl]oxychromen-2-one

>  <PUBCHEM_IUPAC_SYSTEMATIC_NAME>
7-[6-(hydroxymethyl)-3,4,5-tris(oxidanyl)oxan-2-yl]oxy-8-(3-methylbut-2-enyl)chromen-2-one

>  <PUBCHEM_IUPAC_TRADITIONAL_NAME>
8-(3-methylbut-2-enyl)-7-(3,4,5-trihydroxy-6-methylol-tetrahydropyran-2-yl)oxy-coumarin

>  <PUBCHEM_IUPAC_INCHI>
InChI=1S/C20H24O8/c1-10(2)3-6-12-13(7-4-11-5-8-15(22)28-19(11)12)26-20-18(25)17(24)16(23)14(9-21)27-20/h3-5,7-8,14,16-18,20-21,23-25H,6,9H2,1-2H3

>  <PUBCHEM_IUPAC_INCHIKEY>
QPAYBYCPZSAASE-UHFFFAOYSA-N

>  <PUBCHEM_XLOGP3_AA>
1.7

>  <PUBCHEM_EXACT_MASS>
392.147

>  <PUBCHEM_MOLECULAR_FORMULA>
C20H24O8

>  <PUBCHEM_MOLECULAR_WEIGHT>
392.404

>  <PUBCHEM_OPENEYE_CAN_SMILES>
CC(=CCC1=C(C=CC2=C1OC(=O)C=C2)OC3C(C(C(C(O3)CO)O)O)O)C

>  <PUBCHEM_OPENEYE_ISO_SMILES>
CC(=CCC1=C(C=CC2=C1OC(=O)C=C2)OC3C(C(C(C(O3)CO)O)O)O)C

>  <PUBCHEM_CACTVS_TPSA>
126

>  <PUBCHEM_MONOISOTOPIC_WEIGHT>
392.147

>  <PUBCHEM_TOTAL_CHARGE>
0

>  <PUBCHEM_HEAVY_ATOM_COUNT>
28

>  <PUBCHEM_ATOM_DEF_STEREO_COUNT>
0

>  <PUBCHEM_ATOM_UDEF_STEREO_COUNT>
5

>  <PUBCHEM_BOND_DEF_STEREO_COUNT>
0

>  <PUBCHEM_BOND_UDEF_STEREO_COUNT>
0

>  <PUBCHEM_ISOTOPIC_ATOM_COUNT>
0

>  <PUBCHEM_COMPONENT_COUNT>
1

>  <PUBCHEM_CACTVS_TAUTO_COUNT>
1

>  <PUBCHEM_COORDINATE_TYPE>
1
5
255

>  <PUBCHEM_BONDANNOTATIONS>
12  14  3
15  16  8
15  17  8
16  18  8
17  21  8
18  20  8
13  2  3
20  21  8
20  23  8
23  25  8
25  26  8
9  3  3
10  4  3
11  5  3
7  18  8
7  26  8

$$$$
