124900
 OpenBabel06101807152D

 56 56  0  0  1  0  0  0  0  0999 V2000
    6.8671    3.3450    0.0000 O   0  0  0  0  0  0  0  0  0  0  0  0
    4.2690    0.8450    0.0000 O   0  0  0  0  0  0  0  0  0  0  0  0
    7.7331    1.8450    0.0000 O   0  0  0  0  0  0  0  0  0  0  0  0
    4.2690   -5.1550    0.0000 O   0  0  0  0  0  0  0  0  0  0  0  0
    6.0010    0.8450    0.0000 N   0  0  0  0  0  0  0  0  0  0  0  0
    6.0010   -1.1550    0.0000 N   0  0  0  0  0  0  0  0  0  0  0  0
    4.2690    4.8450    0.0000 N   0  0  0  0  0  0  0  0  0  0  0  0
    3.4030    6.3450    0.0000 N   0  0  0  0  0  0  0  0  0  0  0  0
    2.5369    4.8450    0.0000 N   0  0  0  0  0  0  0  0  0  0  0  0
    6.0010    1.8450    0.0000 C   0  0  2  0  0  0  0  0  0  0  0  0
    5.1350    2.3450    0.0000 C   0  0  0  0  0  0  0  0  0  0  0  0
    5.1350   -0.6550    0.0000 C   0  0  1  0  0  0  0  0  0  0  0  0
    5.1350    3.3450    0.0000 C   0  0  0  0  0  0  0  0  0  0  0  0
    4.2690   -1.1550    0.0000 C   0  0  0  0  0  0  0  0  0  0  0  0
    5.1350    0.3450    0.0000 C   0  0  0  0  0  0  0  0  0  0  0  0
    4.2690    3.8450    0.0000 C   0  0  0  0  0  0  0  0  0  0  0  0
    4.2690   -2.1550    0.0000 C   0  0  0  0  0  0  0  0  0  0  0  0
    6.8671    2.3450    0.0000 C   0  0  0  0  0  0  0  0  0  0  0  0
    3.4030   -2.6550    0.0000 C   0  0  0  0  0  0  0  0  0  0  0  0
    5.1350   -2.6550    0.0000 C   0  0  0  0  0  0  0  0  0  0  0  0
    3.4030   -3.6550    0.0000 C   0  0  0  0  0  0  0  0  0  0  0  0
    5.1350   -3.6550    0.0000 C   0  0  0  0  0  0  0  0  0  0  0  0
    4.2690   -4.1550    0.0000 C   0  0  0  0  0  0  0  0  0  0  0  0
    7.7331    3.8450    0.0000 C   0  0  0  0  0  0  0  0  0  0  0  0
    3.4030    5.3450    0.0000 C   0  0  0  0  0  0  0  0  0  0  0  0
    3.4030   -5.6550    0.0000 C   0  0  0  0  0  0  0  0  0  0  0  0
    3.4030   -6.6550    0.0000 C   0  0  0  0  0  0  0  0  0  0  0  0
    6.5380    1.5350    0.0000 H   0  0  0  0  0  0  0  0  0  0  0  0
    4.5244    2.4527    0.0000 H   0  0  0  0  0  0  0  0  0  0  0  0
    4.9230    1.7624    0.0000 H   0  0  0  0  0  0  0  0  0  0  0  0
    5.1350   -1.2750    0.0000 H   0  0  0  0  0  0  0  0  0  0  0  0
    5.7456    3.2373    0.0000 H   0  0  0  0  0  0  0  0  0  0  0  0
    5.3471    3.9276    0.0000 H   0  0  0  0  0  0  0  0  0  0  0  0
    6.5380    0.5350    0.0000 H   0  0  0  0  0  0  0  0  0  0  0  0
    4.0569   -0.5724    0.0000 H   0  0  0  0  0  0  0  0  0  0  0  0
    3.6584   -1.2627    0.0000 H   0  0  0  0  0  0  0  0  0  0  0  0
    3.6584    3.9527    0.0000 H   0  0  0  0  0  0  0  0  0  0  0  0
    4.0569    3.2624    0.0000 H   0  0  0  0  0  0  0  0  0  0  0  0
    6.5380   -0.8450    0.0000 H   0  0  0  0  0  0  0  0  0  0  0  0
    6.0010   -1.7750    0.0000 H   0  0  0  0  0  0  0  0  0  0  0  0
    2.8660   -2.3450    0.0000 H   0  0  0  0  0  0  0  0  0  0  0  0
    5.6720   -2.3450    0.0000 H   0  0  0  0  0  0  0  0  0  0  0  0
    2.8660   -3.9650    0.0000 H   0  0  0  0  0  0  0  0  0  0  0  0
    5.6720   -3.9650    0.0000 H   0  0  0  0  0  0  0  0  0  0  0  0
    8.0431    3.3081    0.0000 H   0  0  0  0  0  0  0  0  0  0  0  0
    8.2700    4.1550    0.0000 H   0  0  0  0  0  0  0  0  0  0  0  0
    7.4231    4.3819    0.0000 H   0  0  0  0  0  0  0  0  0  0  0  0
    3.1909   -5.0724    0.0000 H   0  0  0  0  0  0  0  0  0  0  0  0
    2.7924   -5.7627    0.0000 H   0  0  0  0  0  0  0  0  0  0  0  0
    2.8660    6.6550    0.0000 H   0  0  0  0  0  0  0  0  0  0  0  0
    3.9399    6.6550    0.0000 H   0  0  0  0  0  0  0  0  0  0  0  0
    2.0000    5.1550    0.0000 H   0  0  0  0  0  0  0  0  0  0  0  0
    2.5369    4.2250    0.0000 H   0  0  0  0  0  0  0  0  0  0  0  0
    2.7830   -6.6550    0.0000 H   0  0  0  0  0  0  0  0  0  0  0  0
    3.4030   -7.2750    0.0000 H   0  0  0  0  0  0  0  0  0  0  0  0
    4.0230   -6.6550    0.0000 H   0  0  0  0  0  0  0  0  0  0  0  0
  1 18  1  0  0  0  0
  1 24  1  0  0  0  0
  2 15  2  0  0  0  0
  3 18  2  0  0  0  0
  4 23  1  0  0  0  0
  4 26  1  0  0  0  0
  5 15  1  0  0  0  0
  5 34  1  0  0  0  0
  6 39  1  0  0  0  0
  6 40  1  0  0  0  0
  7 16  1  0  0  0  0
  7 25  2  0  0  0  0
  8 25  1  0  0  0  0
  8 50  1  0  0  0  0
  8 51  1  0  0  0  0
  9 25  1  0  0  0  0
  9 52  1  0  0  0  0
  9 53  1  0  0  0  0
 10  5  1  0  0  0  0
 10 11  1  0  0  0  0
 10 18  1  0  0  0  0
 10 28  1  1  0  0  0
 11 13  1  0  0  0  0
 11 29  1  0  0  0  0
 11 30  1  0  0  0  0
 12  6  1  0  0  0  0
 12 14  1  0  0  0  0
 12 15  1  0  0  0  0
 12 31  1  6  0  0  0
 13 16  1  0  0  0  0
 13 32  1  0  0  0  0
 13 33  1  0  0  0  0
 14 17  1  0  0  0  0
 14 35  1  0  0  0  0
 14 36  1  0  0  0  0
 16 37  1  0  0  0  0
 16 38  1  0  0  0  0
 17 19  2  0  0  0  0
 17 20  1  0  0  0  0
 19 21  1  0  0  0  0
 19 41  1  0  0  0  0
 20 22  2  0  0  0  0
 20 42  1  0  0  0  0
 21 23  2  0  0  0  0
 21 43  1  0  0  0  0
 22 23  1  0  0  0  0
 22 44  1  0  0  0  0
 24 45  1  0  0  0  0
 24 46  1  0  0  0  0
 24 47  1  0  0  0  0
 26 27  1  0  0  0  0
 26 48  1  0  0  0  0
 26 49  1  0  0  0  0
 27 54  1  0  0  0  0
 27 55  1  0  0  0  0
 27 56  1  0  0  0  0
M  END
>  <PUBCHEM_COMPOUND_CID>
124900

>  <PUBCHEM_COMPOUND_CANONICALIZED>
1

>  <PUBCHEM_CACTVS_COMPLEXITY>
488

>  <PUBCHEM_CACTVS_HBOND_ACCEPTOR>
6

>  <PUBCHEM_CACTVS_HBOND_DONOR>
4

>  <PUBCHEM_CACTVS_ROTATABLE_BOND>
12

>  <PUBCHEM_CACTVS_SUBSKEYS>
AAADceB7uAAAAAAAAAAAAAAAAAAAAAAAAAAwAAAAAAAAAAABAAAAHgAQAAAADCzhmAYzDoLABACoAiHSPAACCAEgIAAIiIGOCIgOZjKEsTuXOCCk1hGYqAeY2aCOIAAAAAAAAABAAAAAAAAAAAAAAAAAAA==

>  <PUBCHEM_IUPAC_OPENEYE_NAME>
methyl (2R)-2-[[(2S)-2-amino-3-(4-ethoxyphenyl)propanoyl]amino]-5-guanidino-pentanoate

>  <PUBCHEM_IUPAC_CAS_NAME>
(2R)-2-[[(2S)-2-amino-3-(4-ethoxyphenyl)-1-oxopropyl]amino]-5-(diaminomethylideneamino)pentanoic acid methyl ester

>  <PUBCHEM_IUPAC_NAME>
methyl (2R)-2-[[(2S)-2-amino-3-(4-ethoxyphenyl)propanoyl]amino]-5-(diaminomethylideneamino)pentanoate

>  <PUBCHEM_IUPAC_SYSTEMATIC_NAME>
methyl (2R)-2-[[(2S)-2-azanyl-3-(4-ethoxyphenyl)propanoyl]amino]-5-[bis(azanyl)methylideneamino]pentanoate

>  <PUBCHEM_IUPAC_TRADITIONAL_NAME>
(2R)-2-[[(2S)-2-amino-3-p-phenetyl-propanoyl]amino]-5-guanidino-valeric acid methyl ester

>  <PUBCHEM_IUPAC_INCHI>
InChI=1S/C18H29N5O4/c1-3-27-13-8-6-12(7-9-13)11-14(19)16(24)23-15(17(25)26-2)5-4-10-22-18(20)21/h6-9,14-15H,3-5,10-11,19H2,1-2H3,(H,23,24)(H4,20,21,22)/t14-,15+/m0/s1

>  <PUBCHEM_IUPAC_INCHIKEY>
WORMYLRHFRNKLF-LSDHHAIUSA-N

>  <PUBCHEM_XLOGP3_AA>
0.1

>  <PUBCHEM_EXACT_MASS>
379.222

>  <PUBCHEM_MOLECULAR_FORMULA>
C18H29N5O4

>  <PUBCHEM_MOLECULAR_WEIGHT>
379.461

>  <PUBCHEM_OPENEYE_CAN_SMILES>
CCOC1=CC=C(C=C1)CC(C(=O)NC(CCCN=C(N)N)C(=O)OC)N

>  <PUBCHEM_OPENEYE_ISO_SMILES>
CCOC1=CC=C(C=C1)C[C@@H](C(=O)N[C@H](CCCN=C(N)N)C(=O)OC)N

>  <PUBCHEM_CACTVS_TPSA>
155

>  <PUBCHEM_MONOISOTOPIC_WEIGHT>
379.222

>  <PUBCHEM_TOTAL_CHARGE>
0

>  <PUBCHEM_HEAVY_ATOM_COUNT>
27

>  <PUBCHEM_ATOM_DEF_STEREO_COUNT>
2

>  <PUBCHEM_ATOM_UDEF_STEREO_COUNT>
0

>  <PUBCHEM_BOND_DEF_STEREO_COUNT>
0

>  <PUBCHEM_BOND_UDEF_STEREO_COUNT>
0

>  <PUBCHEM_ISOTOPIC_ATOM_COUNT>
0

>  <PUBCHEM_COMPONENT_COUNT>
1

>  <PUBCHEM_CACTVS_TAUTO_COUNT>
4

>  <PUBCHEM_COORDINATE_TYPE>
1
5
255

>  <PUBCHEM_BONDANNOTATIONS>
17  19  8
17  20  8
19  21  8
20  22  8
21  23  8
22  23  8
10  5  6
12  6  5

$$$$
