12656
 OpenBabel06101807152D

 23 23  0  0  0  0  0  0  0  0999 V2000
    2.7431    0.1795    0.0000 N   0  0  0  0  0  0  0  0  0  0  0  0
    6.1974   -0.4594    0.0000 N   0  0  0  0  0  0  0  0  0  0  0  0
    6.6974    1.0794    0.0000 N   0  0  0  0  0  0  0  0  0  0  0  0
    3.6942    0.4885    0.0000 C   0  0  0  0  0  0  0  0  0  0  0  0
    4.4374   -0.1807    0.0000 C   0  0  0  0  0  0  0  0  0  0  0  0
    5.3884    0.1284    0.0000 C   0  0  0  0  0  0  0  0  0  0  0  0
    2.0000    0.8486    0.0000 C   0  0  0  0  0  0  0  0  0  0  0  0
    2.5352   -0.7987    0.0000 C   0  0  0  0  0  0  0  0  0  0  0  0
    5.6974    1.0794    0.0000 C   0  0  0  0  0  0  0  0  0  0  0  0
    7.0064    0.1284    0.0000 C   0  0  0  0  0  0  0  0  0  0  0  0
    4.1828    0.8702    0.0000 H   0  0  0  0  0  0  0  0  0  0  0  0
    3.4031    1.0359    0.0000 H   0  0  0  0  0  0  0  0  0  0  0  0
    3.9488   -0.5624    0.0000 H   0  0  0  0  0  0  0  0  0  0  0  0
    4.7284   -0.7281    0.0000 H   0  0  0  0  0  0  0  0  0  0  0  0
    2.4149    1.3093    0.0000 H   0  0  0  0  0  0  0  0  0  0  0  0
    1.5392    1.2634    0.0000 H   0  0  0  0  0  0  0  0  0  0  0  0
    1.5851    0.3878    0.0000 H   0  0  0  0  0  0  0  0  0  0  0  0
    1.9288   -0.6698    0.0000 H   0  0  0  0  0  0  0  0  0  0  0  0
    2.4063   -1.4051    0.0000 H   0  0  0  0  0  0  0  0  0  0  0  0
    3.1417   -0.9276    0.0000 H   0  0  0  0  0  0  0  0  0  0  0  0
    6.1974   -1.0794    0.0000 H   0  0  0  0  0  0  0  0  0  0  0  0
    5.3330    1.5810    0.0000 H   0  0  0  0  0  0  0  0  0  0  0  0
    7.5961   -0.0632    0.0000 H   0  0  0  0  0  0  0  0  0  0  0  0
  1  4  1  0  0  0  0
  1  7  1  0  0  0  0
  1  8  1  0  0  0  0
  2  6  1  0  0  0  0
  2 10  1  0  0  0  0
  2 21  1  0  0  0  0
  3  9  1  0  0  0  0
  3 10  2  0  0  0  0
  4  5  1  0  0  0  0
  4 11  1  0  0  0  0
  4 12  1  0  0  0  0
  5  6  1  0  0  0  0
  5 13  1  0  0  0  0
  5 14  1  0  0  0  0
  6  9  2  0  0  0  0
  7 15  1  0  0  0  0
  7 16  1  0  0  0  0
  7 17  1  0  0  0  0
  8 18  1  0  0  0  0
  8 19  1  0  0  0  0
  8 20  1  0  0  0  0
  9 22  1  0  0  0  0
 10 23  1  0  0  0  0
M  END
>  <PUBCHEM_COMPOUND_CID>
12656

>  <PUBCHEM_COMPOUND_CANONICALIZED>
1

>  <PUBCHEM_CACTVS_COMPLEXITY>
92.9

>  <PUBCHEM_CACTVS_HBOND_ACCEPTOR>
2

>  <PUBCHEM_CACTVS_HBOND_DONOR>
1

>  <PUBCHEM_CACTVS_ROTATABLE_BOND>
3

>  <PUBCHEM_CACTVS_SUBSKEYS>
AAADccBjAAAAAAAAAAAAAAAAAAAAAWAAAAAAAAAAAAAAAAABgAAAHAAQAAAACAjBFgQvkBfJkACgARRnZAAAgC2xEqABUYA4cAiAaABAyQEUAAAIEAJAQCAAAAAAAAAAAAAAAAAAAAAAAAAAAAAAAAAAAA==

>  <PUBCHEM_IUPAC_OPENEYE_NAME>
2-(1H-imidazol-5-yl)-N,N-dimethyl-ethanamine

>  <PUBCHEM_IUPAC_CAS_NAME>
2-(1H-imidazol-5-yl)-N,N-dimethylethanamine

>  <PUBCHEM_IUPAC_NAME>
2-(1H-imidazol-5-yl)-N,N-dimethylethanamine

>  <PUBCHEM_IUPAC_SYSTEMATIC_NAME>
2-(1H-imidazol-5-yl)-N,N-dimethyl-ethanamine

>  <PUBCHEM_IUPAC_TRADITIONAL_NAME>
2-(1H-imidazol-5-yl)ethyl-dimethyl-amine

>  <PUBCHEM_IUPAC_INCHI>
InChI=1S/C7H13N3/c1-10(2)4-3-7-5-8-6-9-7/h5-6H,3-4H2,1-2H3,(H,8,9)

>  <PUBCHEM_IUPAC_INCHIKEY>
ZJDIMSMQXMWMCF-UHFFFAOYSA-N

>  <PUBCHEM_XLOGP3>
0.3

>  <PUBCHEM_EXACT_MASS>
139.111

>  <PUBCHEM_MOLECULAR_FORMULA>
C7H13N3

>  <PUBCHEM_MOLECULAR_WEIGHT>
139.202

>  <PUBCHEM_OPENEYE_CAN_SMILES>
CN(C)CCC1=CN=CN1

>  <PUBCHEM_OPENEYE_ISO_SMILES>
CN(C)CCC1=CN=CN1

>  <PUBCHEM_CACTVS_TPSA>
31.9

>  <PUBCHEM_MONOISOTOPIC_WEIGHT>
139.111

>  <PUBCHEM_TOTAL_CHARGE>
0

>  <PUBCHEM_HEAVY_ATOM_COUNT>
10

>  <PUBCHEM_ATOM_DEF_STEREO_COUNT>
0

>  <PUBCHEM_ATOM_UDEF_STEREO_COUNT>
0

>  <PUBCHEM_BOND_DEF_STEREO_COUNT>
0

>  <PUBCHEM_BOND_UDEF_STEREO_COUNT>
0

>  <PUBCHEM_ISOTOPIC_ATOM_COUNT>
0

>  <PUBCHEM_COMPONENT_COUNT>
1

>  <PUBCHEM_CACTVS_TAUTO_COUNT>
2

>  <PUBCHEM_COORDINATE_TYPE>
1
5
255

>  <PUBCHEM_BONDANNOTATIONS>
2  10  8
2  6  8
3  10  8
3  9  8
6  9  8

$$$$
