127046373
 OpenBabel06101807152D

 70 72  0  0  0  0  0  0  0  0999 V2000
    6.0812    1.8292    0.0000 O   0  0  0  0  0  0  0  0  0  0  0  0
    2.5369    1.6340    0.0000 O   0  0  0  0  0  0  0  0  0  0  0  0
    9.6648    0.9019    0.0000 O   0  0  0  0  0  0  0  0  0  0  0  0
    9.6648    4.3660    0.0000 O   0  0  0  0  0  0  0  0  0  0  0  0
    5.1350    2.1340    0.0000 C   0  0  0  0  0  0  0  0  0  0  0  0
    4.2690    1.6340    0.0000 C   0  0  0  0  0  0  0  0  0  0  0  0
    5.1350    3.1340    0.0000 C   0  0  0  0  0  0  0  0  0  0  0  0
    6.6648    2.6340    0.0000 C   0  0  0  0  0  0  0  0  0  0  0  0
    7.6648    2.6340    0.0000 C   0  0  0  0  0  0  0  0  0  0  0  0
    4.2690    0.6340    0.0000 C   0  0  0  0  0  0  0  0  0  0  0  0
    6.0812    3.4387    0.0000 C   0  0  0  0  0  0  0  0  0  0  0  0
    8.1648    1.7680    0.0000 C   0  0  0  0  0  0  0  0  0  0  0  0
    3.4030    2.1340    0.0000 C   0  0  0  0  0  0  0  0  0  0  0  0
    4.2690    3.6340    0.0000 C   0  0  0  0  0  0  0  0  0  0  0  0
    3.4030    0.1340    0.0000 C   0  0  0  0  0  0  0  0  0  0  0  0
    3.4030   -0.8660    0.0000 C   0  0  0  0  0  0  0  0  0  0  0  0
    7.6648    0.9019    0.0000 C   0  0  0  0  0  0  0  0  0  0  0  0
    4.2690   -1.3660    0.0000 C   0  0  0  0  0  0  0  0  0  0  0  0
    3.4030    3.1340    0.0000 C   0  0  0  0  0  0  0  0  0  0  0  0
    9.1648    1.7680    0.0000 C   0  0  0  0  0  0  0  0  0  0  0  0
    8.1648    3.5000    0.0000 C   0  0  0  0  0  0  0  0  0  0  0  0
    4.2690   -2.3660    0.0000 C   0  0  0  0  0  0  0  0  0  0  0  0
    9.1648    3.5000    0.0000 C   0  0  0  0  0  0  0  0  0  0  0  0
    9.6648    2.6340    0.0000 C   0  0  0  0  0  0  0  0  0  0  0  0
    2.5369   -1.3660    0.0000 C   0  0  0  0  0  0  0  0  0  0  0  0
    8.1648    0.0359    0.0000 C   0  0  0  0  0  0  0  0  0  0  0  0
    5.1350   -2.8660    0.0000 C   0  0  0  0  0  0  0  0  0  0  0  0
    7.6648   -0.8301    0.0000 C   0  0  0  0  0  0  0  0  0  0  0  0
    5.1350   -3.8660    0.0000 C   0  0  0  0  0  0  0  0  0  0  0  0
    8.1648   -1.6962    0.0000 C   0  0  0  0  0  0  0  0  0  0  0  0
    6.6648   -0.8301    0.0000 C   0  0  0  0  0  0  0  0  0  0  0  0
   10.6648    0.9019    0.0000 C   0  0  0  0  0  0  0  0  0  0  0  0
    6.0010   -4.3660    0.0000 C   0  0  0  0  0  0  0  0  0  0  0  0
    4.2690   -4.3660    0.0000 C   0  0  0  0  0  0  0  0  0  0  0  0
    4.4810    0.0514    0.0000 H   0  0  0  0  0  0  0  0  0  0  0  0
    4.8796    0.7416    0.0000 H   0  0  0  0  0  0  0  0  0  0  0  0
    6.2738    4.0280    0.0000 H   0  0  0  0  0  0  0  0  0  0  0  0
    4.2690    4.2540    0.0000 H   0  0  0  0  0  0  0  0  0  0  0  0
    2.8660    0.4440    0.0000 H   0  0  0  0  0  0  0  0  0  0  0  0
    7.1899    1.3005    0.0000 H   0  0  0  0  0  0  0  0  0  0  0  0
    7.1899    0.5034    0.0000 H   0  0  0  0  0  0  0  0  0  0  0  0
    4.8796   -1.4737    0.0000 H   0  0  0  0  0  0  0  0  0  0  0  0
    4.4810   -0.7834    0.0000 H   0  0  0  0  0  0  0  0  0  0  0  0
    2.8660    3.4440    0.0000 H   0  0  0  0  0  0  0  0  0  0  0  0
    7.8548    4.0369    0.0000 H   0  0  0  0  0  0  0  0  0  0  0  0
    3.6584   -2.2584    0.0000 H   0  0  0  0  0  0  0  0  0  0  0  0
    4.0569   -2.9486    0.0000 H   0  0  0  0  0  0  0  0  0  0  0  0
   10.2848    2.6340    0.0000 H   0  0  0  0  0  0  0  0  0  0  0  0
    2.2269   -0.8291    0.0000 H   0  0  0  0  0  0  0  0  0  0  0  0
    2.0000   -1.6760    0.0000 H   0  0  0  0  0  0  0  0  0  0  0  0
    2.8469   -1.9030    0.0000 H   0  0  0  0  0  0  0  0  0  0  0  0
    8.7848    0.0359    0.0000 H   0  0  0  0  0  0  0  0  0  0  0  0
    5.6720   -2.5560    0.0000 H   0  0  0  0  0  0  0  0  0  0  0  0
    2.0000    1.9440    0.0000 H   0  0  0  0  0  0  0  0  0  0  0  0
    6.6648   -0.2101    0.0000 H   0  0  0  0  0  0  0  0  0  0  0  0
    6.0448   -0.8301    0.0000 H   0  0  0  0  0  0  0  0  0  0  0  0
    6.6648   -1.4501    0.0000 H   0  0  0  0  0  0  0  0  0  0  0  0
    7.6279   -2.0062    0.0000 H   0  0  0  0  0  0  0  0  0  0  0  0
    8.4748   -2.2331    0.0000 H   0  0  0  0  0  0  0  0  0  0  0  0
    8.7018   -1.3862    0.0000 H   0  0  0  0  0  0  0  0  0  0  0  0
   10.2848    4.3660    0.0000 H   0  0  0  0  0  0  0  0  0  0  0  0
   10.6648    0.2819    0.0000 H   0  0  0  0  0  0  0  0  0  0  0  0
   11.2848    0.9019    0.0000 H   0  0  0  0  0  0  0  0  0  0  0  0
   10.6648    1.5219    0.0000 H   0  0  0  0  0  0  0  0  0  0  0  0
    3.9590   -3.8291    0.0000 H   0  0  0  0  0  0  0  0  0  0  0  0
    3.7320   -4.6760    0.0000 H   0  0  0  0  0  0  0  0  0  0  0  0
    4.5790   -4.9030    0.0000 H   0  0  0  0  0  0  0  0  0  0  0  0
    5.6910   -4.9030    0.0000 H   0  0  0  0  0  0  0  0  0  0  0  0
    6.5380   -4.6760    0.0000 H   0  0  0  0  0  0  0  0  0  0  0  0
    6.3110   -3.8291    0.0000 H   0  0  0  0  0  0  0  0  0  0  0  0
  1  5  1  0  0  0  0
  1  8  1  0  0  0  0
  2 13  1  0  0  0  0
  2 54  1  0  0  0  0
  3 20  1  0  0  0  0
  3 32  1  0  0  0  0
  4 23  1  0  0  0  0
  4 61  1  0  0  0  0
  5  6  1  0  0  0  0
  5  7  2  0  0  0  0
  6 10  1  0  0  0  0
  6 13  2  0  0  0  0
  7 11  1  0  0  0  0
  7 14  1  0  0  0  0
  8  9  1  0  0  0  0
  8 11  2  0  0  0  0
  9 12  2  0  0  0  0
  9 21  1  0  0  0  0
 10 15  1  0  0  0  0
 10 35  1  0  0  0  0
 10 36  1  0  0  0  0
 11 37  1  0  0  0  0
 12 17  1  0  0  0  0
 12 20  1  0  0  0  0
 13 19  1  0  0  0  0
 14 19  2  0  0  0  0
 14 38  1  0  0  0  0
 15 16  2  0  0  0  0
 15 39  1  0  0  0  0
 16 18  1  0  0  0  0
 16 25  1  0  0  0  0
 17 26  1  0  0  0  0
 17 40  1  0  0  0  0
 17 41  1  0  0  0  0
 18 22  1  0  0  0  0
 18 42  1  0  0  0  0
 18 43  1  0  0  0  0
 19 44  1  0  0  0  0
 20 24  2  0  0  0  0
 21 23  2  0  0  0  0
 21 45  1  0  0  0  0
 22 27  1  0  0  0  0
 22 46  1  0  0  0  0
 22 47  1  0  0  0  0
 23 24  1  0  0  0  0
 24 48  1  0  0  0  0
 25 49  1  0  0  0  0
 25 50  1  0  0  0  0
 25 51  1  0  0  0  0
 26 28  2  0  0  0  0
 26 52  1  0  0  0  0
 27 29  2  0  0  0  0
 27 53  1  0  0  0  0
 28 30  1  0  0  0  0
 28 31  1  0  0  0  0
 29 33  1  0  0  0  0
 29 34  1  0  0  0  0
 30 58  1  0  0  0  0
 30 59  1  0  0  0  0
 30 60  1  0  0  0  0
 31 55  1  0  0  0  0
 31 56  1  0  0  0  0
 31 57  1  0  0  0  0
 32 62  1  0  0  0  0
 32 63  1  0  0  0  0
 32 64  1  0  0  0  0
 33 68  1  0  0  0  0
 33 69  1  0  0  0  0
 33 70  1  0  0  0  0
 34 65  1  0  0  0  0
 34 66  1  0  0  0  0
 34 67  1  0  0  0  0
M  END
>  <PUBCHEM_COMPOUND_CID>
127046373

>  <PUBCHEM_COMPOUND_CANONICALIZED>
1

>  <PUBCHEM_CACTVS_COMPLEXITY>
730

>  <PUBCHEM_CACTVS_HBOND_ACCEPTOR>
4

>  <PUBCHEM_CACTVS_HBOND_DONOR>
2

>  <PUBCHEM_CACTVS_ROTATABLE_BOND>
9

>  <PUBCHEM_CACTVS_SUBSKEYS>
AAADcfB4OAAAAAAAAAAAAAAAAAAAASAAAAAwYAAAAAAAAEgB9AAAGgAACAAADASAmAIyBsAABkCIAqBSAAACCAAkIAAIiAEGCMgMJzaGNRqCeWCl4BUIuYfK7PzOoAADCAAYAABAAAYQADAAAAAAAAAAAA==

>  <PUBCHEM_IUPAC_OPENEYE_NAME>
7-[(2Z)-3,7-dimethylocta-2,6-dienyl]-2-[5-hydroxy-3-methoxy-2-(3-methylbut-2-enyl)phenyl]benzofuran-6-ol

>  <PUBCHEM_IUPAC_CAS_NAME>
7-[(2Z)-3,7-dimethylocta-2,6-dienyl]-2-[5-hydroxy-3-methoxy-2-(3-methylbut-2-enyl)phenyl]-6-benzofuranol

>  <PUBCHEM_IUPAC_NAME>
7-[(2Z)-3,7-dimethylocta-2,6-dienyl]-2-[5-hydroxy-3-methoxy-2-(3-methylbut-2-enyl)phenyl]-1-benzofuran-6-ol

>  <PUBCHEM_IUPAC_SYSTEMATIC_NAME>
7-[(2Z)-3,7-dimethylocta-2,6-dienyl]-2-[3-methoxy-2-(3-methylbut-2-enyl)-5-oxidanyl-phenyl]-1-benzofuran-6-ol

>  <PUBCHEM_IUPAC_TRADITIONAL_NAME>
7-[(2Z)-3,7-dimethylocta-2,6-dienyl]-2-[5-hydroxy-3-methoxy-2-(3-methylbut-2-enyl)phenyl]benzofuran-6-ol

>  <PUBCHEM_IUPAC_INCHI>
InChI=1S/C30H36O4/c1-19(2)8-7-9-21(5)11-14-25-27(32)15-12-22-16-29(34-30(22)25)26-17-23(31)18-28(33-6)24(26)13-10-20(3)4/h8,10-12,15-18,31-32H,7,9,13-14H2,1-6H3/b21-11-

>  <PUBCHEM_IUPAC_INCHIKEY>
ALGFXATVXBZEBW-NHDPSOOVSA-N

>  <PUBCHEM_XLOGP3_AA>
9

>  <PUBCHEM_EXACT_MASS>
460.261

>  <PUBCHEM_MOLECULAR_FORMULA>
C30H36O4

>  <PUBCHEM_MOLECULAR_WEIGHT>
460.614

>  <PUBCHEM_OPENEYE_CAN_SMILES>
CC(=CCCC(=CCC1=C(C=CC2=C1OC(=C2)C3=CC(=CC(=C3CC=C(C)C)OC)O)O)C)C

>  <PUBCHEM_OPENEYE_ISO_SMILES>
CC(=CCC/C(=C\CC1=C(C=CC2=C1OC(=C2)C3=CC(=CC(=C3CC=C(C)C)OC)O)O)/C)C

>  <PUBCHEM_CACTVS_TPSA>
62.8

>  <PUBCHEM_MONOISOTOPIC_WEIGHT>
460.261

>  <PUBCHEM_TOTAL_CHARGE>
0

>  <PUBCHEM_HEAVY_ATOM_COUNT>
34

>  <PUBCHEM_ATOM_DEF_STEREO_COUNT>
0

>  <PUBCHEM_ATOM_UDEF_STEREO_COUNT>
0

>  <PUBCHEM_BOND_DEF_STEREO_COUNT>
1

>  <PUBCHEM_BOND_UDEF_STEREO_COUNT>
0

>  <PUBCHEM_ISOTOPIC_ATOM_COUNT>
0

>  <PUBCHEM_COMPONENT_COUNT>
1

>  <PUBCHEM_CACTVS_TAUTO_COUNT>
998

>  <PUBCHEM_COORDINATE_TYPE>
1
5
255

>  <PUBCHEM_BONDANNOTATIONS>
1  5  8
1  8  8
12  20  8
13  19  8
14  19  8
20  24  8
21  23  8
23  24  8
5  6  8
5  7  8
6  13  8
7  11  8
7  14  8
8  11  8
9  12  8
9  21  8

$$$$
