12873460
 OpenBabel06101807152D

141144  0  0  1  0  0  0  0  0999 V2000
    7.6401   -3.4050    0.0000 O   0  0  0  0  0  0  0  0  0  0  0  0
    9.3722   -3.4050    0.0000 O   0  0  0  0  0  0  0  0  0  0  0  0
    5.9081   -5.4050    0.0000 O   0  0  0  0  0  0  0  0  0  0  0  0
    5.0420   -3.9050    0.0000 O   0  0  0  0  0  0  0  0  0  0  0  0
    9.3722   -5.4050    0.0000 O   0  0  0  0  0  0  0  0  0  0  0  0
    2.3100   -4.9050    0.0000 O   0  0  0  0  0  0  0  0  0  0  0  0
    2.4440   -3.4050    0.0000 O   0  0  0  0  0  0  0  0  0  0  0  0
   11.1042   -3.4050    0.0000 O   0  0  0  0  0  0  0  0  0  0  0  0
   12.8363   -0.4050    0.0000 O   0  0  0  0  0  0  0  0  0  0  0  0
   11.9703    4.0950    0.0000 O   0  0  0  0  0  0  0  0  0  0  0  0
   12.8363    2.5950    0.0000 O   0  0  0  0  0  0  0  0  0  0  0  0
    5.9081   -2.4050    0.0000 O   0  0  0  0  0  0  0  0  0  0  0  0
    6.7741    1.0950    0.0000 O   0  0  0  0  0  0  0  0  0  0  0  0
   10.9703   -0.9050    0.0000 O   0  0  0  0  0  0  0  0  0  0  0  0
   14.5683    3.5950    0.0000 O   0  0  0  0  0  0  0  0  0  0  0  0
   14.5683    5.5950    0.0000 O   0  0  0  0  0  0  0  0  0  0  0  0
   12.8363    6.5950    0.0000 O   0  0  0  0  0  0  0  0  0  0  0  0
    7.6401   -6.4050    0.0000 N   0  0  0  0  0  0  0  0  0  0  0  0
    7.6401   -5.4050    0.0000 C   0  0  1  0  0  0  0  0  0  0  0  0
    6.7741   -4.9050    0.0000 C   0  0  1  0  0  0  0  0  0  0  0  0
    8.5062   -4.9050    0.0000 C   0  0  2  0  0  0  0  0  0  0  0  0
    8.5062   -3.9050    0.0000 C   0  0  1  0  0  0  0  0  0  0  0  0
    6.7741   -3.9050    0.0000 C   0  0  1  0  0  0  0  0  0  0  0  0
    9.3722   -2.4050    0.0000 C   0  0  1  0  0  0  0  0  0  0  0  0
    8.5062   -1.9050    0.0000 C   0  0  2  0  0  0  0  0  0  0  0  0
   10.2382   -1.9050    0.0000 C   0  0  2  0  0  0  0  0  0  0  0  0
    5.0420   -4.9050    0.0000 C   0  0  1  0  0  0  0  0  0  0  0  0
    3.3100   -4.9050    0.0000 C   0  0  2  0  0  0  0  0  0  0  0  0
    4.1760   -5.4050    0.0000 C   0  0  0  0  0  0  0  0  0  0  0  0
    3.3100   -3.9050    0.0000 C   0  0  2  0  0  0  0  0  0  0  0  0
    8.5062   -0.9050    0.0000 C   0  0  0  0  0  0  0  0  0  0  0  0
    4.1760   -3.4050    0.0000 C   0  0  2  0  0  0  0  0  0  0  0  0
   11.1042   -2.4050    0.0000 C   0  0  1  0  0  0  0  0  0  0  0  0
    5.9081   -3.4050    0.0000 C   0  0  0  0  0  0  0  0  0  0  0  0
    7.6401   -2.4050    0.0000 C   0  0  0  0  0  0  0  0  0  0  0  0
   10.2382   -0.9050    0.0000 C   0  0  0  0  0  0  0  0  0  0  0  0
    7.6401   -0.4050    0.0000 C   0  0  1  0  0  0  0  0  0  0  0  0
    2.8100   -5.7710    0.0000 C   0  0  0  0  0  0  0  0  0  0  0  0
    8.5062   -6.9050    0.0000 C   0  0  0  0  0  0  0  0  0  0  0  0
    6.7741   -6.9050    0.0000 C   0  0  0  0  0  0  0  0  0  0  0  0
   11.9703   -1.9050    0.0000 C   0  0  0  0  0  0  0  0  0  0  0  0
    4.1760   -2.4050    0.0000 C   0  0  0  0  0  0  0  0  0  0  0  0
    6.6401   -0.4050    0.0000 C   0  0  0  0  0  0  0  0  0  0  0  0
    6.7741   -1.9050    0.0000 C   0  0  0  0  0  0  0  0  0  0  0  0
    7.6401    0.5950    0.0000 C   0  0  0  0  0  0  0  0  0  0  0  0
   11.9703   -0.9050    0.0000 C   0  0  0  0  0  0  0  0  0  0  0  0
   12.8363    0.5950    0.0000 C   0  0  1  0  0  0  0  0  0  0  0  0
   11.9703    1.0950    0.0000 C   0  0  1  0  0  0  0  0  0  0  0  0
   13.7023    4.0950    0.0000 C   0  0  2  0  0  0  0  0  0  0  0  0
   13.7023    5.0950    0.0000 C   0  0  1  0  0  0  0  0  0  0  0  0
   12.8363    3.5950    0.0000 C   0  0  1  0  0  0  0  0  0  0  0  0
    8.5062    1.0950    0.0000 C   0  0  0  0  0  0  0  0  0  0  0  0
   12.8363    5.5950    0.0000 C   0  0  1  0  0  0  0  0  0  0  0  0
   11.9703    5.0950    0.0000 C   0  0  1  0  0  0  0  0  0  0  0  0
   11.9703    2.0950    0.0000 C   0  0  0  0  0  0  0  0  0  0  0  0
   13.7023    1.0950    0.0000 C   0  0  0  0  0  0  0  0  0  0  0  0
   11.1042    0.5950    0.0000 C   0  0  0  0  0  0  0  0  0  0  0  0
    9.3722    0.5950    0.0000 C   0  0  0  0  0  0  0  0  0  0  0  0
   10.2382    1.0950    0.0000 C   0  0  0  0  0  0  0  0  0  0  0  0
   11.1042    5.5950    0.0000 C   0  0  0  0  0  0  0  0  0  0  0  0
   14.5683    0.5950    0.0000 C   0  0  0  0  0  0  0  0  0  0  0  0
   10.2382    2.0950    0.0000 C   0  0  0  0  0  0  0  0  0  0  0  0
   15.4344    4.0950    0.0000 C   0  0  0  0  0  0  0  0  0  0  0  0
   14.5683    6.5950    0.0000 C   0  0  0  0  0  0  0  0  0  0  0  0
    8.1771   -5.7150    0.0000 H   0  0  0  0  0  0  0  0  0  0  0  0
    6.7741   -5.5250    0.0000 H   0  0  0  0  0  0  0  0  0  0  0  0
    9.0431   -4.5950    0.0000 H   0  0  0  0  0  0  0  0  0  0  0  0
    8.5062   -3.2850    0.0000 H   0  0  0  0  0  0  0  0  0  0  0  0
    6.7741   -3.2850    0.0000 H   0  0  0  0  0  0  0  0  0  0  0  0
    9.9091   -2.7150    0.0000 H   0  0  0  0  0  0  0  0  0  0  0  0
    7.9692   -1.5950    0.0000 H   0  0  0  0  0  0  0  0  0  0  0  0
    9.7013   -1.5950    0.0000 H   0  0  0  0  0  0  0  0  0  0  0  0
    5.0420   -5.5250    0.0000 H   0  0  0  0  0  0  0  0  0  0  0  0
    3.7775   -5.8800    0.0000 H   0  0  0  0  0  0  0  0  0  0  0  0
    4.5746   -5.8800    0.0000 H   0  0  0  0  0  0  0  0  0  0  0  0
    3.3100   -3.2850    0.0000 H   0  0  0  0  0  0  0  0  0  0  0  0
    9.1167   -1.0127    0.0000 H   0  0  0  0  0  0  0  0  0  0  0  0
    8.7182   -0.3224    0.0000 H   0  0  0  0  0  0  0  0  0  0  0  0
    4.7130   -3.0950    0.0000 H   0  0  0  0  0  0  0  0  0  0  0  0
   11.6412   -2.7150    0.0000 H   0  0  0  0  0  0  0  0  0  0  0  0
    6.2181   -2.8681    0.0000 H   0  0  0  0  0  0  0  0  0  0  0  0
    5.3711   -3.0950    0.0000 H   0  0  0  0  0  0  0  0  0  0  0  0
    5.5981   -3.9419    0.0000 H   0  0  0  0  0  0  0  0  0  0  0  0
    7.2416   -2.8800    0.0000 H   0  0  0  0  0  0  0  0  0  0  0  0
    8.0387   -2.8800    0.0000 H   0  0  0  0  0  0  0  0  0  0  0  0
   10.8582   -0.9050    0.0000 H   0  0  0  0  0  0  0  0  0  0  0  0
   10.2382   -0.2850    0.0000 H   0  0  0  0  0  0  0  0  0  0  0  0
    9.6182   -0.9050    0.0000 H   0  0  0  0  0  0  0  0  0  0  0  0
    7.4796   -1.0039    0.0000 H   0  0  0  0  0  0  0  0  0  0  0  0
    9.9091   -5.0950    0.0000 H   0  0  0  0  0  0  0  0  0  0  0  0
    2.2731   -5.4610    0.0000 H   0  0  0  0  0  0  0  0  0  0  0  0
    2.5000   -6.3080    0.0000 H   0  0  0  0  0  0  0  0  0  0  0  0
    3.3469   -6.0810    0.0000 H   0  0  0  0  0  0  0  0  0  0  0  0
    8.1962   -7.4419    0.0000 H   0  0  0  0  0  0  0  0  0  0  0  0
    9.0431   -7.2150    0.0000 H   0  0  0  0  0  0  0  0  0  0  0  0
    8.8162   -6.3681    0.0000 H   0  0  0  0  0  0  0  0  0  0  0  0
    6.4641   -6.3681    0.0000 H   0  0  0  0  0  0  0  0  0  0  0  0
    6.2372   -7.2150    0.0000 H   0  0  0  0  0  0  0  0  0  0  0  0
    7.0841   -7.4419    0.0000 H   0  0  0  0  0  0  0  0  0  0  0  0
   12.1823   -2.4876    0.0000 H   0  0  0  0  0  0  0  0  0  0  0  0
   12.5808   -1.7973    0.0000 H   0  0  0  0  0  0  0  0  0  0  0  0
    4.7960   -2.4050    0.0000 H   0  0  0  0  0  0  0  0  0  0  0  0
    4.1760   -1.7850    0.0000 H   0  0  0  0  0  0  0  0  0  0  0  0
    3.5560   -2.4050    0.0000 H   0  0  0  0  0  0  0  0  0  0  0  0
    2.0000   -5.4419    0.0000 H   0  0  0  0  0  0  0  0  0  0  0  0
    2.4440   -2.7850    0.0000 H   0  0  0  0  0  0  0  0  0  0  0  0
    6.6402    0.2150    0.0000 H   0  0  0  0  0  0  0  0  0  0  0  0
    6.0201   -0.4049    0.0000 H   0  0  0  0  0  0  0  0  0  0  0  0
    6.6401   -1.0250    0.0000 H   0  0  0  0  0  0  0  0  0  0  0  0
    6.4641   -1.3681    0.0000 H   0  0  0  0  0  0  0  0  0  0  0  0
   11.6412   -3.7150    0.0000 H   0  0  0  0  0  0  0  0  0  0  0  0
   13.3732    0.2850    0.0000 H   0  0  0  0  0  0  0  0  0  0  0  0
   11.4333    1.4050    0.0000 H   0  0  0  0  0  0  0  0  0  0  0  0
   14.2392    4.4050    0.0000 H   0  0  0  0  0  0  0  0  0  0  0  0
   13.7023    5.7150    0.0000 H   0  0  0  0  0  0  0  0  0  0  0  0
   13.3732    3.2850    0.0000 H   0  0  0  0  0  0  0  0  0  0  0  0
   12.2993    5.9050    0.0000 H   0  0  0  0  0  0  0  0  0  0  0  0
    8.5062    1.7150    0.0000 H   0  0  0  0  0  0  0  0  0  0  0  0
   11.4333    4.7850    0.0000 H   0  0  0  0  0  0  0  0  0  0  0  0
   11.7582    2.6776    0.0000 H   0  0  0  0  0  0  0  0  0  0  0  0
   11.3597    1.9873    0.0000 H   0  0  0  0  0  0  0  0  0  0  0  0
   14.1008    1.5700    0.0000 H   0  0  0  0  0  0  0  0  0  0  0  0
   13.3038    1.5700    0.0000 H   0  0  0  0  0  0  0  0  0  0  0  0
   11.1042   -0.0250    0.0000 H   0  0  0  0  0  0  0  0  0  0  0  0
    9.3722   -0.0250    0.0000 H   0  0  0  0  0  0  0  0  0  0  0  0
   11.4142    6.1319    0.0000 H   0  0  0  0  0  0  0  0  0  0  0  0
   10.5673    5.9050    0.0000 H   0  0  0  0  0  0  0  0  0  0  0  0
   10.7942    5.0581    0.0000 H   0  0  0  0  0  0  0  0  0  0  0  0
   14.2583    0.0581    0.0000 H   0  0  0  0  0  0  0  0  0  0  0  0
   15.1053    0.2850    0.0000 H   0  0  0  0  0  0  0  0  0  0  0  0
   14.8783    1.1319    0.0000 H   0  0  0  0  0  0  0  0  0  0  0  0
   12.2993    6.9050    0.0000 H   0  0  0  0  0  0  0  0  0  0  0  0
   10.8582    2.0950    0.0000 H   0  0  0  0  0  0  0  0  0  0  0  0
   10.2382    2.7150    0.0000 H   0  0  0  0  0  0  0  0  0  0  0  0
    9.6182    2.0950    0.0000 H   0  0  0  0  0  0  0  0  0  0  0  0
   15.7444    3.5581    0.0000 H   0  0  0  0  0  0  0  0  0  0  0  0
   15.9713    4.4050    0.0000 H   0  0  0  0  0  0  0  0  0  0  0  0
   15.1244    4.6319    0.0000 H   0  0  0  0  0  0  0  0  0  0  0  0
   15.1883    6.5950    0.0000 H   0  0  0  0  0  0  0  0  0  0  0  0
   14.5683    7.2150    0.0000 H   0  0  0  0  0  0  0  0  0  0  0  0
   13.9483    6.5950    0.0000 H   0  0  0  0  0  0  0  0  0  0  0  0
  1 22  1  0  0  0  0
  1 23  1  0  0  0  0
  4 27  1  0  0  0  0
  4 32  1  0  0  0  0
  5 90  1  0  0  0  0
  6105  1  0  0  0  0
  7106  1  0  0  0  0
  8111  1  0  0  0  0
  9 46  1  0  0  0  0
  9 47  1  0  0  0  0
 10 51  1  0  0  0  0
 10 54  1  0  0  0  0
 11 55  1  0  0  0  0
 12 44  2  0  0  0  0
 13 45  2  0  0  0  0
 14 46  2  0  0  0  0
 15 63  1  0  0  0  0
 16 64  1  0  0  0  0
 17132  1  0  0  0  0
 18 39  1  0  0  0  0
 18 40  1  0  0  0  0
 19 18  1  0  0  0  0
 19 20  1  6  0  0  0
 19 65  1  0  0  0  0
 20  3  1  0  0  0  0
 20 23  1  1  0  0  0
 20 66  1  0  0  0  0
 21  5  1  0  0  0  0
 21 19  1  1  0  0  0
 21 67  1  0  0  0  0
 22  2  1  0  0  0  0
 22 21  1  6  0  0  0
 22 68  1  0  0  0  0
 23 34  1  0  0  0  0
 23 69  1  6  0  0  0
 24  2  1  0  0  0  0
 24 25  1  6  0  0  0
 24 70  1  0  0  0  0
 25 31  1  0  0  0  0
 25 35  1  0  0  0  0
 25 71  1  6  0  0  0
 26 24  1  1  0  0  0
 26 36  1  0  0  0  0
 26 72  1  0  0  0  0
 27  3  1  0  0  0  0
 27 29  1  0  0  0  0
 27 73  1  1  0  0  0
 28  6  1  0  0  0  0
 28 29  1  0  0  0  0
 28 30  1  6  0  0  0
 28 38  1  0  0  0  0
 29 74  1  0  0  0  0
 29 75  1  0  0  0  0
 30  7  1  0  0  0  0
 30 32  1  1  0  0  0
 30 76  1  0  0  0  0
 31 37  1  0  0  0  0
 31 77  1  0  0  0  0
 31 78  1  0  0  0  0
 32 42  1  0  0  0  0
 32 79  1  1  0  0  0
 33  8  1  0  0  0  0
 33 26  1  6  0  0  0
 33 41  1  0  0  0  0
 33 80  1  0  0  0  0
 34 81  1  0  0  0  0
 34 82  1  0  0  0  0
 34 83  1  0  0  0  0
 35 44  1  0  0  0  0
 35 84  1  0  0  0  0
 35 85  1  0  0  0  0
 36 86  1  0  0  0  0
 36 87  1  0  0  0  0
 36 88  1  0  0  0  0
 37 43  1  0  0  0  0
 37 45  1  0  0  0  0
 37 89  1  6  0  0  0
 38 91  1  0  0  0  0
 38 92  1  0  0  0  0
 38 93  1  0  0  0  0
 39 94  1  0  0  0  0
 39 95  1  0  0  0  0
 39 96  1  0  0  0  0
 40 97  1  0  0  0  0
 40 98  1  0  0  0  0
 40 99  1  0  0  0  0
 41 46  1  0  0  0  0
 41100  1  0  0  0  0
 41101  1  0  0  0  0
 42102  1  0  0  0  0
 42103  1  0  0  0  0
 42104  1  0  0  0  0
 43107  1  0  0  0  0
 43108  1  0  0  0  0
 43109  1  0  0  0  0
 44110  1  0  0  0  0
 45 52  1  0  0  0  0
 47 48  1  6  0  0  0
 47 56  1  0  0  0  0
 47112  1  0  0  0  0
 48 55  1  0  0  0  0
 48 57  1  0  0  0  0
 48113  1  1  0  0  0
 49 15  1  0  0  0  0
 49 50  1  1  0  0  0
 49114  1  0  0  0  0
 50 16  1  0  0  0  0
 50 53  1  1  0  0  0
 50115  1  0  0  0  0
 51 11  1  0  0  0  0
 51 49  1  6  0  0  0
 51116  1  0  0  0  0
 52 58  2  0  0  0  0
 52118  1  0  0  0  0
 53 17  1  0  0  0  0
 53 54  1  1  0  0  0
 53117  1  0  0  0  0
 54 60  1  0  0  0  0
 54119  1  1  0  0  0
 55120  1  0  0  0  0
 55121  1  0  0  0  0
 56 61  1  0  0  0  0
 56122  1  0  0  0  0
 56123  1  0  0  0  0
 57 59  2  0  0  0  0
 57124  1  0  0  0  0
 58 59  1  0  0  0  0
 58125  1  0  0  0  0
 59 62  1  0  0  0  0
 60126  1  0  0  0  0
 60127  1  0  0  0  0
 60128  1  0  0  0  0
 61129  1  0  0  0  0
 61130  1  0  0  0  0
 61131  1  0  0  0  0
 62133  1  0  0  0  0
 62134  1  0  0  0  0
 62135  1  0  0  0  0
 63136  1  0  0  0  0
 63137  1  0  0  0  0
 63138  1  0  0  0  0
 64139  1  0  0  0  0
 64140  1  0  0  0  0
 64141  1  0  0  0  0
M  END
>  <PUBCHEM_COMPOUND_CID>
12873460

>  <PUBCHEM_COMPOUND_CANONICALIZED>
1

>  <PUBCHEM_CACTVS_COMPLEXITY>
1560

>  <PUBCHEM_CACTVS_HBOND_ACCEPTOR>
18

>  <PUBCHEM_CACTVS_HBOND_DONOR>
5

>  <PUBCHEM_CACTVS_ROTATABLE_BOND>
13

>  <PUBCHEM_CACTVS_SUBSKEYS>
AAADcfB+PgAAAAAAAAAAAAAAAAAAAAAAAAAkSJAAAAAAAAAAAAAAHgAACAAADXzxgAcCCAMABgCIAqjSiAAAAAAgAAAICAEIAEgbEBYAgQAnQAAH4AAfgYPK7OzOAAAAAAAAAAAAAAAAAAAAAAAAAAAAAA==

>  <PUBCHEM_IUPAC_OPENEYE_NAME>
2-[(4R,5S,6S,7R,9R,11E,13E,15R,16R)-6-[(2R,3R,4R,5S,6R)-5-[(2R,4R,5S,6S)-4,5-dihydroxy-4,6-dimethyl-tetrahydropyran-2-yl]oxy-4-(dimethylamino)-3-hydroxy-6-methyl-tetrahydropyran-2-yl]oxy-16-ethyl-4-hydroxy-15-[[(2R,3R,4R,5R,6R)-5-hydroxy-3,4-dimethoxy-6-methyl-tetrahydropyran-2-yl]oxymethyl]-5,9,13-trimethyl-2,10-dioxo-1-oxacyclohexadeca-11,13-dien-7-yl]acetaldehyde

>  <PUBCHEM_IUPAC_CAS_NAME>
2-[(4R,5S,6S,7R,9R,11E,13E,15R,16R)-6-[[(2R,3R,4R,5S,6R)-5-[[(2R,4R,5S,6S)-4,5-dihydroxy-4,6-dimethyl-2-oxanyl]oxy]-4-(dimethylamino)-3-hydroxy-6-methyl-2-oxanyl]oxy]-16-ethyl-4-hydroxy-15-[[(2R,3R,4R,5R,6R)-5-hydroxy-3,4-dimethoxy-6-methyl-2-oxanyl]oxymethyl]-5,9,13-trimethyl-2,10-dioxo-1-oxacyclohexadeca-11,13-dien-7-yl]acetaldehyde

>  <PUBCHEM_IUPAC_NAME>
2-[(4R,5S,6S,7R,9R,11E,13E,15R,16R)-6-[(2R,3R,4R,5S,6R)-5-[(2R,4R,5S,6S)-4,5-dihydroxy-4,6-dimethyloxan-2-yl]oxy-4-(dimethylamino)-3-hydroxy-6-methyloxan-2-yl]oxy-16-ethyl-4-hydroxy-15-[[(2R,3R,4R,5R,6R)-5-hydroxy-3,4-dimethoxy-6-methyloxan-2-yl]oxymethyl]-5,9,13-trimethyl-2,10-dioxo-1-oxacyclohexadeca-11,13-dien-7-yl]acetaldehyde

>  <PUBCHEM_IUPAC_SYSTEMATIC_NAME>
2-[(4R,5S,6S,7R,9R,11E,13E,15R,16R)-15-[[(2R,3R,4R,5R,6R)-3,4-dimethoxy-6-methyl-5-oxidanyl-oxan-2-yl]oxymethyl]-6-[(2R,3R,4R,5S,6R)-4-(dimethylamino)-5-[(2R,4R,5S,6S)-4,6-dimethyl-4,5-bis(oxidanyl)oxan-2-yl]oxy-6-methyl-3-oxidanyl-oxan-2-yl]oxy-16-ethyl-5,9,13-trimethyl-4-oxidanyl-2,10-bis(oxidanylidene)-1-oxacyclohexadeca-11,13-dien-7-yl]ethanal

>  <PUBCHEM_IUPAC_TRADITIONAL_NAME>
2-[(4R,5S,6S,7R,9R,11E,13E,15R,16R)-6-[(2R,3R,4R,5S,6R)-5-[(2R,4R,5S,6S)-4,5-dihydroxy-4,6-dimethyl-tetrahydropyran-2-yl]oxy-4-(dimethylamino)-3-hydroxy-6-methyl-tetrahydropyran-2-yl]oxy-16-ethyl-4-hydroxy-15-[[(2R,3R,4R,5R,6R)-5-hydroxy-3,4-dimethoxy-6-methyl-tetrahydropyran-2-yl]oxymethyl]-2,10-diketo-5,9,13-trimethyl-1-oxacyclohexadeca-11,13-dien-7-yl]acetaldehyde

>  <PUBCHEM_IUPAC_INCHI>
InChI=1S/C46H77NO17/c1-13-33-30(22-58-45-42(57-12)41(56-11)37(52)26(5)60-45)18-23(2)14-15-31(49)24(3)19-29(16-17-48)39(25(4)32(50)20-34(51)62-33)64-44-38(53)36(47(9)10)40(27(6)61-44)63-35-21-46(8,55)43(54)28(7)59-35/h14-15,17-18,24-30,32-33,35-45,50,52-55H,13,16,19-22H2,1-12H3/b15-14+,23-18+/t24-,25+,26-,27-,28+,29+,30-,32-,33-,35-,36-,37-,38-,39-,40-,41-,42-,43+,44+,45-,46-/m1/s1

>  <PUBCHEM_IUPAC_INCHIKEY>
WBPYTXDJUQJLPQ-COAIWJCTSA-N

>  <PUBCHEM_XLOGP3_AA>
1

>  <PUBCHEM_EXACT_MASS>
915.519

>  <PUBCHEM_MOLECULAR_FORMULA>
C46H77NO17

>  <PUBCHEM_MOLECULAR_WEIGHT>
916.112

>  <PUBCHEM_OPENEYE_CAN_SMILES>
CCC1C(C=C(C=CC(=O)C(CC(C(C(C(CC(=O)O1)O)C)OC2C(C(C(C(O2)C)OC3CC(C(C(O3)C)O)(C)O)N(C)C)O)CC=O)C)C)COC4C(C(C(C(O4)C)O)OC)OC

>  <PUBCHEM_OPENEYE_ISO_SMILES>
CC[C@@H]1[C@H](/C=C(/C=C/C(=O)[C@@H](C[C@@H]([C@@H]([C@H]([C@@H](CC(=O)O1)O)C)O[C@H]2[C@@H]([C@H]([C@@H]([C@H](O2)C)O[C@@H]3C[C@@]([C@H]([C@@H](O3)C)O)(C)O)N(C)C)O)CC=O)C)\C)CO[C@H]4[C@@H]([C@@H]([C@@H]([C@H](O4)C)O)OC)OC

>  <PUBCHEM_CACTVS_TPSA>
239

>  <PUBCHEM_MONOISOTOPIC_WEIGHT>
915.519

>  <PUBCHEM_TOTAL_CHARGE>
0

>  <PUBCHEM_HEAVY_ATOM_COUNT>
64

>  <PUBCHEM_ATOM_DEF_STEREO_COUNT>
21

>  <PUBCHEM_ATOM_UDEF_STEREO_COUNT>
0

>  <PUBCHEM_BOND_DEF_STEREO_COUNT>
2

>  <PUBCHEM_BOND_UDEF_STEREO_COUNT>
0

>  <PUBCHEM_ISOTOPIC_ATOM_COUNT>
0

>  <PUBCHEM_COMPONENT_COUNT>
1

>  <PUBCHEM_CACTVS_TAUTO_COUNT>
28

>  <PUBCHEM_COORDINATE_TYPE>
1
5
255

>  <PUBCHEM_BONDANNOTATIONS>
51  11  6
49  15  5
50  16  5
53  17  5
19  18  5
22  2  5
24  2  5
23  34  5
25  35  5
26  36  5
20  3  6
27  3  6
32  42  6
37  43  5
47  56  5
48  55  6
21  5  6
54  60  6
28  6  5
30  7  5
33  8  5

$$$$
