12895785
 OpenBabel06101807152D

 98102  0  0  1  0  0  0  0  0999 V2000
    6.8671   -4.4699    0.0000 O   0  0  0  0  0  0  0  0  0  0  0  0
    5.1350   -4.4699    0.0000 O   0  0  0  0  0  0  0  0  0  0  0  0
    6.8671   -6.4699    0.0000 O   0  0  0  0  0  0  0  0  0  0  0  0
    5.1350   -7.4699    0.0000 O   0  0  0  0  0  0  0  0  0  0  0  0
    3.4030   -6.4699    0.0000 O   0  0  0  0  0  0  0  0  0  0  0  0
    2.5369   -4.9699    0.0000 O   0  0  0  0  0  0  0  0  0  0  0  0
    6.8963    1.7270    0.0000 C   0  0  3  0  0  0  0  0  0  0  0  0
    7.7643    1.2303    0.0000 C   0  0  3  0  0  0  0  0  0  0  0  0
    7.7681    0.2303    0.0000 C   0  0  3  0  0  0  0  0  0  0  0  0
    6.9040   -0.2730    0.0000 C   0  0  3  0  0  0  0  0  0  0  0  0
    7.1018    2.6996    0.0000 C   0  0  3  0  0  0  0  0  0  0  0  0
    6.0322    1.2236    0.0000 C   0  0  0  0  0  0  0  0  0  0  0  0
    6.8920   -1.3146    0.0000 C   0  0  3  0  0  0  0  0  0  0  0  0
    8.4987    1.9002    0.0000 C   0  0  0  0  0  0  0  0  0  0  0  0
    6.0361    0.2237    0.0000 C   0  0  0  0  0  0  0  0  0  0  0  0
    8.0901    2.8065    0.0000 C   0  0  0  0  0  0  0  0  0  0  0  0
    8.6801   -0.2730    0.0000 C   0  0  0  0  0  0  0  0  0  0  0  0
    6.4311    3.4413    0.0000 C   0  0  3  0  0  0  0  0  0  0  0  0
    6.0284    2.2236    0.0000 C   0  0  0  0  0  0  0  0  0  0  0  0
    7.7920   -1.8389    0.0000 C   0  0  0  0  0  0  0  0  0  0  0  0
    5.9421   -1.8389    0.0000 C   0  0  0  0  0  0  0  0  0  0  0  0
    8.6921   -1.3146    0.0000 C   0  0  0  0  0  0  0  0  0  0  0  0
    6.0279   -0.8112    0.0000 C   0  0  0  0  0  0  0  0  0  0  0  0
    7.8046   -2.9238    0.0000 C   0  0  0  0  0  0  0  0  0  0  0  0
    5.9295   -2.9238    0.0000 C   0  0  0  0  0  0  0  0  0  0  0  0
    6.7381    4.3930    0.0000 C   0  0  0  0  0  0  0  0  0  0  0  0
    6.8671   -3.4699    0.0000 C   0  0  3  0  0  0  0  0  0  0  0  0
    5.4534    3.2313    0.0000 C   0  0  0  0  0  0  0  0  0  0  0  0
    6.0674    5.1348    0.0000 C   0  0  0  0  0  0  0  0  0  0  0  0
    6.3744    6.0865    0.0000 C   0  0  3  0  0  0  0  0  0  0  0  0
    6.0010   -4.9699    0.0000 C   0  0  3  0  0  0  0  0  0  0  0  0
    5.7036    6.8282    0.0000 C   0  0  0  0  0  0  0  0  0  0  0  0
    7.3521    6.2964    0.0000 C   0  0  0  0  0  0  0  0  0  0  0  0
    6.0010   -5.9699    0.0000 C   0  0  3  0  0  0  0  0  0  0  0  0
    5.1350   -6.4699    0.0000 C   0  0  3  0  0  0  0  0  0  0  0  0
    6.0106    7.7799    0.0000 C   0  0  0  0  0  0  0  0  0  0  0  0
    4.7259    6.6182    0.0000 C   0  0  0  0  0  0  0  0  0  0  0  0
    4.2690   -4.9699    0.0000 C   0  0  3  0  0  0  0  0  0  0  0  0
    4.2690   -5.9699    0.0000 C   0  0  3  0  0  0  0  0  0  0  0  0
    3.4030   -4.4699    0.0000 C   0  0  0  0  0  0  0  0  0  0  0  0
    8.3320    0.9811    0.0000 H   0  0  0  0  0  0  0  0  0  0  0  0
    8.3014    0.5465    0.0000 H   0  0  0  0  0  0  0  0  0  0  0  0
    7.4398   -0.5851    0.0000 H   0  0  0  0  0  0  0  0  0  0  0  0
    7.3225    3.2790    0.0000 H   0  0  0  0  0  0  0  0  0  0  0  0
    5.8179    1.8054    0.0000 H   0  0  0  0  0  0  0  0  0  0  0  0
    5.4221    1.1136    0.0000 H   0  0  0  0  0  0  0  0  0  0  0  0
    8.8661    1.4008    0.0000 H   0  0  0  0  0  0  0  0  0  0  0  0
    9.0340    2.2131    0.0000 H   0  0  0  0  0  0  0  0  0  0  0  0
    5.4251    0.3290    0.0000 H   0  0  0  0  0  0  0  0  0  0  0  0
    5.8263   -0.3598    0.0000 H   0  0  0  0  0  0  0  0  0  0  0  0
    8.6790    3.0005    0.0000 H   0  0  0  0  0  0  0  0  0  0  0  0
    7.9590    3.4124    0.0000 H   0  0  0  0  0  0  0  0  0  0  0  0
    9.2921   -0.3720    0.0000 H   0  0  0  0  0  0  0  0  0  0  0  0
    8.8824    0.3131    0.0000 H   0  0  0  0  0  0  0  0  0  0  0  0
    6.0152    3.9012    0.0000 H   0  0  0  0  0  0  0  0  0  0  0  0
    6.3363    2.7618    0.0000 H   0  0  0  0  0  0  0  0  0  0  0  0
    5.4902    2.5316    0.0000 H   0  0  0  0  0  0  0  0  0  0  0  0
    5.7204    1.6855    0.0000 H   0  0  0  0  0  0  0  0  0  0  0  0
    5.7398   -1.2528    0.0000 H   0  0  0  0  0  0  0  0  0  0  0  0
    5.3300   -1.9379    0.0000 H   0  0  0  0  0  0  0  0  0  0  0  0
    9.2314   -1.6204    0.0000 H   0  0  0  0  0  0  0  0  0  0  0  0
    6.3400   -0.2755    0.0000 H   0  0  0  0  0  0  0  0  0  0  0  0
    5.4922   -0.4992    0.0000 H   0  0  0  0  0  0  0  0  0  0  0  0
    5.7158   -1.3470    0.0000 H   0  0  0  0  0  0  0  0  0  0  0  0
    8.0204   -3.5050    0.0000 H   0  0  0  0  0  0  0  0  0  0  0  0
    8.4142   -2.8106    0.0000 H   0  0  0  0  0  0  0  0  0  0  0  0
    5.3199   -2.8106    0.0000 H   0  0  0  0  0  0  0  0  0  0  0  0
    5.7137   -3.5050    0.0000 H   0  0  0  0  0  0  0  0  0  0  0  0
    7.2861    4.1031    0.0000 H   0  0  0  0  0  0  0  0  0  0  0  0
    7.1187    4.8824    0.0000 H   0  0  0  0  0  0  0  0  0  0  0  0
    7.4046   -3.7789    0.0000 H   0  0  0  0  0  0  0  0  0  0  0  0
    5.3232    3.8375    0.0000 H   0  0  0  0  0  0  0  0  0  0  0  0
    4.8472    3.1011    0.0000 H   0  0  0  0  0  0  0  0  0  0  0  0
    5.5836    2.6252    0.0000 H   0  0  0  0  0  0  0  0  0  0  0  0
    5.5193    5.4247    0.0000 H   0  0  0  0  0  0  0  0  0  0  0  0
    5.6867    4.6454    0.0000 H   0  0  0  0  0  0  0  0  0  0  0  0
    6.5647    6.6765    0.0000 H   0  0  0  0  0  0  0  0  0  0  0  0
    6.0010   -4.3499    0.0000 H   0  0  0  0  0  0  0  0  0  0  0  0
    5.5133    6.2381    0.0000 H   0  0  0  0  0  0  0  0  0  0  0  0
    7.4822    5.6903    0.0000 H   0  0  0  0  0  0  0  0  0  0  0  0
    7.9582    6.4266    0.0000 H   0  0  0  0  0  0  0  0  0  0  0  0
    7.2219    6.9026    0.0000 H   0  0  0  0  0  0  0  0  0  0  0  0
    6.0010   -6.5899    0.0000 H   0  0  0  0  0  0  0  0  0  0  0  0
    4.5981   -6.7799    0.0000 H   0  0  0  0  0  0  0  0  0  0  0  0
    4.5958    7.2244    0.0000 H   0  0  0  0  0  0  0  0  0  0  0  0
    4.1198    6.4880    0.0000 H   0  0  0  0  0  0  0  0  0  0  0  0
    4.8561    6.0120    0.0000 H   0  0  0  0  0  0  0  0  0  0  0  0
    6.6007    7.5896    0.0000 H   0  0  0  0  0  0  0  0  0  0  0  0
    6.2010    8.3700    0.0000 H   0  0  0  0  0  0  0  0  0  0  0  0
    5.4206    7.9702    0.0000 H   0  0  0  0  0  0  0  0  0  0  0  0
    4.2690   -4.3499    0.0000 H   0  0  0  0  0  0  0  0  0  0  0  0
    3.7320   -5.6599    0.0000 H   0  0  0  0  0  0  0  0  0  0  0  0
    6.8671   -7.0899    0.0000 H   0  0  0  0  0  0  0  0  0  0  0  0
    3.8015   -3.9950    0.0000 H   0  0  0  0  0  0  0  0  0  0  0  0
    3.0044   -3.9950    0.0000 H   0  0  0  0  0  0  0  0  0  0  0  0
    4.5981   -7.7799    0.0000 H   0  0  0  0  0  0  0  0  0  0  0  0
    3.4030   -7.0899    0.0000 H   0  0  0  0  0  0  0  0  0  0  0  0
    2.0000   -4.6599    0.0000 H   0  0  0  0  0  0  0  0  0  0  0  0
  1 27  1  0  0  0  0
  1 31  1  0  0  0  0
  2 31  1  0  0  0  0
  2 38  1  0  0  0  0
  3 34  1  0  0  0  0
  3 93  1  0  0  0  0
  4 35  1  0  0  0  0
  4 96  1  0  0  0  0
  5 39  1  0  0  0  0
  5 97  1  0  0  0  0
  6 40  1  0  0  0  0
  6 98  1  0  0  0  0
  7  8  1  0  0  0  0
  7 11  1  0  0  0  0
  7 12  1  0  0  0  0
  7 19  1  0  0  0  0
  8  9  1  0  0  0  0
  8 14  1  0  0  0  0
  8 41  1  0  0  0  0
  9 10  1  0  0  0  0
  9 17  1  0  0  0  0
  9 42  1  0  0  0  0
 10 13  1  0  0  0  0
 10 15  1  0  0  0  0
 10 43  1  0  0  0  0
 11 16  1  0  0  0  0
 11 18  1  0  0  0  0
 11 44  1  0  0  0  0
 12 15  1  0  0  0  0
 12 45  1  0  0  0  0
 12 46  1  0  0  0  0
 13 20  1  0  0  0  0
 13 21  1  0  0  0  0
 13 23  1  0  0  0  0
 14 16  1  0  0  0  0
 14 47  1  0  0  0  0
 14 48  1  0  0  0  0
 15 49  1  0  0  0  0
 15 50  1  0  0  0  0
 16 51  1  0  0  0  0
 16 52  1  0  0  0  0
 17 22  1  0  0  0  0
 17 53  1  0  0  0  0
 17 54  1  0  0  0  0
 18 26  1  0  0  0  0
 18 28  1  0  0  0  0
 18 55  1  0  0  0  0
 19 56  1  0  0  0  0
 19 57  1  0  0  0  0
 19 58  1  0  0  0  0
 20 22  2  0  0  0  0
 20 24  1  0  0  0  0
 21 25  1  0  0  0  0
 21 59  1  0  0  0  0
 21 60  1  0  0  0  0
 22 61  1  0  0  0  0
 23 62  1  0  0  0  0
 23 63  1  0  0  0  0
 23 64  1  0  0  0  0
 24 27  1  0  0  0  0
 24 65  1  0  0  0  0
 24 66  1  0  0  0  0
 25 27  1  0  0  0  0
 25 67  1  0  0  0  0
 25 68  1  0  0  0  0
 26 29  1  0  0  0  0
 26 69  1  0  0  0  0
 26 70  1  0  0  0  0
 27 71  1  0  0  0  0
 28 72  1  0  0  0  0
 28 73  1  0  0  0  0
 28 74  1  0  0  0  0
 29 30  1  0  0  0  0
 29 75  1  0  0  0  0
 29 76  1  0  0  0  0
 30 32  1  0  0  0  0
 30 33  1  0  0  0  0
 30 77  1  0  0  0  0
 31 34  1  0  0  0  0
 31 78  1  0  0  0  0
 32 36  1  0  0  0  0
 32 37  1  0  0  0  0
 32 79  1  0  0  0  0
 33 80  1  0  0  0  0
 33 81  1  0  0  0  0
 33 82  1  0  0  0  0
 34 35  1  0  0  0  0
 34 83  1  0  0  0  0
 35 39  1  0  0  0  0
 35 84  1  0  0  0  0
 36 88  1  0  0  0  0
 36 89  1  0  0  0  0
 36 90  1  0  0  0  0
 37 85  1  0  0  0  0
 37 86  1  0  0  0  0
 37 87  1  0  0  0  0
 38 39  1  0  0  0  0
 38 40  1  0  0  0  0
 38 91  1  0  0  0  0
 39 92  1  0  0  0  0
 40 94  1  0  0  0  0
 40 95  1  0  0  0  0
M  END
>  <PUBCHEM_COMPOUND_CID>
12895785

>  <PUBCHEM_COMPOUND_CANONICALIZED>
1

>  <PUBCHEM_CACTVS_COMPLEXITY>
905

>  <PUBCHEM_CACTVS_HBOND_ACCEPTOR>
6

>  <PUBCHEM_CACTVS_HBOND_DONOR>
4

>  <PUBCHEM_CACTVS_ROTATABLE_BOND>
8

>  <PUBCHEM_CACTVS_SUBSKEYS>
AAADcfB8OAAAAAAAAAAAAAAAAAAAAYAAAAA0YIEAAAAAAGCAAAAAGgAACAAADxSwgAMCCAAABgCAAiBCAAAAAAAgAAAACAAAAAgREAIAAQAiQAAFwAAPAAPA4PwPgAAAAAAAAADAAAQAACAAAQAACAAAAA==

>  <PUBCHEM_IUPAC_OPENEYE_NAME>
2-[[10,13-dimethyl-17-(1,4,5-trimethylhexyl)-2,3,4,7,8,9,11,12,14,15,16,17-dodecahydro-1H-cyclopenta[a]phenanthren-3-yl]oxy]-6-(hydroxymethyl)tetrahydropyran-3,4,5-triol

>  <PUBCHEM_IUPAC_CAS_NAME>
2-[[17-(5,6-dimethylheptan-2-yl)-10,13-dimethyl-2,3,4,7,8,9,11,12,14,15,16,17-dodecahydro-1H-cyclopenta[a]phenanthren-3-yl]oxy]-6-(hydroxymethyl)oxane-3,4,5-triol

>  <PUBCHEM_IUPAC_NAME>
2-[[17-(5,6-dimethylheptan-2-yl)-10,13-dimethyl-2,3,4,7,8,9,11,12,14,15,16,17-dodecahydro-1H-cyclopenta[a]phenanthren-3-yl]oxy]-6-(hydroxymethyl)oxane-3,4,5-triol

>  <PUBCHEM_IUPAC_SYSTEMATIC_NAME>
2-[[17-(5,6-dimethylheptan-2-yl)-10,13-dimethyl-2,3,4,7,8,9,11,12,14,15,16,17-dodecahydro-1H-cyclopenta[a]phenanthren-3-yl]oxy]-6-(hydroxymethyl)oxane-3,4,5-triol

>  <PUBCHEM_IUPAC_TRADITIONAL_NAME>
2-[[10,13-dimethyl-17-(1,4,5-trimethylhexyl)-2,3,4,7,8,9,11,12,14,15,16,17-dodecahydro-1H-cyclopenta[a]phenanthren-3-yl]oxy]-6-methylol-tetrahydropyran-3,4,5-triol

>  <PUBCHEM_IUPAC_INCHI>
InChI=1S/C34H58O6/c1-19(2)20(3)7-8-21(4)25-11-12-26-24-10-9-22-17-23(13-15-33(22,5)27(24)14-16-34(25,26)6)39-32-31(38)30(37)29(36)28(18-35)40-32/h9,19-21,23-32,35-38H,7-8,10-18H2,1-6H3

>  <PUBCHEM_IUPAC_INCHIKEY>
FWNZEKQVBDXWKA-UHFFFAOYSA-N

>  <PUBCHEM_XLOGP3_AA>
7.2

>  <PUBCHEM_EXACT_MASS>
562.423

>  <PUBCHEM_MOLECULAR_FORMULA>
C34H58O6

>  <PUBCHEM_MOLECULAR_WEIGHT>
562.832

>  <PUBCHEM_OPENEYE_CAN_SMILES>
CC(C)C(C)CCC(C)C1CCC2C1(CCC3C2CC=C4C3(CCC(C4)OC5C(C(C(C(O5)CO)O)O)O)C)C

>  <PUBCHEM_OPENEYE_ISO_SMILES>
CC(C)C(C)CCC(C)C1CCC2C1(CCC3C2CC=C4C3(CCC(C4)OC5C(C(C(C(O5)CO)O)O)O)C)C

>  <PUBCHEM_CACTVS_TPSA>
99.4

>  <PUBCHEM_MONOISOTOPIC_WEIGHT>
562.423

>  <PUBCHEM_TOTAL_CHARGE>
0

>  <PUBCHEM_HEAVY_ATOM_COUNT>
40

>  <PUBCHEM_ATOM_DEF_STEREO_COUNT>
0

>  <PUBCHEM_ATOM_UDEF_STEREO_COUNT>
14

>  <PUBCHEM_BOND_DEF_STEREO_COUNT>
0

>  <PUBCHEM_BOND_UDEF_STEREO_COUNT>
0

>  <PUBCHEM_ISOTOPIC_ATOM_COUNT>
0

>  <PUBCHEM_COMPONENT_COUNT>
1

>  <PUBCHEM_CACTVS_TAUTO_COUNT>
1

>  <PUBCHEM_COORDINATE_TYPE>
1
5
255

>  <PUBCHEM_BONDANNOTATIONS>
27  1  3
31  1  3
10  15  3
11  16  3
13  23  3
18  28  3
34  3  3
30  33  3
38  40  3
35  4  3
39  5  3
7  19  3
8  14  3
9  17  3

$$$$
