129206075
 OpenBabel06101807152D

 28 30  0  0  0  0  0  0  0  0999 V2000
    4.3198    0.9762    0.0000 O   0  0  0  0  0  0  0  0  0  0  0  0
    5.1804    1.4731    0.0000 O   0  0  0  0  0  0  0  0  0  0  0  0
    2.5381   -0.0342    0.0000 O   0  0  0  0  0  0  0  0  0  0  0  0
    8.7202    1.4867    0.0000 O   0  0  0  0  0  0  0  0  0  0  0  0
    5.2022   -0.5584    0.0000 C   0  0  0  0  0  0  0  0  0  0  0  0
    6.0682   -0.0584    0.0000 C   0  0  0  0  0  0  0  0  0  0  0  0
    6.9343   -0.5584    0.0000 C   0  0  0  0  0  0  0  0  0  0  0  0
    5.2022   -1.5584    0.0000 C   0  0  0  0  0  0  0  0  0  0  0  0
    4.3083   -0.0237    0.0000 C   0  0  0  0  0  0  0  0  0  0  0  0
    6.9343   -1.5584    0.0000 C   0  0  0  0  0  0  0  0  0  0  0  0
    6.0682   -2.0584    0.0000 C   0  0  0  0  0  0  0  0  0  0  0  0
    6.0522    0.9831    0.0000 C   0  0  0  0  0  0  0  0  0  0  0  0
    7.8443   -0.0515    0.0000 C   0  0  0  0  0  0  0  0  0  0  0  0
    4.3083   -2.0930    0.0000 C   0  0  0  0  0  0  0  0  0  0  0  0
    3.4022   -0.5376    0.0000 C   0  0  0  0  0  0  0  0  0  0  0  0
    6.9502    1.5109    0.0000 C   0  0  0  0  0  0  0  0  0  0  0  0
    7.8523    0.9901    0.0000 C   0  0  0  0  0  0  0  0  0  0  0  0
    3.4022   -1.5792    0.0000 C   0  0  0  0  0  0  0  0  0  0  0  0
    7.4712   -1.8684    0.0000 H   0  0  0  0  0  0  0  0  0  0  0  0
    6.0682   -2.6784    0.0000 H   0  0  0  0  0  0  0  0  0  0  0  0
    8.3776   -0.3677    0.0000 H   0  0  0  0  0  0  0  0  0  0  0  0
    4.3154   -2.7130    0.0000 H   0  0  0  0  0  0  0  0  0  0  0  0
    6.9478    2.1309    0.0000 H   0  0  0  0  0  0  0  0  0  0  0  0
    2.8665   -1.8913    0.0000 H   0  0  0  0  0  0  0  0  0  0  0  0
    3.7865    1.2924    0.0000 H   0  0  0  0  0  0  0  0  0  0  0  0
    5.1733    2.0930    0.0000 H   0  0  0  0  0  0  0  0  0  0  0  0
    2.0000   -0.3422    0.0000 H   0  0  0  0  0  0  0  0  0  0  0  0
    9.2560    1.1747    0.0000 H   0  0  0  0  0  0  0  0  0  0  0  0
  1  9  1  0  0  0  0
  1 25  1  0  0  0  0
  2 12  1  0  0  0  0
  2 26  1  0  0  0  0
  3 15  1  0  0  0  0
  3 27  1  0  0  0  0
  4 17  1  0  0  0  0
  4 28  1  0  0  0  0
  5  6  1  0  0  0  0
  5  8  2  0  0  0  0
  5  9  1  0  0  0  0
  6  7  1  0  0  0  0
  6 12  2  0  0  0  0
  7 10  1  0  0  0  0
  7 13  2  0  0  0  0
  8 11  1  0  0  0  0
  8 14  1  0  0  0  0
  9 15  2  0  0  0  0
 10 11  2  0  0  0  0
 10 19  1  0  0  0  0
 11 20  1  0  0  0  0
 12 16  1  0  0  0  0
 13 17  1  0  0  0  0
 13 21  1  0  0  0  0
 14 18  2  0  0  0  0
 14 22  1  0  0  0  0
 15 18  1  0  0  0  0
 16 17  2  0  0  0  0
 16 23  1  0  0  0  0
 18 24  1  0  0  0  0
M  END
>  <PUBCHEM_COMPOUND_CID>
129206075

>  <PUBCHEM_COMPOUND_CANONICALIZED>
1

>  <PUBCHEM_CACTVS_COMPLEXITY>
308

>  <PUBCHEM_CACTVS_HBOND_ACCEPTOR>
4

>  <PUBCHEM_CACTVS_HBOND_DONOR>
4

>  <PUBCHEM_CACTVS_ROTATABLE_BOND>
0

>  <PUBCHEM_CACTVS_SUBSKEYS>
AAADccBwOAAAAAAAAAAAAAAAAAAAAAAAAAAwYMAAAAAAAADBVAAAGgAACAAADASAmAAwBsAAAgCAAiBCAAACAAAgIAAIiAAGiIgJJyKCERKAcAElwBUJmAfA4PQO4AADCAAYQADAAAYQADCAAAAAAAAAAA==

>  <PUBCHEM_IUPAC_OPENEYE_NAME>
phenanthrene-2,4,5,6-tetrol

>  <PUBCHEM_IUPAC_CAS_NAME>
phenanthrene-2,4,5,6-tetrol

>  <PUBCHEM_IUPAC_NAME>
phenanthrene-2,4,5,6-tetrol

>  <PUBCHEM_IUPAC_SYSTEMATIC_NAME>
phenanthrene-2,4,5,6-tetrol

>  <PUBCHEM_IUPAC_TRADITIONAL_NAME>
phenanthrene-2,4,5,6-tetrol

>  <PUBCHEM_IUPAC_INCHI>
InChI=1S/C14H10O4/c15-9-5-8-2-1-7-3-4-10(16)14(18)13(7)12(8)11(17)6-9/h1-6,15-18H

>  <PUBCHEM_IUPAC_INCHIKEY>
JSLUYTKYLIDAEB-UHFFFAOYSA-N

>  <PUBCHEM_XLOGP3_AA>
3

>  <PUBCHEM_EXACT_MASS>
242.058

>  <PUBCHEM_MOLECULAR_FORMULA>
C14H10O4

>  <PUBCHEM_MOLECULAR_WEIGHT>
242.23

>  <PUBCHEM_OPENEYE_CAN_SMILES>
C1=CC2=CC(=CC(=C2C3=C1C=CC(=C3O)O)O)O

>  <PUBCHEM_OPENEYE_ISO_SMILES>
C1=CC2=CC(=CC(=C2C3=C1C=CC(=C3O)O)O)O

>  <PUBCHEM_CACTVS_TPSA>
80.9

>  <PUBCHEM_MONOISOTOPIC_WEIGHT>
242.058

>  <PUBCHEM_TOTAL_CHARGE>
0

>  <PUBCHEM_HEAVY_ATOM_COUNT>
18

>  <PUBCHEM_ATOM_DEF_STEREO_COUNT>
0

>  <PUBCHEM_ATOM_UDEF_STEREO_COUNT>
0

>  <PUBCHEM_BOND_DEF_STEREO_COUNT>
0

>  <PUBCHEM_BOND_UDEF_STEREO_COUNT>
0

>  <PUBCHEM_ISOTOPIC_ATOM_COUNT>
0

>  <PUBCHEM_COMPONENT_COUNT>
1

>  <PUBCHEM_CACTVS_TAUTO_COUNT>
235

>  <PUBCHEM_COORDINATE_TYPE>
1
5
255

>  <PUBCHEM_BONDANNOTATIONS>
10  11  8
12  16  8
13  17  8
14  18  8
15  18  8
16  17  8
5  6  8
5  8  8
5  9  8
6  12  8
6  7  8
7  10  8
7  13  8
8  11  8
8  14  8
9  15  8

$$$$
