129539824
 OpenBabel06101807152D

 31 32  0  0  0  0  0  0  0  0999 V2000
    5.4920   -2.2247    0.0000 O   0  0  0  0  0  0  0  0  0  0  0  0
    2.0000   -2.1900    0.0000 O   0  0  0  0  0  0  0  0  0  0  0  0
    7.2622   -2.2142    0.0000 O   0  0  0  0  0  0  0  0  0  0  0  0
    3.7320   -0.1900    0.0000 C   0  0  0  0  0  0  0  0  0  0  0  0
    4.5981   -0.6900    0.0000 C   0  0  0  0  0  0  0  0  0  0  0  0
    3.7320    0.8100    0.0000 C   0  0  0  0  0  0  0  0  0  0  0  0
    4.5981   -1.6900    0.0000 C   0  0  0  0  0  0  0  0  0  0  0  0
    2.8660   -0.6900    0.0000 C   0  0  0  0  0  0  0  0  0  0  0  0
    2.8660    1.3100    0.0000 C   0  0  0  0  0  0  0  0  0  0  0  0
    3.7320   -2.1900    0.0000 C   0  0  0  0  0  0  0  0  0  0  0  0
    2.8660   -1.6900    0.0000 C   0  0  0  0  0  0  0  0  0  0  0  0
    5.4920   -0.1553    0.0000 C   0  0  0  0  0  0  0  0  0  0  0  0
    2.8660    2.3100    0.0000 C   0  0  0  0  0  0  0  0  0  0  0  0
    6.3981   -0.6692    0.0000 C   0  0  0  0  0  0  0  0  0  0  0  0
    6.3981   -1.7108    0.0000 C   0  0  0  0  0  0  0  0  0  0  0  0
    2.0000    2.8100    0.0000 C   0  0  0  0  0  0  0  0  0  0  0  0
    3.7320    2.8100    0.0000 C   0  0  0  0  0  0  0  0  0  0  0  0
    4.3426    0.7023    0.0000 H   0  0  0  0  0  0  0  0  0  0  0  0
    3.9441    1.3926    0.0000 H   0  0  0  0  0  0  0  0  0  0  0  0
    2.3291   -0.3800    0.0000 H   0  0  0  0  0  0  0  0  0  0  0  0
    2.3291    1.0000    0.0000 H   0  0  0  0  0  0  0  0  0  0  0  0
    3.7320   -2.8100    0.0000 H   0  0  0  0  0  0  0  0  0  0  0  0
    5.4848    0.4646    0.0000 H   0  0  0  0  0  0  0  0  0  0  0  0
    6.9338   -0.3571    0.0000 H   0  0  0  0  0  0  0  0  0  0  0  0
    4.0420    2.2731    0.0000 H   0  0  0  0  0  0  0  0  0  0  0  0
    4.2690    3.1200    0.0000 H   0  0  0  0  0  0  0  0  0  0  0  0
    2.3100    3.3469    0.0000 H   0  0  0  0  0  0  0  0  0  0  0  0
    1.4631    3.1200    0.0000 H   0  0  0  0  0  0  0  0  0  0  0  0
    1.6900    2.2731    0.0000 H   0  0  0  0  0  0  0  0  0  0  0  0
    3.4220    3.3469    0.0000 H   0  0  0  0  0  0  0  0  0  0  0  0
    2.0000   -2.8100    0.0000 H   0  0  0  0  0  0  0  0  0  0  0  0
  1  7  1  0  0  0  0
  1 15  1  0  0  0  0
  2 11  1  0  0  0  0
  2 31  1  0  0  0  0
  3 15  2  0  0  0  0
  4  5  2  0  0  0  0
  4  6  1  0  0  0  0
  4  8  1  0  0  0  0
  5  7  1  0  0  0  0
  5 12  1  0  0  0  0
  6  9  1  0  0  0  0
  6 18  1  0  0  0  0
  6 19  1  0  0  0  0
  7 10  2  0  0  0  0
  8 11  2  0  0  0  0
  8 20  1  0  0  0  0
  9 13  2  0  0  0  0
  9 21  1  0  0  0  0
 10 11  1  0  0  0  0
 10 22  1  0  0  0  0
 12 14  2  0  0  0  0
 12 23  1  0  0  0  0
 13 16  1  0  0  0  0
 13 17  1  0  0  0  0
 14 15  1  0  0  0  0
 14 24  1  0  0  0  0
 16 27  1  0  0  0  0
 16 28  1  0  0  0  0
 16 29  1  0  0  0  0
 17 25  1  0  0  0  0
 17 26  1  0  0  0  0
 17 30  1  0  0  0  0
M  END
>  <PUBCHEM_COMPOUND_CID>
129539824

>  <PUBCHEM_COMPOUND_CANONICALIZED>
1

>  <PUBCHEM_CACTVS_COMPLEXITY>
353

>  <PUBCHEM_CACTVS_HBOND_ACCEPTOR>
3

>  <PUBCHEM_CACTVS_HBOND_DONOR>
1

>  <PUBCHEM_CACTVS_ROTATABLE_BOND>
2

>  <PUBCHEM_CACTVS_SUBSKEYS>
AAADccBwMAAAAAAAAAAAAAAAAAAAAAAAAAAwQAAAAAAAAACBAAAAGgAACAAADASAmAAyDoAABgCIAiDSCAACCAAgIAAIiAAGCMgMJyKGMRqCeiClwBUIuYeA4LwOoAABCAAYAABAAAIQADAAAAAAAAAAAA==

>  <PUBCHEM_IUPAC_OPENEYE_NAME>
7-hydroxy-5-(3-methylbut-2-enyl)chromen-2-one

>  <PUBCHEM_IUPAC_CAS_NAME>
7-hydroxy-5-(3-methylbut-2-enyl)-1-benzopyran-2-one

>  <PUBCHEM_IUPAC_NAME>
7-hydroxy-5-(3-methylbut-2-enyl)chromen-2-one

>  <PUBCHEM_IUPAC_SYSTEMATIC_NAME>
5-(3-methylbut-2-enyl)-7-oxidanyl-chromen-2-one

>  <PUBCHEM_IUPAC_TRADITIONAL_NAME>
7-hydroxy-5-(3-methylbut-2-enyl)coumarin

>  <PUBCHEM_IUPAC_INCHI>
InChI=1S/C14H14O3/c1-9(2)3-4-10-7-11(15)8-13-12(10)5-6-14(16)17-13/h3,5-8,15H,4H2,1-2H3

>  <PUBCHEM_IUPAC_INCHIKEY>
RMABDUZOGNTCQA-UHFFFAOYSA-N

>  <PUBCHEM_XLOGP3_AA>
3.5

>  <PUBCHEM_EXACT_MASS>
230.094

>  <PUBCHEM_MOLECULAR_FORMULA>
C14H14O3

>  <PUBCHEM_MOLECULAR_WEIGHT>
230.263

>  <PUBCHEM_OPENEYE_CAN_SMILES>
CC(=CCC1=CC(=CC2=C1C=CC(=O)O2)O)C

>  <PUBCHEM_OPENEYE_ISO_SMILES>
CC(=CCC1=CC(=CC2=C1C=CC(=O)O2)O)C

>  <PUBCHEM_CACTVS_TPSA>
46.5

>  <PUBCHEM_MONOISOTOPIC_WEIGHT>
230.094

>  <PUBCHEM_TOTAL_CHARGE>
0

>  <PUBCHEM_HEAVY_ATOM_COUNT>
17

>  <PUBCHEM_ATOM_DEF_STEREO_COUNT>
0

>  <PUBCHEM_ATOM_UDEF_STEREO_COUNT>
0

>  <PUBCHEM_BOND_DEF_STEREO_COUNT>
0

>  <PUBCHEM_BOND_UDEF_STEREO_COUNT>
0

>  <PUBCHEM_ISOTOPIC_ATOM_COUNT>
0

>  <PUBCHEM_COMPONENT_COUNT>
1

>  <PUBCHEM_CACTVS_TAUTO_COUNT>
27

>  <PUBCHEM_COORDINATE_TYPE>
1
5
255

>  <PUBCHEM_BONDANNOTATIONS>
1  15  8
1  7  8
10  11  8
12  14  8
14  15  8
4  5  8
4  8  8
5  12  8
5  7  8
7  10  8
8  11  8

$$$$
