12967046
 OpenBabel06101807152D

 82 89  0  0  0  0  0  0  0  0999 V2000
   14.1526    1.0408    0.0000 O   0  0  0  0  0  0  0  0  0  0  0  0
    3.2794   -1.0408    0.0000 O   0  0  0  0  0  0  0  0  0  0  0  0
    7.1880    1.0284    0.0000 O   0  0  0  0  0  0  0  0  0  0  0  0
   10.2440   -1.0284    0.0000 O   0  0  0  0  0  0  0  0  0  0  0  0
    7.8174    2.9711    0.0000 O   0  0  0  0  0  0  0  0  0  0  0  0
    9.6146   -2.9711    0.0000 O   0  0  0  0  0  0  0  0  0  0  0  0
   10.6775    0.1242    0.0000 N   0  0  0  0  0  0  0  0  0  0  0  0
    6.7545   -0.1242    0.0000 N   0  0  0  0  0  0  0  0  0  0  0  0
    9.8738    0.7092    0.0000 C   0  0  0  0  0  0  0  0  0  0  0  0
    7.5582   -0.7092    0.0000 C   0  0  0  0  0  0  0  0  0  0  0  0
   11.4832    0.7064    0.0000 C   0  0  0  0  0  0  0  0  0  0  0  0
    5.9487   -0.7064    0.0000 C   0  0  0  0  0  0  0  0  0  0  0  0
    8.8646    0.4774    0.0000 C   0  0  0  0  0  0  0  0  0  0  0  0
    8.5674   -0.4774    0.0000 C   0  0  0  0  0  0  0  0  0  0  0  0
    6.2578   -1.6574    0.0000 C   0  0  0  0  0  0  0  0  0  0  0  0
   11.1742    1.6574    0.0000 C   0  0  0  0  0  0  0  0  0  0  0  0
   10.1801    1.6548    0.0000 C   0  0  0  0  0  0  0  0  0  0  0  0
    7.2518   -1.6548    0.0000 C   0  0  0  0  0  0  0  0  0  0  0  0
   12.4614    0.4985    0.0000 C   0  0  0  0  0  0  0  0  0  0  0  0
    4.9706   -0.4985    0.0000 C   0  0  0  0  0  0  0  0  0  0  0  0
   13.1305    1.2416    0.0000 C   0  0  0  0  0  0  0  0  0  0  0  0
    4.3014   -1.2416    0.0000 C   0  0  0  0  0  0  0  0  0  0  0  0
   14.4821    0.0526    0.0000 C   0  0  0  0  0  0  0  0  0  0  0  0
    2.9499   -0.0526    0.0000 C   0  0  0  0  0  0  0  0  0  0  0  0
   11.8433    2.4006    0.0000 C   0  0  0  0  0  0  0  0  0  0  0  0
    5.5886   -2.4006    0.0000 C   0  0  0  0  0  0  0  0  0  0  0  0
    4.6105   -2.1927    0.0000 C   0  0  0  0  0  0  0  0  0  0  0  0
   12.8215    2.1927    0.0000 C   0  0  0  0  0  0  0  0  0  0  0  0
    8.1651    1.2409    0.0000 C   0  0  0  0  0  0  0  0  0  0  0  0
    9.2668   -1.2409    0.0000 C   0  0  0  0  0  0  0  0  0  0  0  0
    9.4985    2.4343    0.0000 C   0  0  0  0  0  0  0  0  0  0  0  0
    7.9334   -2.4343    0.0000 C   0  0  0  0  0  0  0  0  0  0  0  0
    4.6640    0.4970    0.0000 C   0  0  0  0  0  0  0  0  0  0  0  0
   12.7679   -0.4970    0.0000 C   0  0  0  0  0  0  0  0  0  0  0  0
    8.9477   -2.2260    0.0000 C   0  0  0  0  0  0  0  0  0  0  0  0
    8.4842    2.2260    0.0000 C   0  0  0  0  0  0  0  0  0  0  0  0
    3.6468    0.7214    0.0000 C   0  0  0  0  0  0  0  0  0  0  0  0
   13.7851   -0.7214    0.0000 C   0  0  0  0  0  0  0  0  0  0  0  0
    2.2041    0.6136    0.0000 C   0  0  0  0  0  0  0  0  0  0  0  0
    2.0000   -0.3653    0.0000 C   0  0  0  0  0  0  0  0  0  0  0  0
   15.2278   -0.6136    0.0000 C   0  0  0  0  0  0  0  0  0  0  0  0
   15.4320    0.3653    0.0000 C   0  0  0  0  0  0  0  0  0  0  0  0
    3.9413   -2.9358    0.0000 C   0  0  0  0  0  0  0  0  0  0  0  0
   13.4906    2.9358    0.0000 C   0  0  0  0  0  0  0  0  0  0  0  0
    9.3028   -3.9213    0.0000 C   0  0  0  0  0  0  0  0  0  0  0  0
    8.1292    3.9213    0.0000 C   0  0  0  0  0  0  0  0  0  0  0  0
   10.6764   -0.4958    0.0000 H   0  0  0  0  0  0  0  0  0  0  0  0
    6.7556    0.4958    0.0000 H   0  0  0  0  0  0  0  0  0  0  0  0
    5.7802   -2.9902    0.0000 H   0  0  0  0  0  0  0  0  0  0  0  0
   11.6517    2.9902    0.0000 H   0  0  0  0  0  0  0  0  0  0  0  0
    7.7355   -3.0219    0.0000 H   0  0  0  0  0  0  0  0  0  0  0  0
    9.6964    3.0219    0.0000 H   0  0  0  0  0  0  0  0  0  0  0  0
    5.0842    0.9530    0.0000 H   0  0  0  0  0  0  0  0  0  0  0  0
   12.3478   -0.9530    0.0000 H   0  0  0  0  0  0  0  0  0  0  0  0
    3.4575    1.3118    0.0000 H   0  0  0  0  0  0  0  0  0  0  0  0
   13.9744   -1.3118    0.0000 H   0  0  0  0  0  0  0  0  0  0  0  0
   15.6258   -0.2236    0.0000 H   0  0  0  0  0  0  0  0  0  0  0  0
   16.0209    0.5592    0.0000 H   0  0  0  0  0  0  0  0  0  0  0  0
   15.2381    0.9542    0.0000 H   0  0  0  0  0  0  0  0  0  0  0  0
   14.8147   -1.0760    0.0000 H   0  0  0  0  0  0  0  0  0  0  0  0
   15.6902   -1.0267    0.0000 H   0  0  0  0  0  0  0  0  0  0  0  0
   15.6409   -0.1513    0.0000 H   0  0  0  0  0  0  0  0  0  0  0  0
    1.8061    0.2236    0.0000 H   0  0  0  0  0  0  0  0  0  0  0  0
    1.4111   -0.5592    0.0000 H   0  0  0  0  0  0  0  0  0  0  0  0
    2.1939   -0.9542    0.0000 H   0  0  0  0  0  0  0  0  0  0  0  0
    2.6172    1.0760    0.0000 H   0  0  0  0  0  0  0  0  0  0  0  0
    1.7418    1.0267    0.0000 H   0  0  0  0  0  0  0  0  0  0  0  0
    1.7911    0.1513    0.0000 H   0  0  0  0  0  0  0  0  0  0  0  0
    3.4806   -2.5210    0.0000 H   0  0  0  0  0  0  0  0  0  0  0  0
    3.5265   -3.3966    0.0000 H   0  0  0  0  0  0  0  0  0  0  0  0
   13.9514    2.5210    0.0000 H   0  0  0  0  0  0  0  0  0  0  0  0
   13.9055    3.3966    0.0000 H   0  0  0  0  0  0  0  0  0  0  0  0
   13.0299    3.3507    0.0000 H   0  0  0  0  0  0  0  0  0  0  0  0
    4.4021   -3.3507    0.0000 H   0  0  0  0  0  0  0  0  0  0  0  0
    6.7709    1.4872    0.0000 H   0  0  0  0  0  0  0  0  0  0  0  0
   10.6610   -1.4872    0.0000 H   0  0  0  0  0  0  0  0  0  0  0  0
    8.7183    3.7279    0.0000 H   0  0  0  0  0  0  0  0  0  0  0  0
    8.3226    4.5104    0.0000 H   0  0  0  0  0  0  0  0  0  0  0  0
    7.5401    4.1146    0.0000 H   0  0  0  0  0  0  0  0  0  0  0  0
    8.7137   -3.7279    0.0000 H   0  0  0  0  0  0  0  0  0  0  0  0
    9.1094   -4.5104    0.0000 H   0  0  0  0  0  0  0  0  0  0  0  0
    9.8918   -4.1146    0.0000 H   0  0  0  0  0  0  0  0  0  0  0  0
  1 21  1  0  0  0  0
  1 23  1  0  0  0  0
  2 22  1  0  0  0  0
  2 24  1  0  0  0  0
  3 29  1  0  0  0  0
  3 75  1  0  0  0  0
  4 30  1  0  0  0  0
  4 76  1  0  0  0  0
  5 36  1  0  0  0  0
  5 46  1  0  0  0  0
  6 35  1  0  0  0  0
  6 45  1  0  0  0  0
  7  9  1  0  0  0  0
  7 11  1  0  0  0  0
  7 47  1  0  0  0  0
  8 10  1  0  0  0  0
  8 12  1  0  0  0  0
  8 48  1  0  0  0  0
  9 13  2  0  0  0  0
  9 17  1  0  0  0  0
 10 14  2  0  0  0  0
 10 18  1  0  0  0  0
 11 16  2  0  0  0  0
 11 19  1  0  0  0  0
 12 15  2  0  0  0  0
 12 20  1  0  0  0  0
 13 14  1  0  0  0  0
 13 29  1  0  0  0  0
 14 30  1  0  0  0  0
 15 18  1  0  0  0  0
 15 26  1  0  0  0  0
 16 17  1  0  0  0  0
 16 25  1  0  0  0  0
 17 31  2  0  0  0  0
 18 32  2  0  0  0  0
 19 21  2  0  0  0  0
 19 34  1  0  0  0  0
 20 22  2  0  0  0  0
 20 33  1  0  0  0  0
 21 28  1  0  0  0  0
 22 27  1  0  0  0  0
 23 38  1  0  0  0  0
 23 41  1  0  0  0  0
 23 42  1  0  0  0  0
 24 37  1  0  0  0  0
 24 39  1  0  0  0  0
 24 40  1  0  0  0  0
 25 28  2  0  0  0  0
 25 50  1  0  0  0  0
 26 27  2  0  0  0  0
 26 49  1  0  0  0  0
 27 43  1  0  0  0  0
 28 44  1  0  0  0  0
 29 36  2  0  0  0  0
 30 35  2  0  0  0  0
 31 36  1  0  0  0  0
 31 52  1  0  0  0  0
 32 35  1  0  0  0  0
 32 51  1  0  0  0  0
 33 37  2  0  0  0  0
 33 53  1  0  0  0  0
 34 38  2  0  0  0  0
 34 54  1  0  0  0  0
 37 55  1  0  0  0  0
 38 56  1  0  0  0  0
 39 66  1  0  0  0  0
 39 67  1  0  0  0  0
 39 68  1  0  0  0  0
 40 63  1  0  0  0  0
 40 64  1  0  0  0  0
 40 65  1  0  0  0  0
 41 60  1  0  0  0  0
 41 61  1  0  0  0  0
 41 62  1  0  0  0  0
 42 57  1  0  0  0  0
 42 58  1  0  0  0  0
 42 59  1  0  0  0  0
 43 69  1  0  0  0  0
 43 70  1  0  0  0  0
 43 74  1  0  0  0  0
 44 71  1  0  0  0  0
 44 72  1  0  0  0  0
 44 73  1  0  0  0  0
 45 80  1  0  0  0  0
 45 81  1  0  0  0  0
 45 82  1  0  0  0  0
 46 77  1  0  0  0  0
 46 78  1  0  0  0  0
 46 79  1  0  0  0  0
M  END
>  <PUBCHEM_COMPOUND_CID>
12967046

>  <PUBCHEM_COMPOUND_CANONICALIZED>
1

>  <PUBCHEM_CACTVS_COMPLEXITY>
1130

>  <PUBCHEM_CACTVS_HBOND_ACCEPTOR>
6

>  <PUBCHEM_CACTVS_HBOND_DONOR>
4

>  <PUBCHEM_CACTVS_ROTATABLE_BOND>
3

>  <PUBCHEM_CACTVS_SUBSKEYS>
AAADcfB/OAAAAAAAAAAAAAAAAAAAAWLAAAAwYMGCAAAAAFiB/gAAHgAQCAAADEyBngIyxvLJlgCgAyRiRACCiCAhICAImSAmzJgNJuLGsZuGeCvmwBnL+Afw8P8OqEADAgAKQABQgAYEABSAAAAAAAAAAA==

>  <PUBCHEM_IUPAC_OPENEYE_NAME>
10-(9-hydroxy-8-methoxy-3,3,5-trimethyl-11H-pyrano[3,2-a]carbazol-10-yl)-8-methoxy-3,3,5-trimethyl-11H-pyrano[3,2-a]carbazol-9-ol

>  <PUBCHEM_IUPAC_CAS_NAME>
10-(9-hydroxy-8-methoxy-3,3,5-trimethyl-11H-pyrano[3,2-a]carbazol-10-yl)-8-methoxy-3,3,5-trimethyl-11H-pyrano[3,2-a]carbazol-9-ol

>  <PUBCHEM_IUPAC_NAME>
10-(9-hydroxy-8-methoxy-3,3,5-trimethyl-11H-pyrano[3,2-a]carbazol-10-yl)-8-methoxy-3,3,5-trimethyl-11H-pyrano[3,2-a]carbazol-9-ol

>  <PUBCHEM_IUPAC_SYSTEMATIC_NAME>
8-methoxy-10-(8-methoxy-3,3,5-trimethyl-9-oxidanyl-11H-pyrano[3,2-a]carbazol-10-yl)-3,3,5-trimethyl-11H-pyrano[3,2-a]carbazol-9-ol

>  <PUBCHEM_IUPAC_TRADITIONAL_NAME>
10-(9-hydroxy-8-methoxy-3,3,5-trimethyl-11H-pyrano[3,2-a]carbazol-10-yl)-8-methoxy-3,3,5-trimethyl-11H-pyrano[3,2-a]carbazol-9-ol

>  <PUBCHEM_IUPAC_INCHI>
InChI=1S/C38H36N2O6/c1-17-13-21-23-15-25(43-7)33(41)27(31(23)39-29(21)19-9-11-37(3,4)45-35(17)19)28-32-24(16-26(44-8)34(28)42)22-14-18(2)36-20(30(22)40-32)10-12-38(5,6)46-36/h9-16,39-42H,1-8H3

>  <PUBCHEM_IUPAC_INCHIKEY>
DQRAEENKHHFBHV-UHFFFAOYSA-N

>  <PUBCHEM_XLOGP3_AA>
8.3

>  <PUBCHEM_EXACT_MASS>
616.257

>  <PUBCHEM_MOLECULAR_FORMULA>
C38H36N2O6

>  <PUBCHEM_MOLECULAR_WEIGHT>
616.714

>  <PUBCHEM_OPENEYE_CAN_SMILES>
CC1=C2C(=C3C(=C1)C4=CC(=C(C(=C4N3)C5=C6C(=CC(=C5O)OC)C7=CC(=C8C(=C7N6)C=CC(O8)(C)C)C)O)OC)C=CC(O2)(C)C

>  <PUBCHEM_OPENEYE_ISO_SMILES>
CC1=C2C(=C3C(=C1)C4=CC(=C(C(=C4N3)C5=C6C(=CC(=C5O)OC)C7=CC(=C8C(=C7N6)C=CC(O8)(C)C)C)O)OC)C=CC(O2)(C)C

>  <PUBCHEM_CACTVS_TPSA>
109

>  <PUBCHEM_MONOISOTOPIC_WEIGHT>
616.257

>  <PUBCHEM_TOTAL_CHARGE>
0

>  <PUBCHEM_HEAVY_ATOM_COUNT>
46

>  <PUBCHEM_ATOM_DEF_STEREO_COUNT>
0

>  <PUBCHEM_ATOM_UDEF_STEREO_COUNT>
0

>  <PUBCHEM_BOND_DEF_STEREO_COUNT>
0

>  <PUBCHEM_BOND_UDEF_STEREO_COUNT>
0

>  <PUBCHEM_ISOTOPIC_ATOM_COUNT>
0

>  <PUBCHEM_COMPONENT_COUNT>
1

>  <PUBCHEM_CACTVS_TAUTO_COUNT>
143

>  <PUBCHEM_COORDINATE_TYPE>
1
5
255

>  <PUBCHEM_BONDANNOTATIONS>
10  14  8
10  18  8
11  16  8
11  19  8
12  15  8
12  20  8
13  29  8
14  30  8
15  18  8
15  26  8
16  17  8
16  25  8
17  31  8
18  32  8
19  21  8
20  22  8
21  28  8
22  27  8
25  28  8
26  27  8
29  36  8
30  35  8
31  36  8
32  35  8
7  11  8
7  9  8
8  10  8
8  12  8
9  13  8
9  17  8

$$$$
