129737753
 OpenBabel06101807152D

 54 54  0  0  1  0  0  0  0  0999 V2000
    7.7331    0.7500    0.0000 O   0  0  0  0  0  0  0  0  0  0  0  0
    5.1350   -0.7500    0.0000 O   0  0  0  0  0  0  0  0  0  0  0  0
    4.2690    4.7500    0.0000 O   0  0  0  0  0  0  0  0  0  0  0  0
    8.5991   -0.7500    0.0000 O   0  0  0  0  0  0  0  0  0  0  0  0
    2.5369    3.7500    0.0000 O   0  0  0  0  0  0  0  0  0  0  0  0
    6.8671   -0.7500    0.0000 C   0  0  0  0  0  0  0  0  0  0  0  0
    6.0010   -1.2500    0.0000 C   0  0  2  0  0  0  0  0  0  0  0  0
    6.8671    0.2500    0.0000 C   0  0  1  0  0  0  0  0  0  0  0  0
    6.0010   -2.2500    0.0000 C   0  0  0  0  0  0  0  0  0  0  0  0
    6.0010    0.7500    0.0000 C   0  0  0  0  0  0  0  0  0  0  0  0
    6.8671   -2.7500    0.0000 C   0  0  0  0  0  0  0  0  0  0  0  0
    6.0010    1.7500    0.0000 C   0  0  0  0  0  0  0  0  0  0  0  0
    6.8671   -3.7500    0.0000 C   0  0  0  0  0  0  0  0  0  0  0  0
    7.7331   -4.2500    0.0000 C   0  0  0  0  0  0  0  0  0  0  0  0
    5.1350    2.2500    0.0000 C   0  0  0  0  0  0  0  0  0  0  0  0
    7.7331   -5.2500    0.0000 C   0  0  0  0  0  0  0  0  0  0  0  0
    5.1350    3.2500    0.0000 C   0  0  0  0  0  0  0  0  0  0  0  0
    4.2690    1.7500    0.0000 C   0  0  0  0  0  0  0  0  0  0  0  0
    8.5991    0.2500    0.0000 C   0  0  0  0  0  0  0  0  0  0  0  0
    4.2690    3.7500    0.0000 C   0  0  0  0  0  0  0  0  0  0  0  0
    3.4030    2.2500    0.0000 C   0  0  0  0  0  0  0  0  0  0  0  0
    3.4030    3.2500    0.0000 C   0  0  0  0  0  0  0  0  0  0  0  0
    9.4651    0.7500    0.0000 C   0  0  0  0  0  0  0  0  0  0  0  0
    5.1350    5.2500    0.0000 C   0  0  0  0  0  0  0  0  0  0  0  0
    7.0791   -1.3326    0.0000 H   0  0  0  0  0  0  0  0  0  0  0  0
    7.4776   -0.6423    0.0000 H   0  0  0  0  0  0  0  0  0  0  0  0
    5.4641   -1.5600    0.0000 H   0  0  0  0  0  0  0  0  0  0  0  0
    7.4040   -0.0600    0.0000 H   0  0  0  0  0  0  0  0  0  0  0  0
    5.3905   -2.1423    0.0000 H   0  0  0  0  0  0  0  0  0  0  0  0
    5.7890   -2.8326    0.0000 H   0  0  0  0  0  0  0  0  0  0  0  0
    5.3905    0.8577    0.0000 H   0  0  0  0  0  0  0  0  0  0  0  0
    5.7890    0.1674    0.0000 H   0  0  0  0  0  0  0  0  0  0  0  0
    7.4776   -2.8577    0.0000 H   0  0  0  0  0  0  0  0  0  0  0  0
    7.0791   -2.1674    0.0000 H   0  0  0  0  0  0  0  0  0  0  0  0
    6.6116    1.6423    0.0000 H   0  0  0  0  0  0  0  0  0  0  0  0
    6.2131    2.3326    0.0000 H   0  0  0  0  0  0  0  0  0  0  0  0
    6.2565   -3.6423    0.0000 H   0  0  0  0  0  0  0  0  0  0  0  0
    6.6550   -4.3326    0.0000 H   0  0  0  0  0  0  0  0  0  0  0  0
    8.3437   -4.3577    0.0000 H   0  0  0  0  0  0  0  0  0  0  0  0
    7.9451   -3.6674    0.0000 H   0  0  0  0  0  0  0  0  0  0  0  0
    4.5981   -1.0600    0.0000 H   0  0  0  0  0  0  0  0  0  0  0  0
    7.1131   -5.2500    0.0000 H   0  0  0  0  0  0  0  0  0  0  0  0
    7.7331   -5.8700    0.0000 H   0  0  0  0  0  0  0  0  0  0  0  0
    8.3531   -5.2500    0.0000 H   0  0  0  0  0  0  0  0  0  0  0  0
    5.6720    3.5600    0.0000 H   0  0  0  0  0  0  0  0  0  0  0  0
    4.2690    1.1300    0.0000 H   0  0  0  0  0  0  0  0  0  0  0  0
    2.8660    1.9400    0.0000 H   0  0  0  0  0  0  0  0  0  0  0  0
    9.7751    0.2131    0.0000 H   0  0  0  0  0  0  0  0  0  0  0  0
   10.0021    1.0600    0.0000 H   0  0  0  0  0  0  0  0  0  0  0  0
    9.1551    1.2869    0.0000 H   0  0  0  0  0  0  0  0  0  0  0  0
    2.0000    3.4400    0.0000 H   0  0  0  0  0  0  0  0  0  0  0  0
    5.4450    4.7131    0.0000 H   0  0  0  0  0  0  0  0  0  0  0  0
    5.6720    5.5600    0.0000 H   0  0  0  0  0  0  0  0  0  0  0  0
    4.8250    5.7869    0.0000 H   0  0  0  0  0  0  0  0  0  0  0  0
  1 19  1  0  0  0  0
  2 41  1  0  0  0  0
  3 20  1  0  0  0  0
  3 24  1  0  0  0  0
  4 19  2  0  0  0  0
  5 22  1  0  0  0  0
  5 51  1  0  0  0  0
  6  7  1  0  0  0  0
  6  8  1  0  0  0  0
  6 25  1  0  0  0  0
  6 26  1  0  0  0  0
  7  2  1  0  0  0  0
  7  9  1  0  0  0  0
  7 27  1  1  0  0  0
  8  1  1  0  0  0  0
  8 10  1  0  0  0  0
  8 28  1  6  0  0  0
  9 11  1  0  0  0  0
  9 29  1  0  0  0  0
  9 30  1  0  0  0  0
 10 12  1  0  0  0  0
 10 31  1  0  0  0  0
 10 32  1  0  0  0  0
 11 13  1  0  0  0  0
 11 33  1  0  0  0  0
 11 34  1  0  0  0  0
 12 15  1  0  0  0  0
 12 35  1  0  0  0  0
 12 36  1  0  0  0  0
 13 14  1  0  0  0  0
 13 37  1  0  0  0  0
 13 38  1  0  0  0  0
 14 16  1  0  0  0  0
 14 39  1  0  0  0  0
 14 40  1  0  0  0  0
 15 17  2  0  0  0  0
 15 18  1  0  0  0  0
 16 42  1  0  0  0  0
 16 43  1  0  0  0  0
 16 44  1  0  0  0  0
 17 20  1  0  0  0  0
 17 45  1  0  0  0  0
 18 21  2  0  0  0  0
 18 46  1  0  0  0  0
 19 23  1  0  0  0  0
 20 22  2  0  0  0  0
 21 22  1  0  0  0  0
 21 47  1  0  0  0  0
 23 48  1  0  0  0  0
 23 49  1  0  0  0  0
 23 50  1  0  0  0  0
 24 52  1  0  0  0  0
 24 53  1  0  0  0  0
 24 54  1  0  0  0  0
M  END
>  <PUBCHEM_COMPOUND_CID>
129737753

>  <PUBCHEM_COMPOUND_CANONICALIZED>
1

>  <PUBCHEM_CACTVS_COMPLEXITY>
347

>  <PUBCHEM_CACTVS_HBOND_ACCEPTOR>
5

>  <PUBCHEM_CACTVS_HBOND_DONOR>
2

>  <PUBCHEM_CACTVS_ROTATABLE_BOND>
12

>  <PUBCHEM_CACTVS_SUBSKEYS>
AAADceB4OAAAAAAAAAAAAAAAAAAAAAAAAAAwAAAAAAAAAAABAAAAGgAACAAADBSgmAIyDoAABgCIAiDSCAACCAAgIAAIiAAGiIgNNiKGMRqCcCMlwBELuAeAwPAOIAABAAAAQABAAAIAAACAAAAAAAAAAA==

>  <PUBCHEM_IUPAC_OPENEYE_NAME>
[(1R,3S)-3-hydroxy-1-[2-(4-hydroxy-3-methoxy-phenyl)ethyl]octyl] acetate

>  <PUBCHEM_IUPAC_CAS_NAME>
acetic acid [(3R,5S)-5-hydroxy-1-(4-hydroxy-3-methoxyphenyl)decan-3-yl] ester

>  <PUBCHEM_IUPAC_NAME>
[(3R,5S)-5-hydroxy-1-(4-hydroxy-3-methoxyphenyl)decan-3-yl] acetate

>  <PUBCHEM_IUPAC_SYSTEMATIC_NAME>
[(3R,5S)-1-(3-methoxy-4-oxidanyl-phenyl)-5-oxidanyl-decan-3-yl] ethanoate

>  <PUBCHEM_IUPAC_TRADITIONAL_NAME>
acetic acid [(1R,3S)-1-homovanillyl-3-hydroxy-octyl] ester

>  <PUBCHEM_IUPAC_INCHI>
InChI=1S/C19H30O5/c1-4-5-6-7-16(21)13-17(24-14(2)20)10-8-15-9-11-18(22)19(12-15)23-3/h9,11-12,16-17,21-22H,4-8,10,13H2,1-3H3/t16-,17+/m0/s1

>  <PUBCHEM_IUPAC_INCHIKEY>
OEGIGAPIFHYJOL-DLBZAZTESA-N

>  <PUBCHEM_XLOGP3_AA>
4.2

>  <PUBCHEM_EXACT_MASS>
338.209

>  <PUBCHEM_MOLECULAR_FORMULA>
C19H30O5

>  <PUBCHEM_MOLECULAR_WEIGHT>
338.444

>  <PUBCHEM_OPENEYE_CAN_SMILES>
CCCCCC(CC(CCC1=CC(=C(C=C1)O)OC)OC(=O)C)O

>  <PUBCHEM_OPENEYE_ISO_SMILES>
CCCCC[C@@H](C[C@@H](CCC1=CC(=C(C=C1)O)OC)OC(=O)C)O

>  <PUBCHEM_CACTVS_TPSA>
76

>  <PUBCHEM_MONOISOTOPIC_WEIGHT>
338.209

>  <PUBCHEM_TOTAL_CHARGE>
0

>  <PUBCHEM_HEAVY_ATOM_COUNT>
24

>  <PUBCHEM_ATOM_DEF_STEREO_COUNT>
2

>  <PUBCHEM_ATOM_UDEF_STEREO_COUNT>
0

>  <PUBCHEM_BOND_DEF_STEREO_COUNT>
0

>  <PUBCHEM_BOND_UDEF_STEREO_COUNT>
0

>  <PUBCHEM_ISOTOPIC_ATOM_COUNT>
0

>  <PUBCHEM_COMPONENT_COUNT>
1

>  <PUBCHEM_CACTVS_TAUTO_COUNT>
17

>  <PUBCHEM_COORDINATE_TYPE>
1
5
255

>  <PUBCHEM_BONDANNOTATIONS>
8  1  5
15  17  8
15  18  8
17  20  8
18  21  8
7  2  6
20  22  8
21  22  8

$$$$
