13071687
 OpenBabel06101807152D

 47 51  0  0  1  0  0  0  0  0999 V2000
    5.8776    1.0057    0.0000 O   0  0  0  0  0  0  0  0  0  0  0  0
    2.1162   -1.3064    0.0000 O   0  0  0  0  0  0  0  0  0  0  0  0
    6.3731   -2.4003    0.0000 O   0  0  0  0  0  0  0  0  0  0  0  0
    4.8007    2.2341    0.0000 O   0  0  0  0  0  0  0  0  0  0  0  0
    8.2994    1.5623    0.0000 O   0  0  0  0  0  0  0  0  0  0  0  0
    6.5267    2.0886    0.0000 O   0  0  0  0  0  0  0  0  0  0  0  0
    4.8095    0.1174    0.0000 C   0  0  3  0  0  0  0  0  0  0  0  0
    5.1114   -0.7498    0.0000 C   0  0  3  0  0  0  0  0  0  0  0  0
    6.0235   -0.7282    0.0000 C   0  0  3  0  0  0  0  0  0  0  0  0
    6.2865    0.1458    0.0000 C   0  0  3  0  0  0  0  0  0  0  0  0
    5.5377    0.6666    0.0000 C   0  0  3  0  0  0  0  0  0  0  0  0
    4.1135   -0.7150    0.0000 C   0  0  0  0  0  0  0  0  0  0  0  0
    7.2038    0.3618    0.0000 C   0  0  3  0  0  0  0  0  0  0  0  0
    3.0606   -0.9776    0.0000 C   0  0  3  0  0  0  0  0  0  0  0  0
    3.9426    0.4221    0.0000 C   0  0  0  0  0  0  0  0  0  0  0  0
    4.6212   -1.5263    0.0000 C   0  0  0  0  0  0  0  0  0  0  0  0
    6.6612   -1.4428    0.0000 C   0  0  3  0  0  0  0  0  0  0  0  0
    3.7088   -1.6276    0.0000 C   0  0  0  0  0  0  0  0  0  0  0  0
    3.1650   -0.0650    0.0000 C   0  0  0  0  0  0  0  0  0  0  0  0
    7.4686    1.0057    0.0000 C   0  0  0  0  0  0  0  0  0  0  0  0
    7.8489   -0.3243    0.0000 C   0  0  0  0  0  0  0  0  0  0  0  0
    5.6217    1.6631    0.0000 C   0  0  0  0  0  0  0  0  0  0  0  0
    7.5774   -1.2270    0.0000 C   0  0  0  0  0  0  0  0  0  0  0  0
    8.1872    0.5430    0.0000 C   0  0  0  0  0  0  0  0  0  0  0  0
    2.3614    0.5302    0.0000 C   0  0  0  0  0  0  0  0  0  0  0  0
    5.4171   -1.2892    0.0000 H   0  0  0  0  0  0  0  0  0  0  0  0
    6.4025    0.7549    0.0000 H   0  0  0  0  0  0  0  0  0  0  0  0
    4.9949    0.9663    0.0000 H   0  0  0  0  0  0  0  0  0  0  0  0
    4.0706   -1.3335    0.0000 H   0  0  0  0  0  0  0  0  0  0  0  0
    4.6886   -0.9466    0.0000 H   0  0  0  0  0  0  0  0  0  0  0  0
    4.2732    0.9466    0.0000 H   0  0  0  0  0  0  0  0  0  0  0  0
    3.5048    0.8611    0.0000 H   0  0  0  0  0  0  0  0  0  0  0  0
    4.5506   -2.1423    0.0000 H   0  0  0  0  0  0  0  0  0  0  0  0
    5.2060   -1.7322    0.0000 H   0  0  0  0  0  0  0  0  0  0  0  0
    6.0560   -1.5770    0.0000 H   0  0  0  0  0  0  0  0  0  0  0  0
    3.1834   -1.9567    0.0000 H   0  0  0  0  0  0  0  0  0  0  0  0
    3.9127   -2.2131    0.0000 H   0  0  0  0  0  0  0  0  0  0  0  0
    8.4524   -0.1822    0.0000 H   0  0  0  0  0  0  0  0  0  0  0  0
    8.0023   -1.6785    0.0000 H   0  0  0  0  0  0  0  0  0  0  0  0
    8.2995   -0.0667    0.0000 H   0  0  0  0  0  0  0  0  0  0  0  0
    8.7969    0.6554    0.0000 H   0  0  0  0  0  0  0  0  0  0  0  0
    8.0749    1.1528    0.0000 H   0  0  0  0  0  0  0  0  0  0  0  0
    2.0000   -1.9154    0.0000 H   0  0  0  0  0  0  0  0  0  0  0  0
    2.4318    1.1462    0.0000 H   0  0  0  0  0  0  0  0  0  0  0  0
    1.7927    0.2832    0.0000 H   0  0  0  0  0  0  0  0  0  0  0  0
    6.7979   -2.8519    0.0000 H   0  0  0  0  0  0  0  0  0  0  0  0
    4.8528    2.8519    0.0000 H   0  0  0  0  0  0  0  0  0  0  0  0
  1  9  1  0  0  0  0
  1 20  1  0  0  0  0
  2 14  1  0  0  0  0
  2 43  1  0  0  0  0
  3 17  1  0  0  0  0
  3 46  1  0  0  0  0
  4 22  1  0  0  0  0
  4 47  1  0  0  0  0
  5 20  2  0  0  0  0
  6 22  2  0  0  0  0
  7  8  1  0  0  0  0
  7 11  1  0  0  0  0
  7 12  1  0  0  0  0
  7 15  1  0  0  0  0
  8  9  1  0  0  0  0
  8 16  1  0  0  0  0
  8 26  1  0  0  0  0
  9 10  1  0  0  0  0
  9 17  1  0  0  0  0
 10 11  1  0  0  0  0
 10 13  1  0  0  0  0
 10 27  1  0  0  0  0
 11 22  1  0  0  0  0
 11 28  1  0  0  0  0
 12 14  1  0  0  0  0
 12 29  1  0  0  0  0
 12 30  1  0  0  0  0
 13 20  1  0  0  0  0
 13 21  1  0  0  0  0
 13 24  1  0  0  0  0
 14 18  1  0  0  0  0
 14 19  1  0  0  0  0
 15 19  1  0  0  0  0
 15 31  1  0  0  0  0
 15 32  1  0  0  0  0
 16 18  1  0  0  0  0
 16 33  1  0  0  0  0
 16 34  1  0  0  0  0
 17 23  1  0  0  0  0
 17 35  1  0  0  0  0
 18 36  1  0  0  0  0
 18 37  1  0  0  0  0
 19 25  2  0  0  0  0
 21 23  2  0  0  0  0
 21 38  1  0  0  0  0
 23 39  1  0  0  0  0
 24 40  1  0  0  0  0
 24 41  1  0  0  0  0
 24 42  1  0  0  0  0
 25 44  1  0  0  0  0
 25 45  1  0  0  0  0
M  END
>  <PUBCHEM_COMPOUND_CID>
13071687

>  <PUBCHEM_COMPOUND_CANONICALIZED>
1

>  <PUBCHEM_CACTVS_COMPLEXITY>
772

>  <PUBCHEM_CACTVS_HBOND_ACCEPTOR>
6

>  <PUBCHEM_CACTVS_HBOND_DONOR>
3

>  <PUBCHEM_CACTVS_ROTATABLE_BOND>
1

>  <PUBCHEM_CACTVS_SUBSKEYS>
AAADceB4OAAAAAAAAAAAAAAAAAAAAaMEAAAwQAAABggSAGDAAAAAGgAACAAAD1SggAICCAAABgCIAiDSCAAAAAAgAAAICAEAAAgBFBIAAQACUAAEwAALEAPK7vzPgAAAAAAAAADAAAYAACAAAYAADAAAAA==

>  <PUBCHEM_IUPAC_INCHI>
InChI=1S/C19H22O6/c1-9-7-17-8-18(9,24)6-3-10(17)19-11(20)4-5-16(2,15(23)25-19)13(19)12(17)14(21)22/h4-5,10-13,20,24H,1,3,6-8H2,2H3,(H,21,22)

>  <PUBCHEM_IUPAC_INCHIKEY>
NYKKBHKMCOFCSE-UHFFFAOYSA-N

>  <PUBCHEM_XLOGP3_AA>
0.1

>  <PUBCHEM_EXACT_MASS>
346.142

>  <PUBCHEM_MOLECULAR_FORMULA>
C19H22O6

>  <PUBCHEM_MOLECULAR_WEIGHT>
346.379

>  <PUBCHEM_OPENEYE_CAN_SMILES>
CC12C=CC(C3(C1C(C45C3CCC(C4)(C(=C)C5)O)C(=O)O)OC2=O)O

>  <PUBCHEM_OPENEYE_ISO_SMILES>
CC12C=CC(C3(C1C(C45C3CCC(C4)(C(=C)C5)O)C(=O)O)OC2=O)O

>  <PUBCHEM_CACTVS_TPSA>
104

>  <PUBCHEM_MONOISOTOPIC_WEIGHT>
346.142

>  <PUBCHEM_TOTAL_CHARGE>
0

>  <PUBCHEM_HEAVY_ATOM_COUNT>
25

>  <PUBCHEM_ATOM_DEF_STEREO_COUNT>
0

>  <PUBCHEM_ATOM_UDEF_STEREO_COUNT>
8

>  <PUBCHEM_BOND_DEF_STEREO_COUNT>
0

>  <PUBCHEM_BOND_UDEF_STEREO_COUNT>
0

>  <PUBCHEM_ISOTOPIC_ATOM_COUNT>
0

>  <PUBCHEM_COMPONENT_COUNT>
1

>  <PUBCHEM_CACTVS_TAUTO_COUNT>
1

>  <PUBCHEM_COORDINATE_TYPE>
1
5
255

>  <PUBCHEM_BONDANNOTATIONS>
9  1  3
10  11  3
11  22  3
13  24  3
14  2  3
17  3  3
7  12  3
8  16  3

$$$$
