13084798
 OpenBabel06101807152D

 54 57  0  0  1  0  0  0  0  0999 V2000
    5.1350   -0.3521    0.0000 O   0  0  0  0  0  0  0  0  0  0  0  0
    6.8671   -0.3521    0.0000 O   0  0  0  0  0  0  0  0  0  0  0  0
    5.1350   -3.3520    0.0000 O   0  0  0  0  0  0  0  0  0  0  0  0
    3.4030   -2.3521    0.0000 O   0  0  0  0  0  0  0  0  0  0  0  0
    6.8671   -2.3521    0.0000 O   0  0  0  0  0  0  0  0  0  0  0  0
    2.5369   -0.8521    0.0000 O   0  0  0  0  0  0  0  0  0  0  0  0
    8.6158   -0.3377    0.0000 O   0  0  0  0  0  0  0  0  0  0  0  0
    8.6620    3.6620    0.0000 O   0  0  0  0  0  0  0  0  0  0  0  0
   10.3636   -0.3925    0.0000 O   0  0  0  0  0  0  0  0  0  0  0  0
   12.1806    2.6454    0.0000 O   0  0  0  0  0  0  0  0  0  0  0  0
    5.1350   -2.3521    0.0000 C   0  0  3  0  0  0  0  0  0  0  0  0
    4.2690   -1.8520    0.0000 C   0  0  3  0  0  0  0  0  0  0  0  0
    6.0010   -1.8520    0.0000 C   0  0  3  0  0  0  0  0  0  0  0  0
    4.2690   -0.8521    0.0000 C   0  0  3  0  0  0  0  0  0  0  0  0
    6.0010   -0.8521    0.0000 C   0  0  3  0  0  0  0  0  0  0  0  0
    3.4030   -0.3521    0.0000 C   0  0  0  0  0  0  0  0  0  0  0  0
    6.8671    0.6479    0.0000 C   0  0  0  0  0  0  0  0  0  0  0  0
    7.7671    1.1722    0.0000 C   0  0  0  0  0  0  0  0  0  0  0  0
    7.7787    2.1722    0.0000 C   0  0  0  0  0  0  0  0  0  0  0  0
    5.9670    1.1722    0.0000 C   0  0  0  0  0  0  0  0  0  0  0  0
    8.6273    0.6623    0.0000 C   0  0  0  0  0  0  0  0  0  0  0  0
    5.9790    2.2138    0.0000 C   0  0  0  0  0  0  0  0  0  0  0  0
    9.4991    1.1522    0.0000 C   0  0  0  0  0  0  0  0  0  0  0  0
    6.8910    2.7171    0.0000 C   0  0  0  0  0  0  0  0  0  0  0  0
    9.5106    2.1521    0.0000 C   0  0  0  0  0  0  0  0  0  0  0  0
    8.6504    2.6621    0.0000 C   0  0  0  0  0  0  0  0  0  0  0  0
   10.3868    0.6072    0.0000 C   0  0  0  0  0  0  0  0  0  0  0  0
   10.4107    2.6764    0.0000 C   0  0  0  0  0  0  0  0  0  0  0  0
    5.1208    2.7271    0.0000 C   0  0  0  0  0  0  0  0  0  0  0  0
   11.3108    2.1521    0.0000 C   0  0  0  0  0  0  0  0  0  0  0  0
   11.2987    1.1106    0.0000 C   0  0  0  0  0  0  0  0  0  0  0  0
   13.0428    2.1388    0.0000 C   0  0  0  0  0  0  0  0  0  0  0  0
    5.6720   -2.6620    0.0000 H   0  0  0  0  0  0  0  0  0  0  0  0
    4.2690   -2.4720    0.0000 H   0  0  0  0  0  0  0  0  0  0  0  0
    6.5380   -1.5420    0.0000 H   0  0  0  0  0  0  0  0  0  0  0  0
    4.2690   -0.2321    0.0000 H   0  0  0  0  0  0  0  0  0  0  0  0
    6.0010   -0.2321    0.0000 H   0  0  0  0  0  0  0  0  0  0  0  0
    3.8015    0.1229    0.0000 H   0  0  0  0  0  0  0  0  0  0  0  0
    3.0044    0.1229    0.0000 H   0  0  0  0  0  0  0  0  0  0  0  0
    4.5981   -3.6620    0.0000 H   0  0  0  0  0  0  0  0  0  0  0  0
    3.4030   -2.9720    0.0000 H   0  0  0  0  0  0  0  0  0  0  0  0
    6.8671   -2.9720    0.0000 H   0  0  0  0  0  0  0  0  0  0  0  0
    5.4277    0.8664    0.0000 H   0  0  0  0  0  0  0  0  0  0  0  0
    2.0000   -0.5421    0.0000 H   0  0  0  0  0  0  0  0  0  0  0  0
    6.9053    3.3370    0.0000 H   0  0  0  0  0  0  0  0  0  0  0  0
   10.4107    3.2964    0.0000 H   0  0  0  0  0  0  0  0  0  0  0  0
    5.4391    3.2592    0.0000 H   0  0  0  0  0  0  0  0  0  0  0  0
    4.5887    3.0453    0.0000 H   0  0  0  0  0  0  0  0  0  0  0  0
    4.8026    2.1950    0.0000 H   0  0  0  0  0  0  0  0  0  0  0  0
   11.8308    0.7923    0.0000 H   0  0  0  0  0  0  0  0  0  0  0  0
   10.8933   -0.7148    0.0000 H   0  0  0  0  0  0  0  0  0  0  0  0
   12.7286    1.6043    0.0000 H   0  0  0  0  0  0  0  0  0  0  0  0
   13.5773    1.8247    0.0000 H   0  0  0  0  0  0  0  0  0  0  0  0
   13.3569    2.6733    0.0000 H   0  0  0  0  0  0  0  0  0  0  0  0
  1 14  1  0  0  0  0
  1 15  1  0  0  0  0
  2 15  1  0  0  0  0
  2 17  1  0  0  0  0
  3 11  1  0  0  0  0
  3 40  1  0  0  0  0
  4 12  1  0  0  0  0
  4 41  1  0  0  0  0
  5 13  1  0  0  0  0
  5 42  1  0  0  0  0
  6 16  1  0  0  0  0
  6 44  1  0  0  0  0
  7 21  2  0  0  0  0
  8 26  2  0  0  0  0
  9 27  1  0  0  0  0
  9 51  1  0  0  0  0
 10 30  1  0  0  0  0
 10 32  1  0  0  0  0
 11 12  1  0  0  0  0
 11 13  1  0  0  0  0
 11 33  1  0  0  0  0
 12 14  1  0  0  0  0
 12 34  1  0  0  0  0
 13 15  1  0  0  0  0
 13 35  1  0  0  0  0
 14 16  1  0  0  0  0
 14 36  1  0  0  0  0
 15 37  1  0  0  0  0
 16 38  1  0  0  0  0
 16 39  1  0  0  0  0
 17 18  1  0  0  0  0
 17 20  2  0  0  0  0
 18 19  2  0  0  0  0
 18 21  1  0  0  0  0
 19 24  1  0  0  0  0
 19 26  1  0  0  0  0
 20 22  1  0  0  0  0
 20 43  1  0  0  0  0
 21 23  1  0  0  0  0
 22 24  2  0  0  0  0
 22 29  1  0  0  0  0
 23 25  2  0  0  0  0
 23 27  1  0  0  0  0
 24 45  1  0  0  0  0
 25 26  1  0  0  0  0
 25 28  1  0  0  0  0
 27 31  2  0  0  0  0
 28 30  2  0  0  0  0
 28 46  1  0  0  0  0
 29 47  1  0  0  0  0
 29 48  1  0  0  0  0
 29 49  1  0  0  0  0
 30 31  1  0  0  0  0
 31 50  1  0  0  0  0
 32 52  1  0  0  0  0
 32 53  1  0  0  0  0
 32 54  1  0  0  0  0
M  END
>  <PUBCHEM_COMPOUND_CID>
13084798

>  <PUBCHEM_COMPOUND_CANONICALIZED>
1

>  <PUBCHEM_CACTVS_COMPLEXITY>
715

>  <PUBCHEM_CACTVS_HBOND_ACCEPTOR>
10

>  <PUBCHEM_CACTVS_HBOND_DONOR>
5

>  <PUBCHEM_CACTVS_ROTATABLE_BOND>
4

>  <PUBCHEM_CACTVS_SUBSKEYS>
AAADceB4PAAAAAAAAAAAAAAAAAAAAAAAAAA0YMEAAAAAAADBQAAAGgAACAAADBSwmAMyDoAABgCIAqBSAAACCAAkIAAAiAEGCMgdNzaGNRqieWCl4BUPuYfL7PzO4AADCAAYAADAAAYQADAAAAAAAAAAAA==

>  <PUBCHEM_IUPAC_OPENEYE_NAME>
1-hydroxy-3-methoxy-6-methyl-8-[3,4,5-trihydroxy-6-(hydroxymethyl)tetrahydropyran-2-yl]oxy-anthracene-9,10-dione

>  <PUBCHEM_IUPAC_CAS_NAME>
1-hydroxy-3-methoxy-6-methyl-8-[[3,4,5-trihydroxy-6-(hydroxymethyl)-2-oxanyl]oxy]anthracene-9,10-dione

>  <PUBCHEM_IUPAC_NAME>
1-hydroxy-3-methoxy-6-methyl-8-[3,4,5-trihydroxy-6-(hydroxymethyl)oxan-2-yl]oxyanthracene-9,10-dione

>  <PUBCHEM_IUPAC_SYSTEMATIC_NAME>
1-[6-(hydroxymethyl)-3,4,5-tris(oxidanyl)oxan-2-yl]oxy-6-methoxy-3-methyl-8-oxidanyl-anthracene-9,10-dione

>  <PUBCHEM_IUPAC_TRADITIONAL_NAME>
1-hydroxy-3-methoxy-6-methyl-8-(3,4,5-trihydroxy-6-methylol-tetrahydropyran-2-yl)oxy-9,10-anthraquinone

>  <PUBCHEM_IUPAC_INCHI>
InChI=1S/C22H22O10/c1-8-3-10-16(19(27)15-11(17(10)25)5-9(30-2)6-12(15)24)13(4-8)31-22-21(29)20(28)18(26)14(7-23)32-22/h3-6,14,18,20-24,26,28-29H,7H2,1-2H3

>  <PUBCHEM_IUPAC_INCHIKEY>
WLXGUTUUWXVZNM-UHFFFAOYSA-N

>  <PUBCHEM_XLOGP3_AA>
1.2

>  <PUBCHEM_EXACT_MASS>
446.121

>  <PUBCHEM_MOLECULAR_FORMULA>
C22H22O10

>  <PUBCHEM_MOLECULAR_WEIGHT>
446.408

>  <PUBCHEM_OPENEYE_CAN_SMILES>
CC1=CC(=C2C(=C1)C(=O)C3=CC(=CC(=C3C2=O)O)OC)OC4C(C(C(C(O4)CO)O)O)O

>  <PUBCHEM_OPENEYE_ISO_SMILES>
CC1=CC(=C2C(=C1)C(=O)C3=CC(=CC(=C3C2=O)O)OC)OC4C(C(C(C(O4)CO)O)O)O

>  <PUBCHEM_CACTVS_TPSA>
163

>  <PUBCHEM_MONOISOTOPIC_WEIGHT>
446.121

>  <PUBCHEM_TOTAL_CHARGE>
0

>  <PUBCHEM_HEAVY_ATOM_COUNT>
32

>  <PUBCHEM_ATOM_DEF_STEREO_COUNT>
0

>  <PUBCHEM_ATOM_UDEF_STEREO_COUNT>
5

>  <PUBCHEM_BOND_DEF_STEREO_COUNT>
0

>  <PUBCHEM_BOND_UDEF_STEREO_COUNT>
0

>  <PUBCHEM_ISOTOPIC_ATOM_COUNT>
0

>  <PUBCHEM_COMPONENT_COUNT>
1

>  <PUBCHEM_CACTVS_TAUTO_COUNT>
24

>  <PUBCHEM_COORDINATE_TYPE>
1
5
255

>  <PUBCHEM_BONDANNOTATIONS>
14  16  3
17  18  8
17  20  8
18  19  8
19  24  8
15  2  3
20  22  8
22  24  8
23  25  8
23  27  8
25  28  8
27  31  8
28  30  8
11  3  3
30  31  8
12  4  3
13  5  3

$$$$
