131752765
 OpenBabel06101807152D

 60 61  0  0  1  0  0  0  0  0999 V2000
    6.8671   -1.5770    0.0000 O   0  0  0  0  0  0  0  0  0  0  0  0
    6.3671    2.2890    0.0000 O   0  0  0  0  0  0  0  0  0  0  0  0
    5.0010    0.9229    0.0000 O   0  0  0  0  0  0  0  0  0  0  0  0
    5.1350   -1.5770    0.0000 O   0  0  0  0  0  0  0  0  0  0  0  0
    6.8671   -3.5770    0.0000 O   0  0  0  0  0  0  0  0  0  0  0  0
    5.1350   -4.5770    0.0000 O   0  0  0  0  0  0  0  0  0  0  0  0
    3.4030   -3.5770    0.0000 O   0  0  0  0  0  0  0  0  0  0  0  0
    2.5369   -2.0770    0.0000 O   0  0  0  0  0  0  0  0  0  0  0  0
    8.3671    4.0210    0.0000 O   0  0  0  0  0  0  0  0  0  0  0  0
    7.7331    0.9229    0.0000 C   0  0  0  0  0  0  0  0  0  0  0  0
    6.8671    1.4230    0.0000 C   0  0  3  0  0  0  0  0  0  0  0  0
    6.0010    0.9229    0.0000 C   0  0  3  0  0  0  0  0  0  0  0  0
    7.7331   -0.0771    0.0000 C   0  0  0  0  0  0  0  0  0  0  0  0
    6.8671   -0.5771    0.0000 C   0  0  3  0  0  0  0  0  0  0  0  0
    6.0010   -0.0771    0.0000 C   0  0  0  0  0  0  0  0  0  0  0  0
    8.7331    0.9229    0.0000 C   0  0  0  0  0  0  0  0  0  0  0  0
    8.4991    1.5657    0.0000 C   0  0  0  0  0  0  0  0  0  0  0  0
    5.3582    1.6890    0.0000 C   0  0  0  0  0  0  0  0  0  0  0  0
    7.3671    2.2890    0.0000 C   0  0  0  0  0  0  0  0  0  0  0  0
    6.0010   -2.0770    0.0000 C   0  0  3  0  0  0  0  0  0  0  0  0
    6.0010   -3.0770    0.0000 C   0  0  3  0  0  0  0  0  0  0  0  0
    5.1350   -3.5770    0.0000 C   0  0  3  0  0  0  0  0  0  0  0  0
    4.2690   -3.0770    0.0000 C   0  0  3  0  0  0  0  0  0  0  0  0
    4.2690   -2.0770    0.0000 C   0  0  3  0  0  0  0  0  0  0  0  0
    6.8671    3.1550    0.0000 C   0  0  0  0  0  0  0  0  0  0  0  0
    3.4030   -1.5770    0.0000 C   0  0  0  0  0  0  0  0  0  0  0  0
    7.3671    4.0210    0.0000 C   0  0  0  0  0  0  0  0  0  0  0  0
    6.8671    4.8870    0.0000 C   0  0  0  0  0  0  0  0  0  0  0  0
    7.9451   -0.6597    0.0000 H   0  0  0  0  0  0  0  0  0  0  0  0
    8.3437    0.0306    0.0000 H   0  0  0  0  0  0  0  0  0  0  0  0
    7.4040   -0.8871    0.0000 H   0  0  0  0  0  0  0  0  0  0  0  0
    5.3905    0.0306    0.0000 H   0  0  0  0  0  0  0  0  0  0  0  0
    5.7890   -0.6597    0.0000 H   0  0  0  0  0  0  0  0  0  0  0  0
    8.8977    1.0908    0.0000 H   0  0  0  0  0  0  0  0  0  0  0  0
    8.9741    1.9643    0.0000 H   0  0  0  0  0  0  0  0  0  0  0  0
    8.7331    0.3029    0.0000 H   0  0  0  0  0  0  0  0  0  0  0  0
    9.3531    0.9229    0.0000 H   0  0  0  0  0  0  0  0  0  0  0  0
    8.7331    1.5430    0.0000 H   0  0  0  0  0  0  0  0  0  0  0  0
    8.1006    2.0407    0.0000 H   0  0  0  0  0  0  0  0  0  0  0  0
    5.8332    2.0875    0.0000 H   0  0  0  0  0  0  0  0  0  0  0  0
    4.9597    2.1639    0.0000 H   0  0  0  0  0  0  0  0  0  0  0  0
    4.8833    1.2905    0.0000 H   0  0  0  0  0  0  0  0  0  0  0  0
    7.9497    2.5010    0.0000 H   0  0  0  0  0  0  0  0  0  0  0  0
    6.5380   -2.3870    0.0000 H   0  0  0  0  0  0  0  0  0  0  0  0
    5.7565    2.3967    0.0000 H   0  0  0  0  0  0  0  0  0  0  0  0
    4.6910    0.3860    0.0000 H   0  0  0  0  0  0  0  0  0  0  0  0
    6.0010   -3.6970    0.0000 H   0  0  0  0  0  0  0  0  0  0  0  0
    4.5981   -3.8870    0.0000 H   0  0  0  0  0  0  0  0  0  0  0  0
    4.2690   -3.6970    0.0000 H   0  0  0  0  0  0  0  0  0  0  0  0
    4.2690   -1.4570    0.0000 H   0  0  0  0  0  0  0  0  0  0  0  0
    6.2471    3.1550    0.0000 H   0  0  0  0  0  0  0  0  0  0  0  0
    3.8015   -1.1021    0.0000 H   0  0  0  0  0  0  0  0  0  0  0  0
    3.0044   -1.1021    0.0000 H   0  0  0  0  0  0  0  0  0  0  0  0
    6.8671   -4.1970    0.0000 H   0  0  0  0  0  0  0  0  0  0  0  0
    4.5981   -4.8870    0.0000 H   0  0  0  0  0  0  0  0  0  0  0  0
    3.4030   -4.1970    0.0000 H   0  0  0  0  0  0  0  0  0  0  0  0
    7.4040    5.1970    0.0000 H   0  0  0  0  0  0  0  0  0  0  0  0
    6.5571    5.4240    0.0000 H   0  0  0  0  0  0  0  0  0  0  0  0
    6.3301    4.5770    0.0000 H   0  0  0  0  0  0  0  0  0  0  0  0
    2.0000   -1.7670    0.0000 H   0  0  0  0  0  0  0  0  0  0  0  0
  1 14  1  0  0  0  0
  1 20  1  0  0  0  0
  2 11  1  0  0  0  0
  2 45  1  0  0  0  0
  3 12  1  0  0  0  0
  3 46  1  0  0  0  0
  4 20  1  0  0  0  0
  4 24  1  0  0  0  0
  5 21  1  0  0  0  0
  5 54  1  0  0  0  0
  6 22  1  0  0  0  0
  6 55  1  0  0  0  0
  7 23  1  0  0  0  0
  7 56  1  0  0  0  0
  8 26  1  0  0  0  0
  8 60  1  0  0  0  0
  9 27  2  0  0  0  0
 10 11  1  0  0  0  0
 10 13  1  0  0  0  0
 10 16  1  0  0  0  0
 10 17  1  0  0  0  0
 11 12  1  0  0  0  0
 11 19  1  0  0  0  0
 12 15  1  0  0  0  0
 12 18  1  0  0  0  0
 13 14  1  0  0  0  0
 13 29  1  0  0  0  0
 13 30  1  0  0  0  0
 14 15  1  0  0  0  0
 14 31  1  0  0  0  0
 15 32  1  0  0  0  0
 15 33  1  0  0  0  0
 16 36  1  0  0  0  0
 16 37  1  0  0  0  0
 16 38  1  0  0  0  0
 17 34  1  0  0  0  0
 17 35  1  0  0  0  0
 17 39  1  0  0  0  0
 18 40  1  0  0  0  0
 18 41  1  0  0  0  0
 18 42  1  0  0  0  0
 19 25  2  0  0  0  0
 19 43  1  0  0  0  0
 20 21  1  0  0  0  0
 20 44  1  0  0  0  0
 21 22  1  0  0  0  0
 21 47  1  0  0  0  0
 22 23  1  0  0  0  0
 22 48  1  0  0  0  0
 23 24  1  0  0  0  0
 23 49  1  0  0  0  0
 24 26  1  0  0  0  0
 24 50  1  0  0  0  0
 25 27  1  0  0  0  0
 25 51  1  0  0  0  0
 26 52  1  0  0  0  0
 26 53  1  0  0  0  0
 27 28  1  0  0  0  0
 28 57  1  0  0  0  0
 28 58  1  0  0  0  0
 28 59  1  0  0  0  0
M  END
>  <PUBCHEM_COMPOUND_CID>
131752765

>  <PUBCHEM_COMPOUND_CANONICALIZED>
1

>  <PUBCHEM_CACTVS_COMPLEXITY>
606

>  <PUBCHEM_CACTVS_HBOND_ACCEPTOR>
9

>  <PUBCHEM_CACTVS_HBOND_DONOR>
6

>  <PUBCHEM_CACTVS_ROTATABLE_BOND>
5

>  <PUBCHEM_CACTVS_SUBSKEYS>
AAADcfB4PAAAAAAAAAAAAAAAAAAAAAAAAAA0QAAAAAAAAAAAAAAAGgAACAAADlSwgAMCCAAABgCIAKBSAAAAAAAgAAAICAAAAEgRFAIAAAAiUAAFwAAPEYPA4PwPgAAAAAAAAABCAAYQADCAAAAAAAAAAA==

>  <PUBCHEM_IUPAC_OPENEYE_NAME>
(E)-4-[1,2-dihydroxy-2,6,6-trimethyl-4-[3,4,5-trihydroxy-6-(hydroxymethyl)tetrahydropyran-2-yl]oxy-cyclohexyl]but-3-en-2-one

>  <PUBCHEM_IUPAC_CAS_NAME>
(E)-4-[1,2-dihydroxy-2,6,6-trimethyl-4-[[3,4,5-trihydroxy-6-(hydroxymethyl)-2-oxanyl]oxy]cyclohexyl]-3-buten-2-one

>  <PUBCHEM_IUPAC_NAME>
(E)-4-[1,2-dihydroxy-2,6,6-trimethyl-4-[3,4,5-trihydroxy-6-(hydroxymethyl)oxan-2-yl]oxycyclohexyl]but-3-en-2-one

>  <PUBCHEM_IUPAC_SYSTEMATIC_NAME>
(E)-4-[4-[6-(hydroxymethyl)-3,4,5-tris(oxidanyl)oxan-2-yl]oxy-2,2,6-trimethyl-1,6-bis(oxidanyl)cyclohexyl]but-3-en-2-one

>  <PUBCHEM_IUPAC_TRADITIONAL_NAME>
(E)-4-[1,2-dihydroxy-2,6,6-trimethyl-4-(3,4,5-trihydroxy-6-methylol-tetrahydropyran-2-yl)oxy-cyclohexyl]but-3-en-2-one

>  <PUBCHEM_IUPAC_INCHI>
InChI=1S/C19H32O9/c1-10(21)5-6-19(26)17(2,3)7-11(8-18(19,4)25)27-16-15(24)14(23)13(22)12(9-20)28-16/h5-6,11-16,20,22-26H,7-9H2,1-4H3/b6-5+

>  <PUBCHEM_IUPAC_INCHIKEY>
PASRVRCWYGWSDQ-AATRIKPKSA-N

>  <PUBCHEM_EXACT_MASS>
404.205

>  <PUBCHEM_MOLECULAR_FORMULA>
C19H32O9

>  <PUBCHEM_MOLECULAR_WEIGHT>
404.456

>  <PUBCHEM_OPENEYE_CAN_SMILES>
CC(=O)C=CC1(C(CC(CC1(C)O)OC2C(C(C(C(O2)CO)O)O)O)(C)C)O

>  <PUBCHEM_OPENEYE_ISO_SMILES>
CC(=O)/C=C/C1(C(CC(CC1(C)O)OC2C(C(C(C(O2)CO)O)O)O)(C)C)O

>  <PUBCHEM_CACTVS_TPSA>
157

>  <PUBCHEM_MONOISOTOPIC_WEIGHT>
404.205

>  <PUBCHEM_TOTAL_CHARGE>
0

>  <PUBCHEM_HEAVY_ATOM_COUNT>
28

>  <PUBCHEM_ATOM_DEF_STEREO_COUNT>
0

>  <PUBCHEM_ATOM_UDEF_STEREO_COUNT>
8

>  <PUBCHEM_BOND_DEF_STEREO_COUNT>
1

>  <PUBCHEM_BOND_UDEF_STEREO_COUNT>
0

>  <PUBCHEM_ISOTOPIC_ATOM_COUNT>
0

>  <PUBCHEM_COMPONENT_COUNT>
1

>  <PUBCHEM_CACTVS_TAUTO_COUNT>
2

>  <PUBCHEM_COORDINATE_TYPE>
1
5
255

>  <PUBCHEM_BONDANNOTATIONS>
14  1  3
20  1  3
11  2  3
24  26  3
12  3  3
21  5  3
22  6  3
23  7  3

$$$$
