131752348
 OpenBabel06101807152D

102110  0  0  1  0  0  0  0  0999 V2000
    9.5412   -0.8983    0.0000 O   0  0  0  0  0  0  0  0  0  0  0  0
    6.7878   -3.7637    0.0000 O   0  0  0  0  0  0  0  0  0  0  0  0
   11.2732    1.1017    0.0000 O   0  0  0  0  0  0  0  0  0  0  0  0
    8.2175    2.6108    0.0000 O   0  0  0  0  0  0  0  0  0  0  0  0
    5.8158   -1.3029    0.0000 O   0  0  0  0  0  0  0  0  0  0  0  0
    7.4501    2.0800    0.0000 O   0  0  0  0  0  0  0  0  0  0  0  0
    5.8752   -0.4229    0.0000 O   0  0  0  0  0  0  0  0  0  0  0  0
    7.2583    5.1509    0.0000 O   0  0  0  0  0  0  0  0  0  0  0  0
   11.8077    1.8731    0.0000 O   0  0  0  0  0  0  0  0  0  0  0  0
    9.8732   -1.7662    0.0000 O   0  0  0  0  0  0  0  0  0  0  0  0
   10.9093    4.8605    0.0000 O   0  0  0  0  0  0  0  0  0  0  0  0
   10.1108   -4.9554    0.0000 O   0  0  0  0  0  0  0  0  0  0  0  0
   13.8713   -0.3983    0.0000 O   0  0  0  0  0  0  0  0  0  0  0  0
   12.1393   -3.3983    0.0000 O   0  0  0  0  0  0  0  0  0  0  0  0
   13.8713   -2.3983    0.0000 O   0  0  0  0  0  0  0  0  0  0  0  0
    3.5085   -5.2624    0.0000 O   0  0  0  0  0  0  0  0  0  0  0  0
    2.2053   -3.7452    0.0000 O   0  0  0  0  0  0  0  0  0  0  0  0
    4.2821    4.5758    0.0000 O   0  0  0  0  0  0  0  0  0  0  0  0
    3.6054    2.6939    0.0000 O   0  0  0  0  0  0  0  0  0  0  0  0
    9.5412    1.1017    0.0000 C   0  0  3  0  0  0  0  0  0  0  0  0
   10.4072    0.6017    0.0000 C   0  0  3  0  0  0  0  0  0  0  0  0
    7.4501   -1.8765    0.0000 C   0  0  3  0  0  0  0  0  0  0  0  0
    8.6752    0.6017    0.0000 C   0  0  0  0  0  0  0  0  0  0  0  0
   10.4072   -0.3983    0.0000 C   0  0  3  0  0  0  0  0  0  0  0  0
    8.6752   -0.3983    0.0000 C   0  0  0  0  0  0  0  0  0  0  0  0
    7.7812   -0.9329    0.0000 C   0  0  0  0  0  0  0  0  0  0  0  0
    9.8832    2.0414    0.0000 C   0  0  0  0  0  0  0  0  0  0  0  0
    6.4674   -2.0616    0.0000 C   0  0  3  0  0  0  0  0  0  0  0  0
    6.1363   -3.0052    0.0000 C   0  0  3  0  0  0  0  0  0  0  0  0
    8.1017   -2.6351    0.0000 C   0  0  0  0  0  0  0  0  0  0  0  0
    9.2404    2.8075    0.0000 C   0  0  0  0  0  0  0  0  0  0  0  0
    7.7812    1.1364    0.0000 C   0  0  0  0  0  0  0  0  0  0  0  0
    6.8752   -0.4191    0.0000 C   0  0  0  0  0  0  0  0  0  0  0  0
    9.5824    3.7472    0.0000 C   0  0  0  0  0  0  0  0  0  0  0  0
   11.2732   -0.8983    0.0000 C   0  0  0  0  0  0  0  0  0  0  0  0
    8.9253    4.5553    0.0000 C   0  0  0  0  0  0  0  0  0  0  0  0
    7.8981    4.3824    0.0000 C   0  0  3  0  0  0  0  0  0  0  0  0
    7.7706   -3.5786    0.0000 C   0  0  0  0  0  0  0  0  0  0  0  0
    7.5418    3.4036    0.0000 C   0  0  3  0  0  0  0  0  0  0  0  0
   10.8680    2.2151    0.0000 C   0  0  0  0  0  0  0  0  0  0  0  0
    6.8752    0.6226    0.0000 C   0  0  0  0  0  0  0  0  0  0  0  0
    5.1535   -3.1902    0.0000 C   0  0  0  0  0  0  0  0  0  0  0  0
    9.1222   -2.4266    0.0000 C   0  0  0  0  0  0  0  0  0  0  0  0
   10.5673    3.9208    0.0000 C   0  0  0  0  0  0  0  0  0  0  0  0
   11.2100    3.1548    0.0000 C   0  0  0  0  0  0  0  0  0  0  0  0
   11.2732   -1.8983    0.0000 C   0  0  0  0  0  0  0  0  0  0  0  0
   12.1393   -0.3983    0.0000 C   0  0  0  0  0  0  0  0  0  0  0  0
    8.4370   -4.3792    0.0000 C   0  0  0  0  0  0  0  0  0  0  0  0
    6.5577    3.2261    0.0000 C   0  0  0  0  0  0  0  0  0  0  0  0
    9.8070   -3.2115    0.0000 C   0  0  0  0  0  0  0  0  0  0  0  0
    9.4621   -4.1943    0.0000 C   0  0  0  0  0  0  0  0  0  0  0  0
    4.8224   -4.1338    0.0000 C   0  0  0  0  0  0  0  0  0  0  0  0
    4.5019   -2.4316    0.0000 C   0  0  0  0  0  0  0  0  0  0  0  0
   13.0053   -0.8983    0.0000 C   0  0  0  0  0  0  0  0  0  0  0  0
   12.1393   -2.3983    0.0000 C   0  0  0  0  0  0  0  0  0  0  0  0
    5.9120    3.9897    0.0000 C   0  0  0  0  0  0  0  0  0  0  0  0
   13.0053   -1.8983    0.0000 C   0  0  0  0  0  0  0  0  0  0  0  0
    6.2194    2.2852    0.0000 C   0  0  0  0  0  0  0  0  0  0  0  0
    3.8397   -4.3188    0.0000 C   0  0  0  0  0  0  0  0  0  0  0  0
    3.5192   -2.6166    0.0000 C   0  0  0  0  0  0  0  0  0  0  0  0
    3.1880   -3.5602    0.0000 C   0  0  0  0  0  0  0  0  0  0  0  0
    4.9279    3.8122    0.0000 C   0  0  0  0  0  0  0  0  0  0  0  0
    5.2352    2.1077    0.0000 C   0  0  0  0  0  0  0  0  0  0  0  0
    4.5895    2.8713    0.0000 C   0  0  0  0  0  0  0  0  0  0  0  0
   10.1238    1.3138    0.0000 H   0  0  0  0  0  0  0  0  0  0  0  0
   10.9442    0.2917    0.0000 H   0  0  0  0  0  0  0  0  0  0  0  0
    7.0461   -1.4062    0.0000 H   0  0  0  0  0  0  0  0  0  0  0  0
   10.4072   -1.0183    0.0000 H   0  0  0  0  0  0  0  0  0  0  0  0
    5.8581   -2.1763    0.0000 H   0  0  0  0  0  0  0  0  0  0  0  0
    5.9310   -3.5902    0.0000 H   0  0  0  0  0  0  0  0  0  0  0  0
    9.4662    4.8584    0.0000 H   0  0  0  0  0  0  0  0  0  0  0  0
    8.7192    5.1401    0.0000 H   0  0  0  0  0  0  0  0  0  0  0  0
    7.2873    4.2759    0.0000 H   0  0  0  0  0  0  0  0  0  0  0  0
    7.1424    3.8777    0.0000 H   0  0  0  0  0  0  0  0  0  0  0  0
    6.3394    0.9346    0.0000 H   0  0  0  0  0  0  0  0  0  0  0  0
   11.8102    0.7917    0.0000 H   0  0  0  0  0  0  0  0  0  0  0  0
   11.8206    3.2624    0.0000 H   0  0  0  0  0  0  0  0  0  0  0  0
    5.2065   -1.4176    0.0000 H   0  0  0  0  0  0  0  0  0  0  0  0
   10.7363   -2.2083    0.0000 H   0  0  0  0  0  0  0  0  0  0  0  0
   12.1393    0.2217    0.0000 H   0  0  0  0  0  0  0  0  0  0  0  0
    8.2250   -4.9618    0.0000 H   0  0  0  0  0  0  0  0  0  0  0  0
   10.4159   -3.0944    0.0000 H   0  0  0  0  0  0  0  0  0  0  0  0
    6.8408    2.1947    0.0000 H   0  0  0  0  0  0  0  0  0  0  0  0
    5.5631    0.1129    0.0000 H   0  0  0  0  0  0  0  0  0  0  0  0
    5.2264   -4.6041    0.0000 H   0  0  0  0  0  0  0  0  0  0  0  0
    4.7072   -1.8466    0.0000 H   0  0  0  0  0  0  0  0  0  0  0  0
    7.4726    5.7327    0.0000 H   0  0  0  0  0  0  0  0  0  0  0  0
   12.2827    2.2716    0.0000 H   0  0  0  0  0  0  0  0  0  0  0  0
    6.1218    4.5731    0.0000 H   0  0  0  0  0  0  0  0  0  0  0  0
    6.6197    1.8118    0.0000 H   0  0  0  0  0  0  0  0  0  0  0  0
   10.4606   -1.9648    0.0000 H   0  0  0  0  0  0  0  0  0  0  0  0
   11.5199    4.9682    0.0000 H   0  0  0  0  0  0  0  0  0  0  0  0
    3.1152   -2.1463    0.0000 H   0  0  0  0  0  0  0  0  0  0  0  0
    5.0254    1.5243    0.0000 H   0  0  0  0  0  0  0  0  0  0  0  0
    9.9032   -5.5396    0.0000 H   0  0  0  0  0  0  0  0  0  0  0  0
   14.4083   -0.7083    0.0000 H   0  0  0  0  0  0  0  0  0  0  0  0
   12.6762   -3.7083    0.0000 H   0  0  0  0  0  0  0  0  0  0  0  0
   13.8713   -3.0183    0.0000 H   0  0  0  0  0  0  0  0  0  0  0  0
    3.9125   -5.7327    0.0000 H   0  0  0  0  0  0  0  0  0  0  0  0
    2.0000   -4.3302    0.0000 H   0  0  0  0  0  0  0  0  0  0  0  0
    3.6720    4.4658    0.0000 H   0  0  0  0  0  0  0  0  0  0  0  0
    3.3955    2.1104    0.0000 H   0  0  0  0  0  0  0  0  0  0  0  0
  1 24  1  0  0  0  0
  1 25  1  0  0  0  0
  2 29  1  0  0  0  0
  2 38  1  0  0  0  0
  3 21  1  0  0  0  0
  3 76  1  0  0  0  0
  4 31  1  0  0  0  0
  4 39  1  0  0  0  0
  5 28  1  0  0  0  0
  5 78  1  0  0  0  0
  6 32  1  0  0  0  0
  6 83  1  0  0  0  0
  7 33  1  0  0  0  0
  7 84  1  0  0  0  0
  8 37  1  0  0  0  0
  8 87  1  0  0  0  0
  9 40  1  0  0  0  0
  9 88  1  0  0  0  0
 10 43  1  0  0  0  0
 10 91  1  0  0  0  0
 11 44  1  0  0  0  0
 11 92  1  0  0  0  0
 12 51  1  0  0  0  0
 12 95  1  0  0  0  0
 13 54  1  0  0  0  0
 13 96  1  0  0  0  0
 14 55  1  0  0  0  0
 14 97  1  0  0  0  0
 15 57  1  0  0  0  0
 15 98  1  0  0  0  0
 16 59  1  0  0  0  0
 16 99  1  0  0  0  0
 17 61  1  0  0  0  0
 17100  1  0  0  0  0
 18 62  1  0  0  0  0
 18101  1  0  0  0  0
 19 64  1  0  0  0  0
 19102  1  0  0  0  0
 20 21  1  0  0  0  0
 20 23  1  0  0  0  0
 20 27  1  0  0  0  0
 20 65  1  0  0  0  0
 21 24  1  0  0  0  0
 21 66  1  0  0  0  0
 22 26  1  0  0  0  0
 22 28  1  0  0  0  0
 22 30  1  0  0  0  0
 22 67  1  0  0  0  0
 23 25  1  0  0  0  0
 23 32  2  0  0  0  0
 24 35  1  0  0  0  0
 24 68  1  0  0  0  0
 25 26  2  0  0  0  0
 26 33  1  0  0  0  0
 27 31  1  0  0  0  0
 27 40  2  0  0  0  0
 28 29  1  0  0  0  0
 28 69  1  0  0  0  0
 29 42  1  0  0  0  0
 29 70  1  0  0  0  0
 30 38  1  0  0  0  0
 30 43  2  0  0  0  0
 31 34  2  0  0  0  0
 32 41  1  0  0  0  0
 33 41  2  0  0  0  0
 34 36  1  0  0  0  0
 34 44  1  0  0  0  0
 35 46  2  0  0  0  0
 35 47  1  0  0  0  0
 36 37  1  0  0  0  0
 36 71  1  0  0  0  0
 36 72  1  0  0  0  0
 37 39  1  0  0  0  0
 37 73  1  0  0  0  0
 38 48  2  0  0  0  0
 39 49  1  0  0  0  0
 39 74  1  0  0  0  0
 40 45  1  0  0  0  0
 41 75  1  0  0  0  0
 42 52  2  0  0  0  0
 42 53  1  0  0  0  0
 43 50  1  0  0  0  0
 44 45  2  0  0  0  0
 45 77  1  0  0  0  0
 46 55  1  0  0  0  0
 46 79  1  0  0  0  0
 47 54  2  0  0  0  0
 47 80  1  0  0  0  0
 48 51  1  0  0  0  0
 48 81  1  0  0  0  0
 49 56  2  0  0  0  0
 49 58  1  0  0  0  0
 50 51  2  0  0  0  0
 50 82  1  0  0  0  0
 52 59  1  0  0  0  0
 52 85  1  0  0  0  0
 53 60  2  0  0  0  0
 53 86  1  0  0  0  0
 54 57  1  0  0  0  0
 55 57  2  0  0  0  0
 56 62  1  0  0  0  0
 56 89  1  0  0  0  0
 58 63  2  0  0  0  0
 58 90  1  0  0  0  0
 59 61  2  0  0  0  0
 60 61  1  0  0  0  0
 60 93  1  0  0  0  0
 62 64  2  0  0  0  0
 63 64  1  0  0  0  0
 63 94  1  0  0  0  0
M  END
>  <PUBCHEM_COMPOUND_CID>
131752348

>  <PUBCHEM_COMPOUND_CANONICALIZED>
1

>  <PUBCHEM_CACTVS_COMPLEXITY>
1570

>  <PUBCHEM_CACTVS_HBOND_ACCEPTOR>
19

>  <PUBCHEM_CACTVS_HBOND_DONOR>
16

>  <PUBCHEM_CACTVS_ROTATABLE_BOND>
5

>  <PUBCHEM_CACTVS_SUBSKEYS>
AAADcfB8PgAAAAAAAAAAAAAAAAAAAAAAAAA0aNGDAAAAAACRVAAAGgAACAAADRSgmAIwBoAABgCAAiBCAAACCAAgIAAIiAAGiIgNNyKGMRqCeCGlwBULuAfA4PwOoAADCAAIQABAAAYQABCAAAAAAAAAAA==

>  <PUBCHEM_IUPAC_OPENEYE_NAME>
8-[2-(3,4-dihydroxyphenyl)-3,5,7-trihydroxy-chroman-4-yl]-4-[2-(3,4-dihydroxyphenyl)-3,5,7-trihydroxy-chroman-8-yl]-2-(3,4,5-trihydroxyphenyl)chromane-3,5,7-triol

>  <PUBCHEM_IUPAC_CAS_NAME>
8-[2-(3,4-dihydroxyphenyl)-3,5,7-trihydroxy-3,4-dihydro-2H-1-benzopyran-4-yl]-4-[2-(3,4-dihydroxyphenyl)-3,5,7-trihydroxy-3,4-dihydro-2H-1-benzopyran-8-yl]-2-(3,4,5-trihydroxyphenyl)-3,4-dihydro-2H-1-benzopyran-3,5,7-triol

>  <PUBCHEM_IUPAC_NAME>
8-[2-(3,4-dihydroxyphenyl)-3,5,7-trihydroxy-3,4-dihydro-2H-chromen-4-yl]-4-[2-(3,4-dihydroxyphenyl)-3,5,7-trihydroxy-3,4-dihydro-2H-chromen-8-yl]-2-(3,4,5-trihydroxyphenyl)-3,4-dihydro-2H-chromene-3,5,7-triol

>  <PUBCHEM_IUPAC_SYSTEMATIC_NAME>
8-[2-[3,4-bis(oxidanyl)phenyl]-3,5,7-tris(oxidanyl)-3,4-dihydro-2H-chromen-4-yl]-4-[2-[3,4-bis(oxidanyl)phenyl]-3,5,7-tris(oxidanyl)-3,4-dihydro-2H-chromen-8-yl]-2-[3,4,5-tris(oxidanyl)phenyl]-3,4-dihydro-2H-chromene-3,5,7-triol

>  <PUBCHEM_IUPAC_TRADITIONAL_NAME>
8-[2-(3,4-dihydroxyphenyl)-3,5,7-trihydroxy-chroman-4-yl]-4-[2-(3,4-dihydroxyphenyl)-3,5,7-trihydroxy-chroman-8-yl]-2-(3,4,5-trihydroxyphenyl)chroman-3,5,7-triol

>  <PUBCHEM_IUPAC_INCHI>
InChI=1S/C45H38O19/c46-17-9-24(52)32-31(10-17)62-42(15-2-4-20(48)23(51)6-15)39(60)36(32)34-26(54)13-27(55)35-37(40(61)43(64-45(34)35)16-7-28(56)38(59)29(57)8-16)33-25(53)12-21(49)18-11-30(58)41(63-44(18)33)14-1-3-19(47)22(50)5-14/h1-10,12-13,30,36-37,39-43,46-61H,11H2

>  <PUBCHEM_IUPAC_INCHIKEY>
IHBGHNWUFNXKJX-UHFFFAOYSA-N

>  <PUBCHEM_EXACT_MASS>
882.201

>  <PUBCHEM_MOLECULAR_FORMULA>
C45H38O19

>  <PUBCHEM_MOLECULAR_WEIGHT>
882.78

>  <PUBCHEM_OPENEYE_CAN_SMILES>
C1C(C(OC2=C1C(=CC(=C2C3C(C(OC4=C(C(=CC(=C34)O)O)C5C(C(OC6=CC(=CC(=C56)O)O)C7=CC(=C(C=C7)O)O)O)C8=CC(=C(C(=C8)O)O)O)O)O)O)C9=CC(=C(C=C9)O)O)O

>  <PUBCHEM_OPENEYE_ISO_SMILES>
C1C(C(OC2=C1C(=CC(=C2C3C(C(OC4=C(C(=CC(=C34)O)O)C5C(C(OC6=CC(=CC(=C56)O)O)C7=CC(=C(C=C7)O)O)O)C8=CC(=C(C(=C8)O)O)O)O)O)O)C9=CC(=C(C=C9)O)O)O

>  <PUBCHEM_CACTVS_TPSA>
351

>  <PUBCHEM_MONOISOTOPIC_WEIGHT>
882.201

>  <PUBCHEM_TOTAL_CHARGE>
0

>  <PUBCHEM_HEAVY_ATOM_COUNT>
64

>  <PUBCHEM_ATOM_DEF_STEREO_COUNT>
0

>  <PUBCHEM_ATOM_UDEF_STEREO_COUNT>
8

>  <PUBCHEM_BOND_DEF_STEREO_COUNT>
0

>  <PUBCHEM_BOND_UDEF_STEREO_COUNT>
0

>  <PUBCHEM_ISOTOPIC_ATOM_COUNT>
0

>  <PUBCHEM_COMPONENT_COUNT>
1

>  <PUBCHEM_CACTVS_TAUTO_COUNT>
970

>  <PUBCHEM_COORDINATE_TYPE>
1
5
255

>  <PUBCHEM_BONDANNOTATIONS>
20  27  3
22  26  3
23  25  8
23  32  8
24  35  3
25  26  8
26  33  8
27  31  8
27  40  8
29  42  3
21  3  3
30  38  8
30  43  8
31  34  8
32  41  8
33  41  8
34  44  8
35  46  8
35  47  8
38  48  8
39  49  3
40  45  8
42  52  8
42  53  8
43  50  8
44  45  8
46  55  8
47  54  8
48  51  8
49  56  8
49  58  8
28  5  3
50  51  8
52  59  8
53  60  8
54  57  8
55  57  8
56  62  8
58  63  8
59  61  8
60  61  8
62  64  8
63  64  8
37  8  3

$$$$
