131751171
 OpenBabel06101807152D

115121  0  0  1  0  0  0  0  0999 V2000
   10.6603   -1.0336    0.0000 O   0  0  0  0  0  0  0  0  0  0  0  0
    8.9282    0.9664    0.0000 O   0  0  0  0  0  0  0  0  0  0  0  0
    9.8512   -2.6214    0.0000 O   0  0  0  0  0  0  0  0  0  0  0  0
    6.3301    0.4664    0.0000 O   0  0  0  0  0  0  0  0  0  0  0  0
    8.9282   -2.0336    0.0000 O   0  0  0  0  0  0  0  0  0  0  0  0
   10.6603    0.9664    0.0000 O   0  0  0  0  0  0  0  0  0  0  0  0
    7.1962   -1.0336    0.0000 O   0  0  0  0  0  0  0  0  0  0  0  0
    5.4641    1.9664    0.0000 O   0  0  0  0  0  0  0  0  0  0  0  0
   12.1113   -3.8814    0.0000 O   0  0  0  0  0  0  0  0  0  0  0  0
   12.4203   -2.3124    0.0000 O   0  0  0  0  0  0  0  0  0  0  0  0
    4.5981   -0.5336    0.0000 O   0  0  0  0  0  0  0  0  0  0  0  0
    2.8660    0.4664    0.0000 O   0  0  0  0  0  0  0  0  0  0  0  0
   12.0263   -5.0724    0.0000 O   0  0  0  0  0  0  0  0  0  0  0  0
    2.8660    2.4664    0.0000 O   0  0  0  0  0  0  0  0  0  0  0  0
    5.4641    3.9664    0.0000 O   0  0  0  0  0  0  0  0  0  0  0  0
   11.5263    3.4664    0.0000 O   0  0  0  0  0  0  0  0  0  0  0  0
    8.9282    1.9664    0.0000 O   0  0  0  0  0  0  0  0  0  0  0  0
    2.8660   -0.5336    0.0000 O   0  0  0  0  0  0  0  0  0  0  0  0
    8.0240    3.4633    0.0000 O   0  0  0  0  0  0  0  0  0  0  0  0
    8.0082    5.5115    0.0000 O   0  0  0  0  0  0  0  0  0  0  0  0
    9.7821    6.5357    0.0000 O   0  0  0  0  0  0  0  0  0  0  0  0
   14.9904    2.4664    0.0000 O   0  0  0  0  0  0  0  0  0  0  0  0
   14.9904    0.4664    0.0000 O   0  0  0  0  0  0  0  0  0  0  0  0
    2.8660   -6.5336    0.0000 O   0  0  0  0  0  0  0  0  0  0  0  0
    9.7942   -0.5336    0.0000 C   0  0  2  0  0  0  0  0  0  0  0  0
    8.9282   -1.0336    0.0000 C   0  0  2  0  0  0  0  0  0  0  0  0
    8.0622   -0.5336    0.0000 C   0  0  1  0  0  0  0  0  0  0  0  0
    8.0622    0.4664    0.0000 C   0  0  3  0  0  0  0  0  0  0  0  0
   11.1603   -3.5724    0.0000 C   0  0  1  0  0  0  0  0  0  0  0  0
   10.6603   -2.0336    0.0000 C   0  0  2  0  0  0  0  0  0  0  0  0
   11.4693   -2.6214    0.0000 C   0  0  2  0  0  0  0  0  0  0  0  0
    9.7942    0.4664    0.0000 C   0  0  1  0  0  0  0  0  0  0  0  0
   10.1603   -3.5724    0.0000 C   0  0  0  0  0  0  0  0  0  0  0  0
    7.1962    0.9664    0.0000 C   0  0  0  0  0  0  0  0  0  0  0  0
    5.4641    0.9664    0.0000 C   0  0  2  0  0  0  0  0  0  0  0  0
    4.5981    0.4664    0.0000 C   0  0  1  0  0  0  0  0  0  0  0  0
    3.7320    0.9664    0.0000 C   0  0  2  0  0  0  0  0  0  0  0  0
   11.1603   -4.5724    0.0000 C   0  0  0  0  0  0  0  0  0  0  0  0
    3.7320    1.9664    0.0000 C   0  0  1  0  0  0  0  0  0  0  0  0
    4.5981    2.4664    0.0000 C   0  0  2  0  0  0  0  0  0  0  0  0
    4.5981    3.4664    0.0000 C   0  0  0  0  0  0  0  0  0  0  0  0
   10.6603    1.9664    0.0000 C   0  0  0  0  0  0  0  0  0  0  0  0
   11.5263    2.4664    0.0000 C   0  0  0  0  0  0  0  0  0  0  0  0
    9.7942    2.4664    0.0000 C   0  0  0  0  0  0  0  0  0  0  0  0
    3.7320   -1.0336    0.0000 C   0  0  0  0  0  0  0  0  0  0  0  0
    9.7942    3.4664    0.0000 C   0  0  0  0  0  0  0  0  0  0  0  0
   12.3923    1.9664    0.0000 C   0  0  0  0  0  0  0  0  0  0  0  0
   10.6603    3.9664    0.0000 C   0  0  0  0  0  0  0  0  0  0  0  0
    3.7320   -2.0336    0.0000 C   0  0  0  0  0  0  0  0  0  0  0  0
    8.8842    3.9732    0.0000 C   0  0  0  0  0  0  0  0  0  0  0  0
   10.6763    5.0079    0.0000 C   0  0  0  0  0  0  0  0  0  0  0  0
   13.2583    2.4664    0.0000 C   0  0  0  0  0  0  0  0  0  0  0  0
   12.3923    0.9664    0.0000 C   0  0  0  0  0  0  0  0  0  0  0  0
    8.8762    5.0148    0.0000 C   0  0  0  0  0  0  0  0  0  0  0  0
    9.7783    5.5357    0.0000 C   0  0  0  0  0  0  0  0  0  0  0  0
    2.8660   -2.5336    0.0000 C   0  0  0  0  0  0  0  0  0  0  0  0
   14.1244    1.9664    0.0000 C   0  0  0  0  0  0  0  0  0  0  0  0
   13.2583    0.4664    0.0000 C   0  0  0  0  0  0  0  0  0  0  0  0
   14.1244    0.9664    0.0000 C   0  0  0  0  0  0  0  0  0  0  0  0
    2.8660   -3.5336    0.0000 C   0  0  0  0  0  0  0  0  0  0  0  0
    2.0000   -4.0336    0.0000 C   0  0  0  0  0  0  0  0  0  0  0  0
    3.7320   -4.0336    0.0000 C   0  0  0  0  0  0  0  0  0  0  0  0
    8.0044    6.5115    0.0000 C   0  0  0  0  0  0  0  0  0  0  0  0
   14.9904    3.4664    0.0000 C   0  0  0  0  0  0  0  0  0  0  0  0
    2.0000   -5.0336    0.0000 C   0  0  0  0  0  0  0  0  0  0  0  0
    3.7320   -5.0336    0.0000 C   0  0  0  0  0  0  0  0  0  0  0  0
    2.8660   -5.5336    0.0000 C   0  0  0  0  0  0  0  0  0  0  0  0
    9.7942   -1.1536    0.0000 H   0  0  0  0  0  0  0  0  0  0  0  0
    8.3913   -1.3436    0.0000 H   0  0  0  0  0  0  0  0  0  0  0  0
    7.5252   -0.2236    0.0000 H   0  0  0  0  0  0  0  0  0  0  0  0
    8.0622    1.0864    0.0000 H   0  0  0  0  0  0  0  0  0  0  0  0
   11.2127   -1.7521    0.0000 H   0  0  0  0  0  0  0  0  0  0  0  0
   11.9077   -3.0598    0.0000 H   0  0  0  0  0  0  0  0  0  0  0  0
    9.7942    1.0864    0.0000 H   0  0  0  0  0  0  0  0  0  0  0  0
    9.5538   -3.7013    0.0000 H   0  0  0  0  0  0  0  0  0  0  0  0
   10.2251   -4.1890    0.0000 H   0  0  0  0  0  0  0  0  0  0  0  0
    7.5947    1.4414    0.0000 H   0  0  0  0  0  0  0  0  0  0  0  0
    6.7976    1.4414    0.0000 H   0  0  0  0  0  0  0  0  0  0  0  0
    5.4641    0.3464    0.0000 H   0  0  0  0  0  0  0  0  0  0  0  0
    4.0611    0.1564    0.0000 H   0  0  0  0  0  0  0  0  0  0  0  0
    3.1951    1.2764    0.0000 H   0  0  0  0  0  0  0  0  0  0  0  0
   10.5497   -4.4648    0.0000 H   0  0  0  0  0  0  0  0  0  0  0  0
   10.9482   -5.1550    0.0000 H   0  0  0  0  0  0  0  0  0  0  0  0
    3.7320    2.5864    0.0000 H   0  0  0  0  0  0  0  0  0  0  0  0
    5.1350    2.7764    0.0000 H   0  0  0  0  0  0  0  0  0  0  0  0
    8.3913   -2.3436    0.0000 H   0  0  0  0  0  0  0  0  0  0  0  0
    7.1962   -1.6536    0.0000 H   0  0  0  0  0  0  0  0  0  0  0  0
   12.5721   -3.4666    0.0000 H   0  0  0  0  0  0  0  0  0  0  0  0
   12.5492   -1.7059    0.0000 H   0  0  0  0  0  0  0  0  0  0  0  0
    4.3860    4.0490    0.0000 H   0  0  0  0  0  0  0  0  0  0  0  0
    3.9875    3.3588    0.0000 H   0  0  0  0  0  0  0  0  0  0  0  0
    2.3291    0.7764    0.0000 H   0  0  0  0  0  0  0  0  0  0  0  0
   12.0263   -5.6924    0.0000 H   0  0  0  0  0  0  0  0  0  0  0  0
    2.8660    3.0864    0.0000 H   0  0  0  0  0  0  0  0  0  0  0  0
    5.4641    4.5864    0.0000 H   0  0  0  0  0  0  0  0  0  0  0  0
    4.2690   -2.3436    0.0000 H   0  0  0  0  0  0  0  0  0  0  0  0
   11.2168    5.3117    0.0000 H   0  0  0  0  0  0  0  0  0  0  0  0
   13.2583    3.0864    0.0000 H   0  0  0  0  0  0  0  0  0  0  0  0
   11.8554    0.6564    0.0000 H   0  0  0  0  0  0  0  0  0  0  0  0
    2.3291   -2.2236    0.0000 H   0  0  0  0  0  0  0  0  0  0  0  0
   13.2583   -0.1536    0.0000 H   0  0  0  0  0  0  0  0  0  0  0  0
    7.4836    3.7670    0.0000 H   0  0  0  0  0  0  0  0  0  0  0  0
   10.3203    6.8436    0.0000 H   0  0  0  0  0  0  0  0  0  0  0  0
    1.4631   -3.7236    0.0000 H   0  0  0  0  0  0  0  0  0  0  0  0
    4.2690   -3.7236    0.0000 H   0  0  0  0  0  0  0  0  0  0  0  0
    8.6244    6.5139    0.0000 H   0  0  0  0  0  0  0  0  0  0  0  0
    8.0020    7.1315    0.0000 H   0  0  0  0  0  0  0  0  0  0  0  0
    7.3844    6.5091    0.0000 H   0  0  0  0  0  0  0  0  0  0  0  0
   14.9904   -0.1536    0.0000 H   0  0  0  0  0  0  0  0  0  0  0  0
   15.6104    3.4664    0.0000 H   0  0  0  0  0  0  0  0  0  0  0  0
   14.9904    4.0864    0.0000 H   0  0  0  0  0  0  0  0  0  0  0  0
   14.3704    3.4664    0.0000 H   0  0  0  0  0  0  0  0  0  0  0  0
    1.4631   -5.3436    0.0000 H   0  0  0  0  0  0  0  0  0  0  0  0
    4.2690   -5.3436    0.0000 H   0  0  0  0  0  0  0  0  0  0  0  0
    2.3291   -6.8436    0.0000 H   0  0  0  0  0  0  0  0  0  0  0  0
  2 28  1  0  0  0  0
  2 32  1  0  0  0  0
  3 30  1  0  0  0  0
  3 33  1  0  0  0  0
  4 34  1  0  0  0  0
  5 86  1  0  0  0  0
  6 42  1  0  0  0  0
  7 87  1  0  0  0  0
  8 35  1  0  0  0  0
  8 40  1  0  0  0  0
  9 88  1  0  0  0  0
 10 89  1  0  0  0  0
 11 45  1  0  0  0  0
 12 92  1  0  0  0  0
 13 38  1  0  0  0  0
 13 93  1  0  0  0  0
 14 94  1  0  0  0  0
 15 41  1  0  0  0  0
 15 95  1  0  0  0  0
 16 43  1  0  0  0  0
 16 48  1  0  0  0  0
 17 44  2  0  0  0  0
 18 45  2  0  0  0  0
 19 50  1  0  0  0  0
 19102  1  0  0  0  0
 20 54  1  0  0  0  0
 20 63  1  0  0  0  0
 21 55  1  0  0  0  0
 21103  1  0  0  0  0
 22 57  1  0  0  0  0
 22 64  1  0  0  0  0
 23 59  1  0  0  0  0
 23109  1  0  0  0  0
 24 67  1  0  0  0  0
 24115  1  0  0  0  0
 25  1  1  0  0  0  0
 25 26  1  6  0  0  0
 25 68  1  0  0  0  0
 26  5  1  0  0  0  0
 26 27  1  1  0  0  0
 26 69  1  0  0  0  0
 27  7  1  0  0  0  0
 27 28  1  6  0  0  0
 27 70  1  0  0  0  0
 28 34  1  0  0  0  0
 28 71  1  0  0  0  0
 29  9  1  0  0  0  0
 29 31  1  1  0  0  0
 29 33  1  0  0  0  0
 29 38  1  0  0  0  0
 30  1  1  0  0  0  0
 30 31  1  1  0  0  0
 30 72  1  0  0  0  0
 31 10  1  0  0  0  0
 31 73  1  1  0  0  0
 32  6  1  0  0  0  0
 32 25  1  6  0  0  0
 32 74  1  0  0  0  0
 33 75  1  0  0  0  0
 33 76  1  0  0  0  0
 34 77  1  0  0  0  0
 34 78  1  0  0  0  0
 35  4  1  0  0  0  0
 35 36  1  1  0  0  0
 35 79  1  0  0  0  0
 36 11  1  0  0  0  0
 36 37  1  6  0  0  0
 36 80  1  0  0  0  0
 37 12  1  0  0  0  0
 37 39  1  1  0  0  0
 37 81  1  0  0  0  0
 38 82  1  0  0  0  0
 38 83  1  0  0  0  0
 39 14  1  0  0  0  0
 39 40  1  6  0  0  0
 39 84  1  0  0  0  0
 40 41  1  0  0  0  0
 40 85  1  1  0  0  0
 41 90  1  0  0  0  0
 41 91  1  0  0  0  0
 42 43  2  0  0  0  0
 42 44  1  0  0  0  0
 43 47  1  0  0  0  0
 44 46  1  0  0  0  0
 45 49  1  0  0  0  0
 46 48  2  0  0  0  0
 46 50  1  0  0  0  0
 47 52  2  0  0  0  0
 47 53  1  0  0  0  0
 48 51  1  0  0  0  0
 49 56  2  0  0  0  0
 49 96  1  0  0  0  0
 50 54  2  0  0  0  0
 51 55  2  0  0  0  0
 51 97  1  0  0  0  0
 52 57  1  0  0  0  0
 52 98  1  0  0  0  0
 53 58  2  0  0  0  0
 53 99  1  0  0  0  0
 54 55  1  0  0  0  0
 56 60  1  0  0  0  0
 56100  1  0  0  0  0
 57 59  2  0  0  0  0
 58 59  1  0  0  0  0
 58101  1  0  0  0  0
 60 61  2  0  0  0  0
 60 62  1  0  0  0  0
 61 65  1  0  0  0  0
 61104  1  0  0  0  0
 62 66  2  0  0  0  0
 62105  1  0  0  0  0
 63106  1  0  0  0  0
 63107  1  0  0  0  0
 63108  1  0  0  0  0
 64110  1  0  0  0  0
 64111  1  0  0  0  0
 64112  1  0  0  0  0
 65 67  2  0  0  0  0
 65113  1  0  0  0  0
 66 67  1  0  0  0  0
 66114  1  0  0  0  0
M  END
>  <PUBCHEM_COMPOUND_CID>
131751171

>  <PUBCHEM_COMPOUND_CANONICALIZED>
1

>  <PUBCHEM_CACTVS_COMPLEXITY>
1730

>  <PUBCHEM_CACTVS_HBOND_ACCEPTOR>
24

>  <PUBCHEM_CACTVS_HBOND_DONOR>
12

>  <PUBCHEM_CACTVS_ROTATABLE_BOND>
16

>  <PUBCHEM_CACTVS_SUBSKEYS>
AAADcfB8PgAAAAAAAAAAAAAAAAAAASAAAAA0aMECAAAAAACBUAAAGgAACAAADFSwmAMyDoAABgCIAqDSCAICCAAkIAAIiAFGiMgdNzaGNR6ieWOl4BUPuYfK7LzOIQABCAAIQABCAAIQABCAAAAAAAAAAA==

>  <PUBCHEM_IUPAC_OPENEYE_NAME>
[(2R,3R,4S,5S,6S)-2-[[(3S,4S,5R,6S)-6-[5,7-dihydroxy-2-(4-hydroxy-3-methoxy-phenyl)-6-methoxy-4-oxo-chromen-3-yl]oxy-5-[(2S,3R,4R)-3,4-dihydroxy-4-(hydroxymethyl)tetrahydrofuran-2-yl]oxy-3,4-dihydroxy-tetrahydropyran-2-yl]methoxy]-4,5-dihydroxy-6-(hydroxymethyl)tetrahydropyran-3-yl] (E)-3-(4-hydroxyphenyl)prop-2-enoate

>  <PUBCHEM_IUPAC_CAS_NAME>
(E)-3-(4-hydroxyphenyl)-2-propenoic acid [(2R,3R,4S,5S,6S)-2-[[(3S,4S,5R,6S)-6-[[5,7-dihydroxy-2-(4-hydroxy-3-methoxyphenyl)-6-methoxy-4-oxo-1-benzopyran-3-yl]oxy]-5-[[(2S,3R,4R)-3,4-dihydroxy-4-(hydroxymethyl)-2-oxolanyl]oxy]-3,4-dihydroxy-2-oxanyl]methoxy]-4,5-dihydroxy-6-(hydroxymethyl)-3-oxanyl] ester

>  <PUBCHEM_IUPAC_NAME>
[(2R,3R,4S,5S,6S)-2-[[(3S,4S,5R,6S)-6-[5,7-dihydroxy-2-(4-hydroxy-3-methoxyphenyl)-6-methoxy-4-oxochromen-3-yl]oxy-5-[(2S,3R,4R)-3,4-dihydroxy-4-(hydroxymethyl)oxolan-2-yl]oxy-3,4-dihydroxyoxan-2-yl]methoxy]-4,5-dihydroxy-6-(hydroxymethyl)oxan-3-yl] (E)-3-(4-hydroxyphenyl)prop-2-enoate

>  <PUBCHEM_IUPAC_SYSTEMATIC_NAME>
[(2R,3R,4S,5S,6S)-6-(hydroxymethyl)-2-[[(3S,4S,5R,6S)-5-[(2S,3R,4R)-4-(hydroxymethyl)-3,4-bis(oxidanyl)oxolan-2-yl]oxy-6-[6-methoxy-2-(3-methoxy-4-oxidanyl-phenyl)-5,7-bis(oxidanyl)-4-oxidanylidene-chromen-3-yl]oxy-3,4-bis(oxidanyl)oxan-2-yl]methoxy]-4,5-bis(oxidanyl)oxan-3-yl] (E)-3-(4-hydroxyphenyl)prop-2-enoate

>  <PUBCHEM_IUPAC_TRADITIONAL_NAME>
(E)-3-(4-hydroxyphenyl)acrylic acid [(2R,3R,4S,5S,6S)-2-[[(3S,4S,5R,6S)-6-[5,7-dihydroxy-2-(4-hydroxy-3-methoxy-phenyl)-4-keto-6-methoxy-chromen-3-yl]oxy-5-[(2S,3R,4R)-3,4-dihydroxy-4-methylol-tetrahydrofuran-2-yl]oxy-3,4-dihydroxy-tetrahydropyran-2-yl]methoxy]-4,5-dihydroxy-6-methylol-tetrahydropyran-3-yl] ester

>  <PUBCHEM_IUPAC_INCHI>
InChI=1S/C43H48O24/c1-58-22-11-18(6-9-20(22)47)34-36(31(53)27-23(62-34)12-21(48)35(59-2)30(27)52)66-41-38(67-42-39(56)43(57,15-45)16-61-42)33(55)29(51)25(64-41)14-60-40-37(32(54)28(50)24(13-44)63-40)65-26(49)10-5-17-3-7-19(46)8-4-17/h3-12,24-25,28-29,32-33,37-42,44-48,50-52,54-57H,13-16H2,1-2H3/b10-5+/t24-,25?,28+,29+,32-,33-,37+,38+,39-,40+,41-,42-,43+/m0/s1

>  <PUBCHEM_IUPAC_INCHIKEY>
CRMQLXUPYMVANT-FXDLSBRASA-N

>  <PUBCHEM_EXACT_MASS>
948.254

>  <PUBCHEM_MOLECULAR_FORMULA>
C43H48O24

>  <PUBCHEM_MOLECULAR_WEIGHT>
948.833

>  <PUBCHEM_OPENEYE_CAN_SMILES>
COC1=C(C=CC(=C1)C2=C(C(=O)C3=C(C(=C(C=C3O2)O)OC)O)OC4C(C(C(C(O4)COC5C(C(C(C(O5)CO)O)O)OC(=O)C=CC6=CC=C(C=C6)O)O)O)OC7C(C(CO7)(CO)O)O)O

>  <PUBCHEM_OPENEYE_ISO_SMILES>
COC1=C(C=CC(=C1)C2=C(C(=O)C3=C(C(=C(C=C3O2)O)OC)O)O[C@H]4[C@@H]([C@H]([C@@H](C(O4)CO[C@H]5[C@@H]([C@H]([C@@H]([C@@H](O5)CO)O)O)OC(=O)/C=C/C6=CC=C(C=C6)O)O)O)O[C@H]7[C@@H]([C@](CO7)(CO)O)O)O

>  <PUBCHEM_CACTVS_TPSA>
369

>  <PUBCHEM_MONOISOTOPIC_WEIGHT>
948.254

>  <PUBCHEM_TOTAL_CHARGE>
0

>  <PUBCHEM_HEAVY_ATOM_COUNT>
67

>  <PUBCHEM_ATOM_DEF_STEREO_COUNT>
12

>  <PUBCHEM_ATOM_UDEF_STEREO_COUNT>
1

>  <PUBCHEM_BOND_DEF_STEREO_COUNT>
1

>  <PUBCHEM_BOND_UDEF_STEREO_COUNT>
0

>  <PUBCHEM_ISOTOPIC_ATOM_COUNT>
0

>  <PUBCHEM_COMPONENT_COUNT>
1

>  <PUBCHEM_CACTVS_TAUTO_COUNT>
276

>  <PUBCHEM_COORDINATE_TYPE>
1
5
255

>  <PUBCHEM_BONDANNOTATIONS>
25  1  6
30  1  5
31  10  6
36  11  6
37  12  5
39  14  6
16  43  8
16  48  8
28  34  3
35  4  5
40  41  6
42  43  8
42  44  8
44  46  8
46  48  8
46  50  8
47  52  8
47  53  8
48  51  8
26  5  5
50  54  8
51  55  8
52  57  8
53  58  8
54  55  8
57  59  8
58  59  8
32  6  5
60  61  8
60  62  8
61  65  8
62  66  8
65  67  8
66  67  8
27  7  6
29  9  6

$$$$
