131751400
 OpenBabel06101807152D

100102  0  0  1  0  0  0  0  0999 V2000
    4.3010    7.9643    0.0000 O   0  0  0  0  0  0  0  0  0  0  0  0
    2.5314    4.9390    0.0000 O   0  0  0  0  0  0  0  0  0  0  0  0
   15.6023   -7.9643    0.0000 O   0  0  0  0  0  0  0  0  0  0  0  0
   12.4573   -5.0212    0.0000 O   0  0  0  0  0  0  0  0  0  0  0  0
    4.7788    6.0158    0.0000 C   0  0  3  0  0  0  0  0  0  0  0  0
    6.1777    5.5070    0.0000 C   0  0  0  0  0  0  0  0  0  0  0  0
    3.4061    5.4238    0.0000 C   0  0  3  0  0  0  0  0  0  0  0  0
    5.0376    6.9817    0.0000 C   0  0  3  0  0  0  0  0  0  0  0  0
    6.4365    6.4729    0.0000 C   0  0  0  0  0  0  0  0  0  0  0  0
    3.0640    6.3635    0.0000 C   0  0  0  0  0  0  0  0  0  0  0  0
    7.1722    5.6115    0.0000 C   0  0  0  0  0  0  0  0  0  0  0  0
    6.7370    4.6780    0.0000 C   0  0  0  0  0  0  0  0  0  0  0  0
    4.5200    5.0499    0.0000 C   0  0  0  0  0  0  0  0  0  0  0  0
    3.0805    4.4783    0.0000 C   0  0  0  0  0  0  0  0  0  0  0  0
   13.4535   -6.5227    0.0000 C   0  0  0  0  0  0  0  0  0  0  0  0
    5.2271    4.3428    0.0000 C   0  0  0  0  0  0  0  0  0  0  0  0
   14.1606   -5.8156    0.0000 C   0  0  3  0  0  0  0  0  0  0  0  0
   13.9075   -7.4137    0.0000 C   0  0  0  0  0  0  0  0  0  0  0  0
   15.0516   -6.2695    0.0000 C   0  0  0  0  0  0  0  0  0  0  0  0
   14.8952   -7.2572    0.0000 C   0  0  3  0  0  0  0  0  0  0  0  0
   12.5625   -6.9766    0.0000 C   0  0  0  0  0  0  0  0  0  0  0  0
   12.5472   -6.1000    0.0000 C   0  0  0  0  0  0  0  0  0  0  0  0
   14.6146   -4.9245    0.0000 C   0  0  0  0  0  0  0  0  0  0  0  0
    4.9682    3.3768    0.0000 C   0  0  0  0  0  0  0  0  0  0  0  0
   13.4535   -5.1084    0.0000 C   0  0  0  0  0  0  0  0  0  0  0  0
    4.0023    3.1180    0.0000 C   0  0  0  0  0  0  0  0  0  0  0  0
    5.6753    2.6697    0.0000 C   0  0  0  0  0  0  0  0  0  0  0  0
   13.7123   -4.1425    0.0000 C   0  0  0  0  0  0  0  0  0  0  0  0
   13.0052   -3.4354    0.0000 C   0  0  0  0  0  0  0  0  0  0  0  0
    6.6413    2.9286    0.0000 C   0  0  0  0  0  0  0  0  0  0  0  0
   13.2641   -2.4695    0.0000 C   0  0  0  0  0  0  0  0  0  0  0  0
    7.3484    2.2214    0.0000 C   0  0  0  0  0  0  0  0  0  0  0  0
   14.2300   -2.2107    0.0000 C   0  0  0  0  0  0  0  0  0  0  0  0
   12.5569   -1.7624    0.0000 C   0  0  0  0  0  0  0  0  0  0  0  0
    8.3143    2.4803    0.0000 C   0  0  0  0  0  0  0  0  0  0  0  0
   12.8158   -0.7965    0.0000 C   0  0  0  0  0  0  0  0  0  0  0  0
    8.5731    3.4462    0.0000 C   0  0  0  0  0  0  0  0  0  0  0  0
    9.0214    1.7732    0.0000 C   0  0  0  0  0  0  0  0  0  0  0  0
   12.1087   -0.0893    0.0000 C   0  0  0  0  0  0  0  0  0  0  0  0
    9.9873    2.0320    0.0000 C   0  0  0  0  0  0  0  0  0  0  0  0
   12.3675    0.8766    0.0000 C   0  0  0  0  0  0  0  0  0  0  0  0
   10.6944    1.3249    0.0000 C   0  0  0  0  0  0  0  0  0  0  0  0
   11.6604    1.5837    0.0000 C   0  0  0  0  0  0  0  0  0  0  0  0
   13.3334    1.1354    0.0000 C   0  0  0  0  0  0  0  0  0  0  0  0
    5.0236    6.3619    0.0000 H   0  0  0  0  0  0  0  0  0  0  0  0
    7.0305    6.2951    0.0000 H   0  0  0  0  0  0  0  0  0  0  0  0
    6.6315    7.0615    0.0000 H   0  0  0  0  0  0  0  0  0  0  0  0
    2.8697    6.9522    0.0000 H   0  0  0  0  0  0  0  0  0  0  0  0
    2.4783    6.1603    0.0000 H   0  0  0  0  0  0  0  0  0  0  0  0
    6.2230    4.3312    0.0000 H   0  0  0  0  0  0  0  0  0  0  0  0
    7.0837    4.1640    0.0000 H   0  0  0  0  0  0  0  0  0  0  0  0
    7.2510    5.0247    0.0000 H   0  0  0  0  0  0  0  0  0  0  0  0
    7.2370    4.9949    0.0000 H   0  0  0  0  0  0  0  0  0  0  0  0
    7.7888    5.6763    0.0000 H   0  0  0  0  0  0  0  0  0  0  0  0
    7.1074    6.2281    0.0000 H   0  0  0  0  0  0  0  0  0  0  0  0
    4.0815    4.6115    0.0000 H   0  0  0  0  0  0  0  0  0  0  0  0
    2.4943    4.6801    0.0000 H   0  0  0  0  0  0  0  0  0  0  0  0
    2.8786    3.8920    0.0000 H   0  0  0  0  0  0  0  0  0  0  0  0
    3.6667    4.2764    0.0000 H   0  0  0  0  0  0  0  0  0  0  0  0
    2.0000    5.2583    0.0000 H   0  0  0  0  0  0  0  0  0  0  0  0
    5.7890    4.0807    0.0000 H   0  0  0  0  0  0  0  0  0  0  0  0
   13.3287   -7.6358    0.0000 H   0  0  0  0  0  0  0  0  0  0  0  0
   14.0680   -8.0125    0.0000 H   0  0  0  0  0  0  0  0  0  0  0  0
   15.6505   -6.4300    0.0000 H   0  0  0  0  0  0  0  0  0  0  0  0
   15.2738   -5.6907    0.0000 H   0  0  0  0  0  0  0  0  0  0  0  0
   15.4849   -7.0656    0.0000 H   0  0  0  0  0  0  0  0  0  0  0  0
   12.8092   -5.5381    0.0000 H   0  0  0  0  0  0  0  0  0  0  0  0
   11.9853   -5.8380    0.0000 H   0  0  0  0  0  0  0  0  0  0  0  0
   12.2852   -6.6620    0.0000 H   0  0  0  0  0  0  0  0  0  0  0  0
   12.2810   -6.4242    0.0000 H   0  0  0  0  0  0  0  0  0  0  0  0
   12.0101   -7.2581    0.0000 H   0  0  0  0  0  0  0  0  0  0  0  0
   12.8440   -7.5291    0.0000 H   0  0  0  0  0  0  0  0  0  0  0  0
   15.1670   -5.2060    0.0000 H   0  0  0  0  0  0  0  0  0  0  0  0
   14.8961   -4.3721    0.0000 H   0  0  0  0  0  0  0  0  0  0  0  0
   14.0622   -4.6431    0.0000 H   0  0  0  0  0  0  0  0  0  0  0  0
   16.2012   -7.8039    0.0000 H   0  0  0  0  0  0  0  0  0  0  0  0
    3.8418    3.7169    0.0000 H   0  0  0  0  0  0  0  0  0  0  0  0
    3.4034    2.9576    0.0000 H   0  0  0  0  0  0  0  0  0  0  0  0
    4.1628    2.5191    0.0000 H   0  0  0  0  0  0  0  0  0  0  0  0
   14.3112   -3.9820    0.0000 H   0  0  0  0  0  0  0  0  0  0  0  0
    5.5149    2.0709    0.0000 H   0  0  0  0  0  0  0  0  0  0  0  0
   12.4064   -3.5959    0.0000 H   0  0  0  0  0  0  0  0  0  0  0  0
    6.8017    3.5274    0.0000 H   0  0  0  0  0  0  0  0  0  0  0  0
    7.1879    1.6226    0.0000 H   0  0  0  0  0  0  0  0  0  0  0  0
   14.3904   -2.8095    0.0000 H   0  0  0  0  0  0  0  0  0  0  0  0
   14.8288   -2.0502    0.0000 H   0  0  0  0  0  0  0  0  0  0  0  0
   14.0695   -1.6118    0.0000 H   0  0  0  0  0  0  0  0  0  0  0  0
   11.9581   -1.9228    0.0000 H   0  0  0  0  0  0  0  0  0  0  0  0
   13.4146   -0.6360    0.0000 H   0  0  0  0  0  0  0  0  0  0  0  0
    9.1720    3.2857    0.0000 H   0  0  0  0  0  0  0  0  0  0  0  0
    8.7336    4.0451    0.0000 H   0  0  0  0  0  0  0  0  0  0  0  0
    7.9742    3.6067    0.0000 H   0  0  0  0  0  0  0  0  0  0  0  0
    8.8609    1.1743    0.0000 H   0  0  0  0  0  0  0  0  0  0  0  0
   11.5098   -0.2498    0.0000 H   0  0  0  0  0  0  0  0  0  0  0  0
   10.1478    2.6308    0.0000 H   0  0  0  0  0  0  0  0  0  0  0  0
   10.5340    0.7260    0.0000 H   0  0  0  0  0  0  0  0  0  0  0  0
   11.8208    2.1826    0.0000 H   0  0  0  0  0  0  0  0  0  0  0  0
   13.4939    0.5365    0.0000 H   0  0  0  0  0  0  0  0  0  0  0  0
   13.9323    1.2959    0.0000 H   0  0  0  0  0  0  0  0  0  0  0  0
   13.1729    1.7343    0.0000 H   0  0  0  0  0  0  0  0  0  0  0  0
  1  5  1  0  0  0  0
  1  8  1  0  0  0  0
  2  7  1  0  0  0  0
  2 60  1  0  0  0  0
  3 20  1  0  0  0  0
  3 76  1  0  0  0  0
  4 25  2  0  0  0  0
  5  6  1  0  0  0  0
  5  7  1  0  0  0  0
  5 13  1  0  0  0  0
  6  9  1  0  0  0  0
  6 11  1  0  0  0  0
  6 12  1  0  0  0  0
  7 10  1  0  0  0  0
  7 14  1  0  0  0  0
  8  9  1  0  0  0  0
  8 10  1  0  0  0  0
  8 45  1  0  0  0  0
  9 46  1  0  0  0  0
  9 47  1  0  0  0  0
 10 48  1  0  0  0  0
 10 49  1  0  0  0  0
 11 53  1  0  0  0  0
 11 54  1  0  0  0  0
 11 55  1  0  0  0  0
 12 50  1  0  0  0  0
 12 51  1  0  0  0  0
 12 52  1  0  0  0  0
 13 16  2  0  0  0  0
 13 56  1  0  0  0  0
 14 57  1  0  0  0  0
 14 58  1  0  0  0  0
 14 59  1  0  0  0  0
 15 17  1  0  0  0  0
 15 18  1  0  0  0  0
 15 21  1  0  0  0  0
 15 22  1  0  0  0  0
 16 24  1  0  0  0  0
 16 61  1  0  0  0  0
 17 19  1  0  0  0  0
 17 23  1  0  0  0  0
 17 25  1  0  0  0  0
 18 20  1  0  0  0  0
 18 62  1  0  0  0  0
 18 63  1  0  0  0  0
 19 20  1  0  0  0  0
 19 64  1  0  0  0  0
 19 65  1  0  0  0  0
 20 66  1  0  0  0  0
 21 70  1  0  0  0  0
 21 71  1  0  0  0  0
 21 72  1  0  0  0  0
 22 67  1  0  0  0  0
 22 68  1  0  0  0  0
 22 69  1  0  0  0  0
 23 73  1  0  0  0  0
 23 74  1  0  0  0  0
 23 75  1  0  0  0  0
 24 26  1  0  0  0  0
 24 27  2  0  0  0  0
 25 28  1  0  0  0  0
 26 77  1  0  0  0  0
 26 78  1  0  0  0  0
 26 79  1  0  0  0  0
 27 30  1  0  0  0  0
 27 81  1  0  0  0  0
 28 29  2  0  0  0  0
 28 80  1  0  0  0  0
 29 31  1  0  0  0  0
 29 82  1  0  0  0  0
 30 32  2  0  0  0  0
 30 83  1  0  0  0  0
 31 33  1  0  0  0  0
 31 34  2  0  0  0  0
 32 35  1  0  0  0  0
 32 84  1  0  0  0  0
 33 85  1  0  0  0  0
 33 86  1  0  0  0  0
 33 87  1  0  0  0  0
 34 36  1  0  0  0  0
 34 88  1  0  0  0  0
 35 37  1  0  0  0  0
 35 38  2  0  0  0  0
 36 39  2  0  0  0  0
 36 89  1  0  0  0  0
 37 90  1  0  0  0  0
 37 91  1  0  0  0  0
 37 92  1  0  0  0  0
 38 40  1  0  0  0  0
 38 93  1  0  0  0  0
 39 41  1  0  0  0  0
 39 94  1  0  0  0  0
 40 42  2  0  0  0  0
 40 95  1  0  0  0  0
 41 43  2  0  0  0  0
 41 44  1  0  0  0  0
 42 43  1  0  0  0  0
 42 96  1  0  0  0  0
 43 97  1  0  0  0  0
 44 98  1  0  0  0  0
 44 99  1  0  0  0  0
 44100  1  0  0  0  0
M  END
>  <PUBCHEM_COMPOUND_CID>
131751400

>  <PUBCHEM_COMPOUND_CANONICALIZED>
1

>  <PUBCHEM_CACTVS_COMPLEXITY>
1360

>  <PUBCHEM_CACTVS_HBOND_ACCEPTOR>
4

>  <PUBCHEM_CACTVS_HBOND_DONOR>
2

>  <PUBCHEM_CACTVS_ROTATABLE_BOND>
11

>  <PUBCHEM_CACTVS_SUBSKEYS>
AAADcfB8OAAAAAAAAAAAAAAAAAAAAaJEAAAwAAAAAAAAAAAAAAAAGgAACAAADlSggAICAAAABgCIAqBSAAAAAAAgAAAICAEAAEgJFBIAIQACUAAFwAALoYOK7PTPgAAAAAAAAABAAAYQADCAAIAACAAAAA==

>  <PUBCHEM_IUPAC_OPENEYE_NAME>
(2E,4E,6E,8Z,10E,12E,14E,16Z,18E)-1-(4-hydroxy-1,2,2-trimethyl-cyclopentyl)-19-(3-hydroxy-3,5,5-trimethyl-7-oxabicyclo[2.2.1]heptan-4-yl)-4,8,13,17-tetramethyl-nonadeca-2,4,6,8,10,12,14,16,18-nonaen-1-one

>  <PUBCHEM_IUPAC_CAS_NAME>
(2E,4E,6E,8Z,10E,12E,14E,16Z,18E)-1-(4-hydroxy-1,2,2-trimethylcyclopentyl)-19-(3-hydroxy-3,5,5-trimethyl-7-oxabicyclo[2.2.1]heptan-4-yl)-4,8,13,17-tetramethyl-1-nonadeca-2,4,6,8,10,12,14,16,18-nonaenone

>  <PUBCHEM_IUPAC_NAME>
(2E,4E,6E,8Z,10E,12E,14E,16Z,18E)-1-(4-hydroxy-1,2,2-trimethylcyclopentyl)-19-(3-hydroxy-3,5,5-trimethyl-7-oxabicyclo[2.2.1]heptan-4-yl)-4,8,13,17-tetramethylnonadeca-2,4,6,8,10,12,14,16,18-nonaen-1-one

>  <PUBCHEM_IUPAC_SYSTEMATIC_NAME>
(2E,4E,6E,8Z,10E,12E,14E,16Z,18E)-4,8,13,17-tetramethyl-1-(1,2,2-trimethyl-4-oxidanyl-cyclopentyl)-19-(3,5,5-trimethyl-3-oxidanyl-7-oxabicyclo[2.2.1]heptan-4-yl)nonadeca-2,4,6,8,10,12,14,16,18-nonaen-1-one

>  <PUBCHEM_IUPAC_TRADITIONAL_NAME>
(2E,4E,6E,8Z,10E,12E,14E,16Z,18E)-1-(4-hydroxy-1,2,2-trimethyl-cyclopentyl)-19-(3-hydroxy-3,5,5-trimethyl-7-oxabicyclo[2.2.1]heptan-4-yl)-4,8,13,17-tetramethyl-nonadeca-2,4,6,8,10,12,14,16,18-nonaen-1-one

>  <PUBCHEM_IUPAC_INCHI>
InChI=1S/C40H56O4/c1-29(17-13-19-31(3)21-22-35(42)38(9)26-33(41)25-36(38,5)6)15-11-12-16-30(2)18-14-20-32(4)23-24-40-37(7,8)27-34(44-40)28-39(40,10)43/h11-24,33-34,41,43H,25-28H2,1-10H3/b12-11+,17-13+,18-14+,22-21+,24-23+,29-15-,30-16+,31-19+,32-20-

>  <PUBCHEM_IUPAC_INCHIKEY>
TWTPPPZIWNGQCQ-SPHDKFQHSA-N

>  <PUBCHEM_EXACT_MASS>
600.418

>  <PUBCHEM_MOLECULAR_FORMULA>
C40H56O4

>  <PUBCHEM_MOLECULAR_WEIGHT>
600.884

>  <PUBCHEM_OPENEYE_CAN_SMILES>
CC(=CC=CC=C(C)C=CC=C(C)C=CC12C(CC(O1)CC2(C)O)(C)C)C=CC=C(C)C=CC(=O)C3(CC(CC3(C)C)O)C

>  <PUBCHEM_OPENEYE_ISO_SMILES>
C/C(=C/C=C/C=C(\C)/C=C/C=C(/C)\C=C\C12C(CC(O1)CC2(C)O)(C)C)/C=C/C=C(\C)/C=C/C(=O)C3(CC(CC3(C)C)O)C

>  <PUBCHEM_CACTVS_TPSA>
66.8

>  <PUBCHEM_MONOISOTOPIC_WEIGHT>
600.418

>  <PUBCHEM_TOTAL_CHARGE>
0

>  <PUBCHEM_HEAVY_ATOM_COUNT>
44

>  <PUBCHEM_ATOM_DEF_STEREO_COUNT>
0

>  <PUBCHEM_ATOM_UDEF_STEREO_COUNT>
5

>  <PUBCHEM_BOND_DEF_STEREO_COUNT>
9

>  <PUBCHEM_BOND_UDEF_STEREO_COUNT>
0

>  <PUBCHEM_ISOTOPIC_ATOM_COUNT>
0

>  <PUBCHEM_COMPONENT_COUNT>
1

>  <PUBCHEM_CACTVS_TAUTO_COUNT>
102

>  <PUBCHEM_COORDINATE_TYPE>
1
5
255

>  <PUBCHEM_BONDANNOTATIONS>
17  23  3
7  2  3
20  3  3
5  13  3
8  9  3

$$$$
