131751038
 OpenBabel06101807152D

 59 61  0  0  1  0  0  0  0  0999 V2000
    6.8671   -0.5950    0.0000 O   0  0  0  0  0  0  0  0  0  0  0  0
    9.4651    0.9050    0.0000 O   0  0  0  0  0  0  0  0  0  0  0  0
    9.4651   -4.0950    0.0000 O   0  0  0  0  0  0  0  0  0  0  0  0
    6.0010   -4.0950    0.0000 O   0  0  0  0  0  0  0  0  0  0  0  0
    8.5991    2.4050    0.0000 O   0  0  0  0  0  0  0  0  0  0  0  0
    7.7331   -5.0950    0.0000 O   0  0  0  0  0  0  0  0  0  0  0  0
    4.2690    4.9050    0.0000 O   0  0  0  0  0  0  0  0  0  0  0  0
    2.5369    3.9050    0.0000 O   0  0  0  0  0  0  0  0  0  0  0  0
    6.8671    0.4050    0.0000 C   0  0  3  0  0  0  0  0  0  0  0  0
    7.7331    0.9050    0.0000 C   0  0  0  0  0  0  0  0  0  0  0  0
    8.5991    0.4050    0.0000 C   0  0  3  0  0  0  0  0  0  0  0  0
    8.5991   -0.5950    0.0000 C   0  0  0  0  0  0  0  0  0  0  0  0
    7.7331   -1.0950    0.0000 C   0  0  3  0  0  0  0  0  0  0  0  0
    6.0010    0.9050    0.0000 C   0  0  0  0  0  0  0  0  0  0  0  0
    7.7331   -2.0950    0.0000 C   0  0  0  0  0  0  0  0  0  0  0  0
    6.0010    1.9050    0.0000 C   0  0  0  0  0  0  0  0  0  0  0  0
    5.1350    2.4050    0.0000 C   0  0  0  0  0  0  0  0  0  0  0  0
    8.5991   -2.5950    0.0000 C   0  0  0  0  0  0  0  0  0  0  0  0
    6.8671   -2.5950    0.0000 C   0  0  0  0  0  0  0  0  0  0  0  0
    9.4651    1.9050    0.0000 C   0  0  0  0  0  0  0  0  0  0  0  0
    8.5991   -3.5950    0.0000 C   0  0  0  0  0  0  0  0  0  0  0  0
    6.8671   -3.5950    0.0000 C   0  0  0  0  0  0  0  0  0  0  0  0
    5.1350    3.4050    0.0000 C   0  0  0  0  0  0  0  0  0  0  0  0
    4.2690    1.9050    0.0000 C   0  0  0  0  0  0  0  0  0  0  0  0
    7.7331   -4.0950    0.0000 C   0  0  0  0  0  0  0  0  0  0  0  0
   10.3312    2.4050    0.0000 C   0  0  0  0  0  0  0  0  0  0  0  0
    4.2690    3.9050    0.0000 C   0  0  0  0  0  0  0  0  0  0  0  0
    3.4030    2.4050    0.0000 C   0  0  0  0  0  0  0  0  0  0  0  0
    3.4030    3.4050    0.0000 C   0  0  0  0  0  0  0  0  0  0  0  0
   10.3312   -3.5950    0.0000 C   0  0  0  0  0  0  0  0  0  0  0  0
    5.1350    5.4050    0.0000 C   0  0  0  0  0  0  0  0  0  0  0  0
    6.3301    0.0950    0.0000 H   0  0  0  0  0  0  0  0  0  0  0  0
    8.1316    1.3800    0.0000 H   0  0  0  0  0  0  0  0  0  0  0  0
    7.3346    1.3800    0.0000 H   0  0  0  0  0  0  0  0  0  0  0  0
    8.5991    1.0250    0.0000 H   0  0  0  0  0  0  0  0  0  0  0  0
    8.8112   -1.1776    0.0000 H   0  0  0  0  0  0  0  0  0  0  0  0
    9.2097   -0.4873    0.0000 H   0  0  0  0  0  0  0  0  0  0  0  0
    8.2700   -1.4050    0.0000 H   0  0  0  0  0  0  0  0  0  0  0  0
    5.3905    1.0127    0.0000 H   0  0  0  0  0  0  0  0  0  0  0  0
    5.7890    0.3224    0.0000 H   0  0  0  0  0  0  0  0  0  0  0  0
    6.6116    1.7973    0.0000 H   0  0  0  0  0  0  0  0  0  0  0  0
    6.2131    2.4876    0.0000 H   0  0  0  0  0  0  0  0  0  0  0  0
    9.1360   -2.2850    0.0000 H   0  0  0  0  0  0  0  0  0  0  0  0
    6.3301   -2.2850    0.0000 H   0  0  0  0  0  0  0  0  0  0  0  0
    5.6720    3.7150    0.0000 H   0  0  0  0  0  0  0  0  0  0  0  0
    4.2690    1.2850    0.0000 H   0  0  0  0  0  0  0  0  0  0  0  0
   10.6412    1.8681    0.0000 H   0  0  0  0  0  0  0  0  0  0  0  0
   10.8681    2.7150    0.0000 H   0  0  0  0  0  0  0  0  0  0  0  0
   10.0212    2.9419    0.0000 H   0  0  0  0  0  0  0  0  0  0  0  0
    2.8660    2.0950    0.0000 H   0  0  0  0  0  0  0  0  0  0  0  0
    5.4641   -3.7850    0.0000 H   0  0  0  0  0  0  0  0  0  0  0  0
    7.1962   -5.4050    0.0000 H   0  0  0  0  0  0  0  0  0  0  0  0
   10.6412   -4.1319    0.0000 H   0  0  0  0  0  0  0  0  0  0  0  0
   10.8681   -3.2850    0.0000 H   0  0  0  0  0  0  0  0  0  0  0  0
   10.0212   -3.0581    0.0000 H   0  0  0  0  0  0  0  0  0  0  0  0
    2.0000    3.5950    0.0000 H   0  0  0  0  0  0  0  0  0  0  0  0
    5.4450    4.8681    0.0000 H   0  0  0  0  0  0  0  0  0  0  0  0
    5.6720    5.7150    0.0000 H   0  0  0  0  0  0  0  0  0  0  0  0
    4.8250    5.9419    0.0000 H   0  0  0  0  0  0  0  0  0  0  0  0
  1  9  1  0  0  0  0
  1 13  1  0  0  0  0
  2 11  1  0  0  0  0
  2 20  1  0  0  0  0
  3 21  1  0  0  0  0
  3 30  1  0  0  0  0
  4 22  1  0  0  0  0
  4 51  1  0  0  0  0
  5 20  2  0  0  0  0
  6 25  1  0  0  0  0
  6 52  1  0  0  0  0
  7 27  1  0  0  0  0
  7 31  1  0  0  0  0
  8 29  1  0  0  0  0
  8 56  1  0  0  0  0
  9 10  1  0  0  0  0
  9 14  1  0  0  0  0
  9 32  1  0  0  0  0
 10 11  1  0  0  0  0
 10 33  1  0  0  0  0
 10 34  1  0  0  0  0
 11 12  1  0  0  0  0
 11 35  1  0  0  0  0
 12 13  1  0  0  0  0
 12 36  1  0  0  0  0
 12 37  1  0  0  0  0
 13 15  1  0  0  0  0
 13 38  1  0  0  0  0
 14 16  1  0  0  0  0
 14 39  1  0  0  0  0
 14 40  1  0  0  0  0
 15 18  1  0  0  0  0
 15 19  2  0  0  0  0
 16 17  1  0  0  0  0
 16 41  1  0  0  0  0
 16 42  1  0  0  0  0
 17 23  2  0  0  0  0
 17 24  1  0  0  0  0
 18 21  2  0  0  0  0
 18 43  1  0  0  0  0
 19 22  1  0  0  0  0
 19 44  1  0  0  0  0
 20 26  1  0  0  0  0
 21 25  1  0  0  0  0
 22 25  2  0  0  0  0
 23 27  1  0  0  0  0
 23 45  1  0  0  0  0
 24 28  2  0  0  0  0
 24 46  1  0  0  0  0
 26 47  1  0  0  0  0
 26 48  1  0  0  0  0
 26 49  1  0  0  0  0
 27 29  2  0  0  0  0
 28 29  1  0  0  0  0
 28 50  1  0  0  0  0
 30 53  1  0  0  0  0
 30 54  1  0  0  0  0
 30 55  1  0  0  0  0
 31 57  1  0  0  0  0
 31 58  1  0  0  0  0
 31 59  1  0  0  0  0
M  END
>  <PUBCHEM_COMPOUND_CID>
131751038

>  <PUBCHEM_COMPOUND_CANONICALIZED>
1

>  <PUBCHEM_CACTVS_COMPLEXITY>
572

>  <PUBCHEM_CACTVS_HBOND_ACCEPTOR>
8

>  <PUBCHEM_CACTVS_HBOND_DONOR>
3

>  <PUBCHEM_CACTVS_ROTATABLE_BOND>
8

>  <PUBCHEM_CACTVS_SUBSKEYS>
AAADceB4PAAAAAAAAAAAAAAAAAAAAAAAAAA0YIAAAAAAAAABQAAAGgAACAAADBSgmAIyDoAABgCIAiDSCAACCAAgIAAIiAAGiIgNJyKGMRqCcCMlwBULuAfA4PwOIAABCAAAQABAAAIQAACAAAAAAAAAAA==

>  <PUBCHEM_IUPAC_OPENEYE_NAME>
[2-(3,4-dihydroxy-5-methoxy-phenyl)-6-[2-(4-hydroxy-3-methoxy-phenyl)ethyl]tetrahydropyran-4-yl] acetate

>  <PUBCHEM_IUPAC_CAS_NAME>
acetic acid [2-(3,4-dihydroxy-5-methoxyphenyl)-6-[2-(4-hydroxy-3-methoxyphenyl)ethyl]-4-oxanyl] ester

>  <PUBCHEM_IUPAC_NAME>
[2-(3,4-dihydroxy-5-methoxyphenyl)-6-[2-(4-hydroxy-3-methoxyphenyl)ethyl]oxan-4-yl] acetate

>  <PUBCHEM_IUPAC_SYSTEMATIC_NAME>
[2-[3-methoxy-4,5-bis(oxidanyl)phenyl]-6-[2-(3-methoxy-4-oxidanyl-phenyl)ethyl]oxan-4-yl] ethanoate

>  <PUBCHEM_IUPAC_TRADITIONAL_NAME>
acetic acid [2-(3,4-dihydroxy-5-methoxy-phenyl)-6-homovanillyl-tetrahydropyran-4-yl] ester

>  <PUBCHEM_IUPAC_INCHI>
InChI=1S/C23H28O8/c1-13(24)30-17-11-16(6-4-14-5-7-18(25)21(8-14)28-2)31-20(12-17)15-9-19(26)23(27)22(10-15)29-3/h5,7-10,16-17,20,25-27H,4,6,11-12H2,1-3H3

>  <PUBCHEM_IUPAC_INCHIKEY>
PCHXAHPLKORHMW-UHFFFAOYSA-N

>  <PUBCHEM_EXACT_MASS>
432.178

>  <PUBCHEM_MOLECULAR_FORMULA>
C23H28O8

>  <PUBCHEM_MOLECULAR_WEIGHT>
432.469

>  <PUBCHEM_OPENEYE_CAN_SMILES>
CC(=O)OC1CC(OC(C1)C2=CC(=C(C(=C2)OC)O)O)CCC3=CC(=C(C=C3)O)OC

>  <PUBCHEM_OPENEYE_ISO_SMILES>
CC(=O)OC1CC(OC(C1)C2=CC(=C(C(=C2)OC)O)O)CCC3=CC(=C(C=C3)O)OC

>  <PUBCHEM_CACTVS_TPSA>
115

>  <PUBCHEM_MONOISOTOPIC_WEIGHT>
432.178

>  <PUBCHEM_TOTAL_CHARGE>
0

>  <PUBCHEM_HEAVY_ATOM_COUNT>
31

>  <PUBCHEM_ATOM_DEF_STEREO_COUNT>
0

>  <PUBCHEM_ATOM_UDEF_STEREO_COUNT>
3

>  <PUBCHEM_BOND_DEF_STEREO_COUNT>
0

>  <PUBCHEM_BOND_UDEF_STEREO_COUNT>
0

>  <PUBCHEM_ISOTOPIC_ATOM_COUNT>
0

>  <PUBCHEM_COMPONENT_COUNT>
1

>  <PUBCHEM_CACTVS_TAUTO_COUNT>
170

>  <PUBCHEM_COORDINATE_TYPE>
1
5
255

>  <PUBCHEM_BONDANNOTATIONS>
13  15  3
15  18  8
15  19  8
17  23  8
17  24  8
18  21  8
19  22  8
11  2  3
21  25  8
22  25  8
23  27  8
24  28  8
27  29  8
28  29  8
9  14  3

$$$$
