131751705
 OpenBabel06101807152D

100103  0  0  1  0  0  0  0  0999 V2000
    5.4646   -2.5774    0.0000 O   0  0  0  0  0  0  0  0  0  0  0  0
   20.6111    0.7604    0.0000 O   0  0  0  0  0  0  0  0  0  0  0  0
    2.0000   -3.5774    0.0000 O   0  0  0  0  0  0  0  0  0  0  0  0
   19.1478    3.9452    0.0000 O   0  0  0  0  0  0  0  0  0  0  0  0
    4.5981   -2.0774    0.0000 C   0  0  3  0  0  0  0  0  0  0  0  0
    4.5981   -3.0774    0.0000 C   0  0  3  0  0  0  0  0  0  0  0  0
    3.7320   -1.5774    0.0000 C   0  0  0  0  0  0  0  0  0  0  0  0
    3.7320   -3.5774    0.0000 C   0  0  0  0  0  0  0  0  0  0  0  0
    2.8660   -2.0774    0.0000 C   0  0  0  0  0  0  0  0  0  0  0  0
    2.8660   -3.0774    0.0000 C   0  0  3  0  0  0  0  0  0  0  0  0
   18.7409    1.4867    0.0000 C   0  0  3  0  0  0  0  0  0  0  0  0
   17.5217    0.6326    0.0000 C   0  0  0  0  0  0  0  0  0  0  0  0
   19.0433    2.9507    0.0000 C   0  0  3  0  0  0  0  0  0  0  0  0
    4.5981   -4.0774    0.0000 C   0  0  0  0  0  0  0  0  0  0  0  0
   19.3837    0.7206    0.0000 C   0  0  3  0  0  0  0  0  0  0  0  0
    5.0981   -1.2114    0.0000 C   0  0  0  0  0  0  0  0  0  0  0  0
   18.1645   -0.1335    0.0000 C   0  0  0  0  0  0  0  0  0  0  0  0
    2.8660   -1.0774    0.0000 C   0  0  0  0  0  0  0  0  0  0  0  0
    3.7320   -0.5774    0.0000 C   0  0  0  0  0  0  0  0  0  0  0  0
   20.0092    2.6919    0.0000 C   0  0  0  0  0  0  0  0  0  0  0  0
   17.0368   -0.2420    0.0000 C   0  0  0  0  0  0  0  0  0  0  0  0
   16.5218    0.6501    0.0000 C   0  0  0  0  0  0  0  0  0  0  0  0
   18.0981    2.2527    0.0000 C   0  0  0  0  0  0  0  0  0  0  0  0
   18.2142    3.5099    0.0000 C   0  0  0  0  0  0  0  0  0  0  0  0
    6.0981   -1.2114    0.0000 C   0  0  0  0  0  0  0  0  0  0  0  0
   17.0981    2.2527    0.0000 C   0  0  0  0  0  0  0  0  0  0  0  0
    6.5981   -0.3454    0.0000 C   0  0  0  0  0  0  0  0  0  0  0  0
   16.5981    3.1188    0.0000 C   0  0  0  0  0  0  0  0  0  0  0  0
    6.0981    0.5207    0.0000 C   0  0  0  0  0  0  0  0  0  0  0  0
    7.5981   -0.3454    0.0000 C   0  0  0  0  0  0  0  0  0  0  0  0
   17.0981    3.9848    0.0000 C   0  0  0  0  0  0  0  0  0  0  0  0
   15.5981    3.1188    0.0000 C   0  0  0  0  0  0  0  0  0  0  0  0
    8.0981    0.5207    0.0000 C   0  0  0  0  0  0  0  0  0  0  0  0
   15.0981    2.2527    0.0000 C   0  0  0  0  0  0  0  0  0  0  0  0
    9.0981    0.5207    0.0000 C   0  0  0  0  0  0  0  0  0  0  0  0
   14.0981    2.2527    0.0000 C   0  0  0  0  0  0  0  0  0  0  0  0
    9.5981    1.3867    0.0000 C   0  0  0  0  0  0  0  0  0  0  0  0
   13.5981    1.3867    0.0000 C   0  0  0  0  0  0  0  0  0  0  0  0
    9.0981    2.2527    0.0000 C   0  0  0  0  0  0  0  0  0  0  0  0
   10.5981    1.3867    0.0000 C   0  0  0  0  0  0  0  0  0  0  0  0
   12.5981    1.3867    0.0000 C   0  0  0  0  0  0  0  0  0  0  0  0
   14.0981    0.5207    0.0000 C   0  0  0  0  0  0  0  0  0  0  0  0
   11.0981    2.2527    0.0000 C   0  0  0  0  0  0  0  0  0  0  0  0
   12.0981    2.2527    0.0000 C   0  0  0  0  0  0  0  0  0  0  0  0
    3.3335   -4.0524    0.0000 H   0  0  0  0  0  0  0  0  0  0  0  0
    4.1306   -4.0524    0.0000 H   0  0  0  0  0  0  0  0  0  0  0  0
    2.6540   -1.4948    0.0000 H   0  0  0  0  0  0  0  0  0  0  0  0
    2.2554   -2.1851    0.0000 H   0  0  0  0  0  0  0  0  0  0  0  0
    2.8660   -3.6974    0.0000 H   0  0  0  0  0  0  0  0  0  0  0  0
    3.9781   -4.0774    0.0000 H   0  0  0  0  0  0  0  0  0  0  0  0
    4.5981   -4.6974    0.0000 H   0  0  0  0  0  0  0  0  0  0  0  0
    5.2181   -4.0774    0.0000 H   0  0  0  0  0  0  0  0  0  0  0  0
   18.8839    1.0876    0.0000 H   0  0  0  0  0  0  0  0  0  0  0  0
    4.7881   -0.6744    0.0000 H   0  0  0  0  0  0  0  0  0  0  0  0
   17.6782   -0.5181    0.0000 H   0  0  0  0  0  0  0  0  0  0  0  0
   18.5349   -0.6307    0.0000 H   0  0  0  0  0  0  0  0  0  0  0  0
   20.6029    2.5133    0.0000 H   0  0  0  0  0  0  0  0  0  0  0  0
   20.1787    3.2883    0.0000 H   0  0  0  0  0  0  0  0  0  0  0  0
    3.1760   -0.5405    0.0000 H   0  0  0  0  0  0  0  0  0  0  0  0
    4.3520   -0.5774    0.0000 H   0  0  0  0  0  0  0  0  0  0  0  0
    3.7320    0.0426    0.0000 H   0  0  0  0  0  0  0  0  0  0  0  0
    3.1120   -0.5774    0.0000 H   0  0  0  0  0  0  0  0  0  0  0  0
    2.3291   -0.7674    0.0000 H   0  0  0  0  0  0  0  0  0  0  0  0
    2.5560   -1.6143    0.0000 H   0  0  0  0  0  0  0  0  0  0  0  0
   16.4946    0.0586    0.0000 H   0  0  0  0  0  0  0  0  0  0  0  0
   16.7362   -0.7843    0.0000 H   0  0  0  0  0  0  0  0  0  0  0  0
   17.5791   -0.5427    0.0000 H   0  0  0  0  0  0  0  0  0  0  0  0
   16.5326    1.2700    0.0000 H   0  0  0  0  0  0  0  0  0  0  0  0
   15.9019    0.6609    0.0000 H   0  0  0  0  0  0  0  0  0  0  0  0
   16.5110    0.0301    0.0000 H   0  0  0  0  0  0  0  0  0  0  0  0
   18.4081    2.7897    0.0000 H   0  0  0  0  0  0  0  0  0  0  0  0
   18.5609    4.0239    0.0000 H   0  0  0  0  0  0  0  0  0  0  0  0
   17.7002    3.8566    0.0000 H   0  0  0  0  0  0  0  0  0  0  0  0
   17.8675    2.9959    0.0000 H   0  0  0  0  0  0  0  0  0  0  0  0
    2.0000   -4.1974    0.0000 H   0  0  0  0  0  0  0  0  0  0  0  0
    6.4081   -1.7483    0.0000 H   0  0  0  0  0  0  0  0  0  0  0  0
   19.7142    4.1974    0.0000 H   0  0  0  0  0  0  0  0  0  0  0  0
   16.5155    2.0406    0.0000 H   0  0  0  0  0  0  0  0  0  0  0  0
    6.6350    0.8307    0.0000 H   0  0  0  0  0  0  0  0  0  0  0  0
    5.7881    1.0576    0.0000 H   0  0  0  0  0  0  0  0  0  0  0  0
    5.5611    0.2107    0.0000 H   0  0  0  0  0  0  0  0  0  0  0  0
    7.9081   -0.8823    0.0000 H   0  0  0  0  0  0  0  0  0  0  0  0
   17.6350    3.6748    0.0000 H   0  0  0  0  0  0  0  0  0  0  0  0
   17.4081    4.5217    0.0000 H   0  0  0  0  0  0  0  0  0  0  0  0
   16.5611    4.2948    0.0000 H   0  0  0  0  0  0  0  0  0  0  0  0
   15.2881    3.6557    0.0000 H   0  0  0  0  0  0  0  0  0  0  0  0
    7.7881    1.0576    0.0000 H   0  0  0  0  0  0  0  0  0  0  0  0
   15.4081    1.7158    0.0000 H   0  0  0  0  0  0  0  0  0  0  0  0
    9.4081   -0.0163    0.0000 H   0  0  0  0  0  0  0  0  0  0  0  0
   13.7881    2.7897    0.0000 H   0  0  0  0  0  0  0  0  0  0  0  0
    9.6350    2.5627    0.0000 H   0  0  0  0  0  0  0  0  0  0  0  0
    8.7881    2.7897    0.0000 H   0  0  0  0  0  0  0  0  0  0  0  0
    8.5611    1.9427    0.0000 H   0  0  0  0  0  0  0  0  0  0  0  0
   10.9081    0.8498    0.0000 H   0  0  0  0  0  0  0  0  0  0  0  0
   12.2881    0.8498    0.0000 H   0  0  0  0  0  0  0  0  0  0  0  0
   13.5611    0.2107    0.0000 H   0  0  0  0  0  0  0  0  0  0  0  0
   14.4081   -0.0163    0.0000 H   0  0  0  0  0  0  0  0  0  0  0  0
   14.6350    0.8307    0.0000 H   0  0  0  0  0  0  0  0  0  0  0  0
   10.7881    2.7897    0.0000 H   0  0  0  0  0  0  0  0  0  0  0  0
   12.4081    2.7897    0.0000 H   0  0  0  0  0  0  0  0  0  0  0  0
  1  5  1  0  0  0  0
  1  6  1  0  0  0  0
  2 11  1  0  0  0  0
  2 15  1  0  0  0  0
  3 10  1  0  0  0  0
  3 75  1  0  0  0  0
  4 13  1  0  0  0  0
  4 77  1  0  0  0  0
  5  6  1  0  0  0  0
  5  7  1  0  0  0  0
  5 16  1  0  0  0  0
  6  8  1  0  0  0  0
  6 14  1  0  0  0  0
  7  9  1  0  0  0  0
  7 18  1  0  0  0  0
  7 19  1  0  0  0  0
  8 10  1  0  0  0  0
  8 45  1  0  0  0  0
  8 46  1  0  0  0  0
  9 10  1  0  0  0  0
  9 47  1  0  0  0  0
  9 48  1  0  0  0  0
 10 49  1  0  0  0  0
 11 12  1  0  0  0  0
 11 13  1  0  0  0  0
 11 23  1  0  0  0  0
 12 17  1  0  0  0  0
 12 21  1  0  0  0  0
 12 22  1  0  0  0  0
 13 20  1  0  0  0  0
 13 24  1  0  0  0  0
 14 50  1  0  0  0  0
 14 51  1  0  0  0  0
 14 52  1  0  0  0  0
 15 17  1  0  0  0  0
 15 20  1  0  0  0  0
 15 53  1  0  0  0  0
 16 25  2  0  0  0  0
 16 54  1  0  0  0  0
 17 55  1  0  0  0  0
 17 56  1  0  0  0  0
 18 59  1  0  0  0  0
 18 63  1  0  0  0  0
 18 64  1  0  0  0  0
 19 60  1  0  0  0  0
 19 61  1  0  0  0  0
 19 62  1  0  0  0  0
 20 57  1  0  0  0  0
 20 58  1  0  0  0  0
 21 65  1  0  0  0  0
 21 66  1  0  0  0  0
 21 67  1  0  0  0  0
 22 68  1  0  0  0  0
 22 69  1  0  0  0  0
 22 70  1  0  0  0  0
 23 26  2  0  0  0  0
 23 71  1  0  0  0  0
 24 72  1  0  0  0  0
 24 73  1  0  0  0  0
 24 74  1  0  0  0  0
 25 27  1  0  0  0  0
 25 76  1  0  0  0  0
 26 28  1  0  0  0  0
 26 78  1  0  0  0  0
 27 29  1  0  0  0  0
 27 30  2  0  0  0  0
 28 31  1  0  0  0  0
 28 32  2  0  0  0  0
 29 79  1  0  0  0  0
 29 80  1  0  0  0  0
 29 81  1  0  0  0  0
 30 33  1  0  0  0  0
 30 82  1  0  0  0  0
 31 83  1  0  0  0  0
 31 84  1  0  0  0  0
 31 85  1  0  0  0  0
 32 34  1  0  0  0  0
 32 86  1  0  0  0  0
 33 35  2  0  0  0  0
 33 87  1  0  0  0  0
 34 36  2  0  0  0  0
 34 88  1  0  0  0  0
 35 37  1  0  0  0  0
 35 89  1  0  0  0  0
 36 38  1  0  0  0  0
 36 90  1  0  0  0  0
 37 39  1  0  0  0  0
 37 40  2  0  0  0  0
 38 41  2  0  0  0  0
 38 42  1  0  0  0  0
 39 91  1  0  0  0  0
 39 92  1  0  0  0  0
 39 93  1  0  0  0  0
 40 43  1  0  0  0  0
 40 94  1  0  0  0  0
 41 44  1  0  0  0  0
 41 95  1  0  0  0  0
 42 96  1  0  0  0  0
 42 97  1  0  0  0  0
 42 98  1  0  0  0  0
 43 44  2  0  0  0  0
 43 99  1  0  0  0  0
 44100  1  0  0  0  0
M  END
>  <PUBCHEM_COMPOUND_CID>
131751705

>  <PUBCHEM_COMPOUND_CANONICALIZED>
1

>  <PUBCHEM_CACTVS_COMPLEXITY>
1380

>  <PUBCHEM_CACTVS_HBOND_ACCEPTOR>
4

>  <PUBCHEM_CACTVS_HBOND_DONOR>
2

>  <PUBCHEM_CACTVS_ROTATABLE_BOND>
10

>  <PUBCHEM_CACTVS_SUBSKEYS>
AAADcfB8OAAAAAAAAAAAAAAAEgAAASJAAAAwYAAABIAAAAAAAAAAGgAACAAADlSggAICAAAABgCAAiBCAAAAAAAgAAAICAAAAAgJFAIAIQACUAAFwAALoAPA4PQPgAAAAAAAAABCAAYQADCAAAAAAAAAAA==

>  <PUBCHEM_IUPAC_OPENEYE_NAME>
6-[(1E,3E,5E,7E,9Z,11Z,13E,15Z,17E)-18-(3-hydroxy-3,5,5-trimethyl-7-oxabicyclo[2.2.1]heptan-4-yl)-3,7,12,16-tetramethyl-octadeca-1,3,5,7,9,11,13,15,17-nonaenyl]-1,5,5-trimethyl-7-oxabicyclo[4.1.0]heptan-3-ol

>  <PUBCHEM_IUPAC_CAS_NAME>
6-[(1E,3E,5E,7E,9Z,11Z,13E,15Z,17E)-18-(3-hydroxy-3,5,5-trimethyl-7-oxabicyclo[2.2.1]heptan-4-yl)-3,7,12,16-tetramethyloctadeca-1,3,5,7,9,11,13,15,17-nonaenyl]-1,5,5-trimethyl-7-oxabicyclo[4.1.0]heptan-3-ol

>  <PUBCHEM_IUPAC_NAME>
6-[(1E,3E,5E,7E,9Z,11Z,13E,15Z,17E)-18-(3-hydroxy-3,5,5-trimethyl-7-oxabicyclo[2.2.1]heptan-4-yl)-3,7,12,16-tetramethyloctadeca-1,3,5,7,9,11,13,15,17-nonaenyl]-1,5,5-trimethyl-7-oxabicyclo[4.1.0]heptan-3-ol

>  <PUBCHEM_IUPAC_SYSTEMATIC_NAME>
1,5,5-trimethyl-6-[(1E,3E,5E,7E,9Z,11Z,13E,15Z,17E)-3,7,12,16-tetramethyl-18-(3,5,5-trimethyl-3-oxidanyl-7-oxabicyclo[2.2.1]heptan-4-yl)octadeca-1,3,5,7,9,11,13,15,17-nonaenyl]-7-oxabicyclo[4.1.0]heptan-3-ol

>  <PUBCHEM_IUPAC_TRADITIONAL_NAME>
6-[(1E,3E,5E,7E,9Z,11Z,13E,15Z,17E)-18-(3-hydroxy-3,5,5-trimethyl-7-oxabicyclo[2.2.1]heptan-4-yl)-3,7,12,16-tetramethyl-octadeca-1,3,5,7,9,11,13,15,17-nonaenyl]-1,5,5-trimethyl-7-oxabicyclo[4.1.0]heptan-3-ol

>  <PUBCHEM_IUPAC_INCHI>
InChI=1S/C40H56O4/c1-29(17-13-19-31(3)21-23-39-36(7,8)27-34(43-39)28-37(39,9)42)15-11-12-16-30(2)18-14-20-32(4)22-24-40-35(5,6)25-33(41)26-38(40,10)44-40/h11-24,33-34,41-42H,25-28H2,1-10H3/b12-11-,17-13+,18-14+,23-21+,24-22+,29-15-,30-16+,31-19-,32-20+

>  <PUBCHEM_IUPAC_INCHIKEY>
WBXYNQBROQPCES-CIGGGVHVSA-N

>  <PUBCHEM_EXACT_MASS>
600.418

>  <PUBCHEM_MOLECULAR_FORMULA>
C40H56O4

>  <PUBCHEM_MOLECULAR_WEIGHT>
600.884

>  <PUBCHEM_OPENEYE_CAN_SMILES>
CC(=CC=CC=C(C)C=CC=C(C)C=CC12C(CC(O1)CC2(C)O)(C)C)C=CC=C(C)C=CC34C(CC(CC3(O4)C)O)(C)C

>  <PUBCHEM_OPENEYE_ISO_SMILES>
C/C(=C\C=C/C=C(/C)\C=C\C=C(\C)/C=C/C12C(CC(O1)CC2(C)O)(C)C)/C=C/C=C(\C)/C=C/C34C(CC(CC3(O4)C)O)(C)C

>  <PUBCHEM_CACTVS_TPSA>
62.2

>  <PUBCHEM_MONOISOTOPIC_WEIGHT>
600.418

>  <PUBCHEM_TOTAL_CHARGE>
0

>  <PUBCHEM_HEAVY_ATOM_COUNT>
44

>  <PUBCHEM_ATOM_DEF_STEREO_COUNT>
0

>  <PUBCHEM_ATOM_UDEF_STEREO_COUNT>
6

>  <PUBCHEM_BOND_DEF_STEREO_COUNT>
9

>  <PUBCHEM_BOND_UDEF_STEREO_COUNT>
0

>  <PUBCHEM_ISOTOPIC_ATOM_COUNT>
0

>  <PUBCHEM_COMPONENT_COUNT>
1

>  <PUBCHEM_CACTVS_TAUTO_COUNT>
50

>  <PUBCHEM_COORDINATE_TYPE>
1
5
255

>  <PUBCHEM_BONDANNOTATIONS>
11  23  3
15  17  3
10  3  3
13  4  3
5  16  3
6  14  3

$$$$
