131751509
 OpenBabel06101807152D

 71 75  0  0  1  0  0  0  0  0999 V2000
    5.1350   -4.2785    0.0000 O   0  0  0  0  0  0  0  0  0  0  0  0
    9.5102    4.2806    0.0000 O   0  0  0  0  0  0  0  0  0  0  0  0
    6.8671   -4.2785    0.0000 O   0  0  0  0  0  0  0  0  0  0  0  0
    3.4030   -6.2785    0.0000 O   0  0  0  0  0  0  0  0  0  0  0  0
    5.1350   -7.2785    0.0000 O   0  0  0  0  0  0  0  0  0  0  0  0
   11.2500    6.2739    0.0000 O   0  0  0  0  0  0  0  0  0  0  0  0
    9.5218    7.2806    0.0000 O   0  0  0  0  0  0  0  0  0  0  0  0
    7.7782    4.2873    0.0000 O   0  0  0  0  0  0  0  0  0  0  0  0
    6.8671   -6.2785    0.0000 O   0  0  0  0  0  0  0  0  0  0  0  0
    7.7859    6.2873    0.0000 O   0  0  0  0  0  0  0  0  0  0  0  0
    2.5369   -4.7785    0.0000 O   0  0  0  0  0  0  0  0  0  0  0  0
   12.1102    4.7706    0.0000 O   0  0  0  0  0  0  0  0  0  0  0  0
    8.6230   -1.2160    0.0000 O   0  0  0  0  0  0  0  0  0  0  0  0
    6.0308    0.2940    0.0000 O   0  0  0  0  0  0  0  0  0  0  0  0
    4.2690   -5.7785    0.0000 C   0  0  3  0  0  0  0  0  0  0  0  0
    5.1350   -6.2785    0.0000 C   0  0  3  0  0  0  0  0  0  0  0  0
   10.3820    5.7773    0.0000 C   0  0  3  0  0  0  0  0  0  0  0  0
    9.5180    6.2806    0.0000 C   0  0  3  0  0  0  0  0  0  0  0  0
    4.2690   -4.7785    0.0000 C   0  0  3  0  0  0  0  0  0  0  0  0
    6.0010   -5.7785    0.0000 C   0  0  3  0  0  0  0  0  0  0  0  0
   10.3782    4.7773    0.0000 C   0  0  3  0  0  0  0  0  0  0  0  0
    8.6500    5.7839    0.0000 C   0  0  3  0  0  0  0  0  0  0  0  0
    6.0010   -4.7785    0.0000 C   0  0  3  0  0  0  0  0  0  0  0  0
    8.6462    4.7840    0.0000 C   0  0  3  0  0  0  0  0  0  0  0  0
    3.4030   -4.2785    0.0000 C   0  0  0  0  0  0  0  0  0  0  0  0
   11.2423    4.2739    0.0000 C   0  0  0  0  0  0  0  0  0  0  0  0
    6.8671   -3.2785    0.0000 C   0  0  0  0  0  0  0  0  0  0  0  0
    7.7744    3.2873    0.0000 C   0  0  0  0  0  0  0  0  0  0  0  0
    7.7671   -2.7542    0.0000 C   0  0  0  0  0  0  0  0  0  0  0  0
    5.9670   -2.7542    0.0000 C   0  0  0  0  0  0  0  0  0  0  0  0
    6.9064    2.7906    0.0000 C   0  0  0  0  0  0  0  0  0  0  0  0
    8.6384    2.7840    0.0000 C   0  0  0  0  0  0  0  0  0  0  0  0
    7.7551   -1.7127    0.0000 C   0  0  0  0  0  0  0  0  0  0  0  0
    6.8910   -1.2093    0.0000 C   0  0  0  0  0  0  0  0  0  0  0  0
    7.7666    1.2873    0.0000 C   0  0  0  0  0  0  0  0  0  0  0  0
    5.9790   -1.7127    0.0000 C   0  0  0  0  0  0  0  0  0  0  0  0
    7.7628    0.2873    0.0000 C   0  0  0  0  0  0  0  0  0  0  0  0
    6.9026    1.7906    0.0000 C   0  0  0  0  0  0  0  0  0  0  0  0
    8.6346    1.7840    0.0000 C   0  0  0  0  0  0  0  0  0  0  0  0
    6.8948   -0.2093    0.0000 C   0  0  0  0  0  0  0  0  0  0  0  0
    8.6269   -0.2160    0.0000 C   0  0  0  0  0  0  0  0  0  0  0  0
    4.2690   -6.3985    0.0000 H   0  0  0  0  0  0  0  0  0  0  0  0
    4.5981   -6.5885    0.0000 H   0  0  0  0  0  0  0  0  0  0  0  0
   10.9178    5.4652    0.0000 H   0  0  0  0  0  0  0  0  0  0  0  0
    8.9822    6.5927    0.0000 H   0  0  0  0  0  0  0  0  0  0  0  0
    4.2690   -4.1585    0.0000 H   0  0  0  0  0  0  0  0  0  0  0  0
    6.0010   -6.3985    0.0000 H   0  0  0  0  0  0  0  0  0  0  0  0
   10.3758    4.1573    0.0000 H   0  0  0  0  0  0  0  0  0  0  0  0
    8.1119    5.4760    0.0000 H   0  0  0  0  0  0  0  0  0  0  0  0
    6.0010   -4.1585    0.0000 H   0  0  0  0  0  0  0  0  0  0  0  0
    8.6438    4.1640    0.0000 H   0  0  0  0  0  0  0  0  0  0  0  0
    3.8015   -3.8036    0.0000 H   0  0  0  0  0  0  0  0  0  0  0  0
    3.0044   -3.8036    0.0000 H   0  0  0  0  0  0  0  0  0  0  0  0
   10.8419    3.8005    0.0000 H   0  0  0  0  0  0  0  0  0  0  0  0
   11.6390    3.7975    0.0000 H   0  0  0  0  0  0  0  0  0  0  0  0
    3.4030   -6.8985    0.0000 H   0  0  0  0  0  0  0  0  0  0  0  0
    4.5981   -7.5885    0.0000 H   0  0  0  0  0  0  0  0  0  0  0  0
   11.2524    6.8939    0.0000 H   0  0  0  0  0  0  0  0  0  0  0  0
   10.0599    7.5885    0.0000 H   0  0  0  0  0  0  0  0  0  0  0  0
    6.8671   -6.8985    0.0000 H   0  0  0  0  0  0  0  0  0  0  0  0
    7.7883    6.9073    0.0000 H   0  0  0  0  0  0  0  0  0  0  0  0
    2.0000   -4.4685    0.0000 H   0  0  0  0  0  0  0  0  0  0  0  0
   12.6460    4.4585    0.0000 H   0  0  0  0  0  0  0  0  0  0  0  0
    8.3064   -3.0601    0.0000 H   0  0  0  0  0  0  0  0  0  0  0  0
    5.4277   -3.0601    0.0000 H   0  0  0  0  0  0  0  0  0  0  0  0
    6.3707    3.1027    0.0000 H   0  0  0  0  0  0  0  0  0  0  0  0
    9.1766    3.0919    0.0000 H   0  0  0  0  0  0  0  0  0  0  0  0
    5.4470   -1.3944    0.0000 H   0  0  0  0  0  0  0  0  0  0  0  0
    6.3644    1.4827    0.0000 H   0  0  0  0  0  0  0  0  0  0  0  0
    9.1703    1.4719    0.0000 H   0  0  0  0  0  0  0  0  0  0  0  0
    9.1650    0.0919    0.0000 H   0  0  0  0  0  0  0  0  0  0  0  0
  1 19  1  0  0  0  0
  1 23  1  0  0  0  0
  2 21  1  0  0  0  0
  2 24  1  0  0  0  0
  3 23  1  0  0  0  0
  3 27  1  0  0  0  0
  4 15  1  0  0  0  0
  4 56  1  0  0  0  0
  5 16  1  0  0  0  0
  5 57  1  0  0  0  0
  6 17  1  0  0  0  0
  6 58  1  0  0  0  0
  7 18  1  0  0  0  0
  7 59  1  0  0  0  0
  8 24  1  0  0  0  0
  8 28  1  0  0  0  0
  9 20  1  0  0  0  0
  9 60  1  0  0  0  0
 10 22  1  0  0  0  0
 10 61  1  0  0  0  0
 11 25  1  0  0  0  0
 11 62  1  0  0  0  0
 12 26  1  0  0  0  0
 12 63  1  0  0  0  0
 13 33  1  0  0  0  0
 13 41  1  0  0  0  0
 14 40  2  0  0  0  0
 15 16  1  0  0  0  0
 15 19  1  0  0  0  0
 15 42  1  0  0  0  0
 16 20  1  0  0  0  0
 16 43  1  0  0  0  0
 17 18  1  0  0  0  0
 17 21  1  0  0  0  0
 17 44  1  0  0  0  0
 18 22  1  0  0  0  0
 18 45  1  0  0  0  0
 19 25  1  0  0  0  0
 19 46  1  0  0  0  0
 20 23  1  0  0  0  0
 20 47  1  0  0  0  0
 21 26  1  0  0  0  0
 21 48  1  0  0  0  0
 22 24  1  0  0  0  0
 22 49  1  0  0  0  0
 23 50  1  0  0  0  0
 24 51  1  0  0  0  0
 25 52  1  0  0  0  0
 25 53  1  0  0  0  0
 26 54  1  0  0  0  0
 26 55  1  0  0  0  0
 27 29  2  0  0  0  0
 27 30  1  0  0  0  0
 28 31  2  0  0  0  0
 28 32  1  0  0  0  0
 29 33  1  0  0  0  0
 29 64  1  0  0  0  0
 30 36  2  0  0  0  0
 30 65  1  0  0  0  0
 31 38  1  0  0  0  0
 31 66  1  0  0  0  0
 32 39  2  0  0  0  0
 32 67  1  0  0  0  0
 33 34  2  0  0  0  0
 34 36  1  0  0  0  0
 34 40  1  0  0  0  0
 35 37  1  0  0  0  0
 35 38  2  0  0  0  0
 35 39  1  0  0  0  0
 36 68  1  0  0  0  0
 37 40  1  0  0  0  0
 37 41  2  0  0  0  0
 38 69  1  0  0  0  0
 39 70  1  0  0  0  0
 41 71  1  0  0  0  0
M  END
>  <PUBCHEM_COMPOUND_CID>
131751509

>  <PUBCHEM_COMPOUND_CANONICALIZED>
1

>  <PUBCHEM_CACTVS_COMPLEXITY>
924

>  <PUBCHEM_CACTVS_HBOND_ACCEPTOR>
14

>  <PUBCHEM_CACTVS_HBOND_DONOR>
8

>  <PUBCHEM_CACTVS_ROTATABLE_BOND>
7

>  <PUBCHEM_CACTVS_SUBSKEYS>
AAADceB4PAAAAAAAAAAAAAAAAAAAAAAAAAA0aIECAAAAAACBQAAAGgAACAAADBSwmAMwDoAABgCIAqBSAAACCAAkIAAIiAEGCMgdNzaENRqieWCl4BUPqYfI7PzOIAAACAAIAABAAAAQABAAAAAAAAAAAA==

>  <PUBCHEM_IUPAC_OPENEYE_NAME>
7-[3,4,5-trihydroxy-6-(hydroxymethyl)tetrahydropyran-2-yl]oxy-3-[4-[3,4,5-trihydroxy-6-(hydroxymethyl)tetrahydropyran-2-yl]oxyphenyl]chromen-4-one

>  <PUBCHEM_IUPAC_CAS_NAME>
7-[[3,4,5-trihydroxy-6-(hydroxymethyl)-2-oxanyl]oxy]-3-[4-[[3,4,5-trihydroxy-6-(hydroxymethyl)-2-oxanyl]oxy]phenyl]-1-benzopyran-4-one

>  <PUBCHEM_IUPAC_NAME>
7-[3,4,5-trihydroxy-6-(hydroxymethyl)oxan-2-yl]oxy-3-[4-[3,4,5-trihydroxy-6-(hydroxymethyl)oxan-2-yl]oxyphenyl]chromen-4-one

>  <PUBCHEM_IUPAC_SYSTEMATIC_NAME>
7-[6-(hydroxymethyl)-3,4,5-tris(oxidanyl)oxan-2-yl]oxy-3-[4-[6-(hydroxymethyl)-3,4,5-tris(oxidanyl)oxan-2-yl]oxyphenyl]chromen-4-one

>  <PUBCHEM_IUPAC_TRADITIONAL_NAME>
7-(3,4,5-trihydroxy-6-methylol-tetrahydropyran-2-yl)oxy-3-[4-(3,4,5-trihydroxy-6-methylol-tetrahydropyran-2-yl)oxyphenyl]chromone

>  <PUBCHEM_IUPAC_INCHI>
InChI=1S/C27H30O14/c28-8-17-20(31)22(33)24(35)26(40-17)38-12-3-1-11(2-4-12)15-10-37-16-7-13(5-6-14(16)19(15)30)39-27-25(36)23(34)21(32)18(9-29)41-27/h1-7,10,17-18,20-29,31-36H,8-9H2

>  <PUBCHEM_IUPAC_INCHIKEY>
VWEWSCDQMVNOJP-UHFFFAOYSA-N

>  <PUBCHEM_EXACT_MASS>
578.164

>  <PUBCHEM_MOLECULAR_FORMULA>
C27H30O14

>  <PUBCHEM_MOLECULAR_WEIGHT>
578.523

>  <PUBCHEM_OPENEYE_CAN_SMILES>
C1=CC(=CC=C1C2=COC3=C(C2=O)C=CC(=C3)OC4C(C(C(C(O4)CO)O)O)O)OC5C(C(C(C(O5)CO)O)O)O

>  <PUBCHEM_OPENEYE_ISO_SMILES>
C1=CC(=CC=C1C2=COC3=C(C2=O)C=CC(=C3)OC4C(C(C(C(O4)CO)O)O)O)OC5C(C(C(C(O5)CO)O)O)O

>  <PUBCHEM_CACTVS_TPSA>
225

>  <PUBCHEM_MONOISOTOPIC_WEIGHT>
578.164

>  <PUBCHEM_TOTAL_CHARGE>
0

>  <PUBCHEM_HEAVY_ATOM_COUNT>
41

>  <PUBCHEM_ATOM_DEF_STEREO_COUNT>
0

>  <PUBCHEM_ATOM_UDEF_STEREO_COUNT>
10

>  <PUBCHEM_BOND_DEF_STEREO_COUNT>
0

>  <PUBCHEM_BOND_UDEF_STEREO_COUNT>
0

>  <PUBCHEM_ISOTOPIC_ATOM_COUNT>
0

>  <PUBCHEM_COMPONENT_COUNT>
1

>  <PUBCHEM_CACTVS_TAUTO_COUNT>
1

>  <PUBCHEM_COORDINATE_TYPE>
1
5
255

>  <PUBCHEM_BONDANNOTATIONS>
22  10  3
13  33  8
13  41  8
19  25  3
21  26  3
27  29  8
27  30  8
28  31  8
28  32  8
29  33  8
23  3  3
30  36  8
31  38  8
32  39  8
33  34  8
34  36  8
34  40  8
35  38  8
35  39  8
37  40  8
37  41  8
15  4  3
16  5  3
17  6  3
18  7  3
24  8  3
20  9  3

$$$$
