131752859
 OpenBabel06101807152D

 43 43  0  0  1  0  0  0  0  0999 V2000
    7.6962    1.4715    0.0000 O   0  0  0  0  0  0  0  0  0  0  0  0
    6.3301    0.8375    0.0000 O   0  0  0  0  0  0  0  0  0  0  0  0
    8.9282    2.3375    0.0000 O   0  0  0  0  0  0  0  0  0  0  0  0
    5.4641    3.3375    0.0000 O   0  0  0  0  0  0  0  0  0  0  0  0
    8.7050    3.6035    0.0000 O   0  0  0  0  0  0  0  0  0  0  0  0
    6.6962    4.9356    0.0000 O   0  0  0  0  0  0  0  0  0  0  0  0
    4.5981    1.8375    0.0000 O   0  0  0  0  0  0  0  0  0  0  0  0
    7.9622    4.7123    0.0000 O   0  0  0  0  0  0  0  0  0  0  0  0
    4.5981    0.8375    0.0000 O   0  0  0  0  0  0  0  0  0  0  0  0
    2.8660   -4.1625    0.0000 O   0  0  0  0  0  0  0  0  0  0  0  0
    4.5981   -5.1625    0.0000 O   0  0  0  0  0  0  0  0  0  0  0  0
    7.1962    2.3375    0.0000 C   0  0  3  0  0  0  0  0  0  0  0  0
    6.3301    1.8375    0.0000 C   0  0  3  0  0  0  0  0  0  0  0  0
    6.6962    3.2035    0.0000 C   0  0  0  0  0  0  0  0  0  0  0  0
    8.0622    2.8375    0.0000 C   0  0  0  0  0  0  0  0  0  0  0  0
    5.4641    2.3375    0.0000 C   0  0  0  0  0  0  0  0  0  0  0  0
    7.1962    4.0695    0.0000 C   0  0  0  0  0  0  0  0  0  0  0  0
    5.4641    0.3375    0.0000 C   0  0  0  0  0  0  0  0  0  0  0  0
    5.4641   -0.6625    0.0000 C   0  0  0  0  0  0  0  0  0  0  0  0
    4.5981   -2.1625    0.0000 C   0  0  0  0  0  0  0  0  0  0  0  0
    4.5981   -1.1625    0.0000 C   0  0  0  0  0  0  0  0  0  0  0  0
    3.7320   -2.6625    0.0000 C   0  0  0  0  0  0  0  0  0  0  0  0
    5.4641   -2.6625    0.0000 C   0  0  0  0  0  0  0  0  0  0  0  0
    3.7320   -3.6625    0.0000 C   0  0  0  0  0  0  0  0  0  0  0  0
    4.5981   -4.1625    0.0000 C   0  0  0  0  0  0  0  0  0  0  0  0
    5.4641   -3.6625    0.0000 C   0  0  0  0  0  0  0  0  0  0  0  0
    2.0000   -3.6625    0.0000 C   0  0  0  0  0  0  0  0  0  0  0  0
    6.8671    1.5275    0.0000 H   0  0  0  0  0  0  0  0  0  0  0  0
    6.2212    3.6020    0.0000 H   0  0  0  0  0  0  0  0  0  0  0  0
    6.2212    2.8050    0.0000 H   0  0  0  0  0  0  0  0  0  0  0  0
    8.3162    1.4715    0.0000 H   0  0  0  0  0  0  0  0  0  0  0  0
    9.4651    2.6475    0.0000 H   0  0  0  0  0  0  0  0  0  0  0  0
    6.0010   -0.9725    0.0000 H   0  0  0  0  0  0  0  0  0  0  0  0
    4.9272    3.6475    0.0000 H   0  0  0  0  0  0  0  0  0  0  0  0
    4.0611   -0.8525    0.0000 H   0  0  0  0  0  0  0  0  0  0  0  0
    7.0062    5.4725    0.0000 H   0  0  0  0  0  0  0  0  0  0  0  0
    3.1951   -2.3525    0.0000 H   0  0  0  0  0  0  0  0  0  0  0  0
    6.0010   -2.3525    0.0000 H   0  0  0  0  0  0  0  0  0  0  0  0
    6.0010   -3.9725    0.0000 H   0  0  0  0  0  0  0  0  0  0  0  0
    5.1350   -5.4725    0.0000 H   0  0  0  0  0  0  0  0  0  0  0  0
    2.3100   -3.1256    0.0000 H   0  0  0  0  0  0  0  0  0  0  0  0
    1.4631   -3.3525    0.0000 H   0  0  0  0  0  0  0  0  0  0  0  0
    1.6900   -4.1994    0.0000 H   0  0  0  0  0  0  0  0  0  0  0  0
  1 12  1  0  0  0  0
  1 31  1  0  0  0  0
  2 13  1  0  0  0  0
  2 18  1  0  0  0  0
  3 15  1  0  0  0  0
  3 32  1  0  0  0  0
  4 16  1  0  0  0  0
  4 34  1  0  0  0  0
  5 15  2  0  0  0  0
  6 17  1  0  0  0  0
  6 36  1  0  0  0  0
  7 16  2  0  0  0  0
  8 17  2  0  0  0  0
  9 18  2  0  0  0  0
 10 24  1  0  0  0  0
 10 27  1  0  0  0  0
 11 25  1  0  0  0  0
 11 40  1  0  0  0  0
 12 13  1  0  0  0  0
 12 14  1  0  0  0  0
 12 15  1  0  0  0  0
 13 16  1  0  0  0  0
 13 28  1  0  0  0  0
 14 17  1  0  0  0  0
 14 29  1  0  0  0  0
 14 30  1  0  0  0  0
 18 19  1  0  0  0  0
 19 21  2  0  0  0  0
 19 33  1  0  0  0  0
 20 21  1  0  0  0  0
 20 22  2  0  0  0  0
 20 23  1  0  0  0  0
 21 35  1  0  0  0  0
 22 24  1  0  0  0  0
 22 37  1  0  0  0  0
 23 26  2  0  0  0  0
 23 38  1  0  0  0  0
 24 25  2  0  0  0  0
 25 26  1  0  0  0  0
 26 39  1  0  0  0  0
 27 41  1  0  0  0  0
 27 42  1  0  0  0  0
 27 43  1  0  0  0  0
M  END
>  <PUBCHEM_COMPOUND_CID>
131752859

>  <PUBCHEM_COMPOUND_CANONICALIZED>
1

>  <PUBCHEM_CACTVS_COMPLEXITY>
614

>  <PUBCHEM_CACTVS_HBOND_ACCEPTOR>
11

>  <PUBCHEM_CACTVS_HBOND_DONOR>
5

>  <PUBCHEM_CACTVS_ROTATABLE_BOND>
10

>  <PUBCHEM_CACTVS_SUBSKEYS>
AAADceB4PAAAAAAAAAAAAAAAAAAAAAAAAAAwAAAAAAAAAAABAAAAGgAACAAADFSgmAIyDoAABgCIAiDSCAICCAAgIAAIiAFGiMgNJjaGMR6CcCMl4BELuYfL5hAOIAABAAAAQABAAAIAAACAAAAAAAAAAA==

>  <PUBCHEM_IUPAC_OPENEYE_NAME>
2-hydroxy-1-[(E)-3-(4-hydroxy-3-methoxy-phenyl)prop-2-enoyl]oxy-propane-1,2,3-tricarboxylic acid

>  <PUBCHEM_IUPAC_CAS_NAME>
2-hydroxy-1-[(E)-3-(4-hydroxy-3-methoxyphenyl)-1-oxoprop-2-enoxy]propane-1,2,3-tricarboxylic acid

>  <PUBCHEM_IUPAC_NAME>
2-hydroxy-1-[(E)-3-(4-hydroxy-3-methoxyphenyl)prop-2-enoyl]oxypropane-1,2,3-tricarboxylic acid

>  <PUBCHEM_IUPAC_SYSTEMATIC_NAME>
1-[(E)-3-(3-methoxy-4-oxidanyl-phenyl)prop-2-enoyl]oxy-2-oxidanyl-propane-1,2,3-tricarboxylic acid

>  <PUBCHEM_IUPAC_TRADITIONAL_NAME>
2-hydroxy-1-[(E)-3-(4-hydroxy-3-methoxy-phenyl)acryloyl]oxy-propane-1,2,3-tricarboxylic acid

>  <PUBCHEM_IUPAC_INCHI>
InChI=1S/C16H16O11/c1-26-10-6-8(2-4-9(10)17)3-5-12(20)27-13(14(21)22)16(25,15(23)24)7-11(18)19/h2-6,13,17,25H,7H2,1H3,(H,18,19)(H,21,22)(H,23,24)/b5-3+

>  <PUBCHEM_IUPAC_INCHIKEY>
QAEWENIBBUMYIB-HWKANZROSA-N

>  <PUBCHEM_EXACT_MASS>
384.069

>  <PUBCHEM_MOLECULAR_FORMULA>
C16H16O11

>  <PUBCHEM_MOLECULAR_WEIGHT>
384.293

>  <PUBCHEM_OPENEYE_CAN_SMILES>
COC1=C(C=CC(=C1)C=CC(=O)OC(C(=O)O)C(CC(=O)O)(C(=O)O)O)O

>  <PUBCHEM_OPENEYE_ISO_SMILES>
COC1=C(C=CC(=C1)/C=C/C(=O)OC(C(=O)O)C(CC(=O)O)(C(=O)O)O)O

>  <PUBCHEM_CACTVS_TPSA>
188

>  <PUBCHEM_MONOISOTOPIC_WEIGHT>
384.069

>  <PUBCHEM_TOTAL_CHARGE>
0

>  <PUBCHEM_HEAVY_ATOM_COUNT>
27

>  <PUBCHEM_ATOM_DEF_STEREO_COUNT>
0

>  <PUBCHEM_ATOM_UDEF_STEREO_COUNT>
2

>  <PUBCHEM_BOND_DEF_STEREO_COUNT>
1

>  <PUBCHEM_BOND_UDEF_STEREO_COUNT>
0

>  <PUBCHEM_ISOTOPIC_ATOM_COUNT>
0

>  <PUBCHEM_COMPONENT_COUNT>
1

>  <PUBCHEM_CACTVS_TAUTO_COUNT>
5

>  <PUBCHEM_COORDINATE_TYPE>
1
5
255

>  <PUBCHEM_BONDANNOTATIONS>
12  1  3
13  16  3
20  22  8
20  23  8
22  24  8
23  26  8
24  25  8
25  26  8

$$$$
