131751567
 OpenBabel06101807152D

 52 53  0  0  1  0  0  0  0  0999 V2000
    7.1653   -1.6150    0.0000 O   0  0  0  0  0  0  0  0  0  0  0  0
    5.0111   -0.7500    0.0000 O   0  0  0  0  0  0  0  0  0  0  0  0
    2.7550    1.6897    0.0000 O   0  0  0  0  0  0  0  0  0  0  0  0
    4.8291    0.6294    0.0000 O   0  0  0  0  0  0  0  0  0  0  0  0
    8.7490   -0.8103    0.0000 O   0  0  0  0  0  0  0  0  0  0  0  0
    3.0866   -0.5815    0.0000 O   0  0  0  0  0  0  0  0  0  0  0  0
    6.2191   -0.3103    0.0000 C   0  0  3  0  0  0  0  0  0  0  0  0
    5.3531    0.1897    0.0000 C   0  0  3  0  0  0  0  0  0  0  0  0
    6.2191   -1.3103    0.0000 C   0  0  3  0  0  0  0  0  0  0  0  0
    5.3531    1.1897    0.0000 C   0  0  0  0  0  0  0  0  0  0  0  0
    7.1653   -0.0056    0.0000 C   0  0  0  0  0  0  0  0  0  0  0  0
    5.3531   -1.8103    0.0000 C   0  0  0  0  0  0  0  0  0  0  0  0
    4.4871    1.6897    0.0000 C   0  0  0  0  0  0  0  0  0  0  0  0
    3.6210    1.1897    0.0000 C   0  0  3  0  0  0  0  0  0  0  0  0
    3.6210    0.1897    0.0000 C   0  0  0  0  0  0  0  0  0  0  0  0
    4.4871   -0.3103    0.0000 C   0  0  3  0  0  0  0  0  0  0  0  0
    4.4871   -1.3103    0.0000 C   0  0  0  0  0  0  0  0  0  0  0  0
    7.7490   -0.8103    0.0000 C   0  0  0  0  0  0  0  0  0  0  0  0
    7.4760    0.9450    0.0000 C   0  0  0  0  0  0  0  0  0  0  0  0
    4.1450   -2.2500    0.0000 C   0  0  0  0  0  0  0  0  0  0  0  0
    4.4871    2.6897    0.0000 C   0  0  0  0  0  0  0  0  0  0  0  0
    4.0261   -0.9235    0.0000 C   0  0  0  0  0  0  0  0  0  0  0  0
    3.3834   -1.6896    0.0000 C   0  0  0  0  0  0  0  0  0  0  0  0
    3.3835   -2.6897    0.0000 C   0  0  0  0  0  0  0  0  0  0  0  0
    2.3985   -1.5158    0.0000 C   0  0  0  0  0  0  0  0  0  0  0  0
    2.0566   -0.5761    0.0000 C   0  0  0  0  0  0  0  0  0  0  0  0
    6.2847    0.3062    0.0000 H   0  0  0  0  0  0  0  0  0  0  0  0
    4.7425    0.2974    0.0000 H   0  0  0  0  0  0  0  0  0  0  0  0
    6.2847   -1.9268    0.0000 H   0  0  0  0  0  0  0  0  0  0  0  0
    5.9637    1.0820    0.0000 H   0  0  0  0  0  0  0  0  0  0  0  0
    5.5652    1.7723    0.0000 H   0  0  0  0  0  0  0  0  0  0  0  0
    5.3531   -2.4303    0.0000 H   0  0  0  0  0  0  0  0  0  0  0  0
    3.6210    1.8097    0.0000 H   0  0  0  0  0  0  0  0  0  0  0  0
    3.0105    0.2974    0.0000 H   0  0  0  0  0  0  0  0  0  0  0  0
    3.4090   -0.3929    0.0000 H   0  0  0  0  0  0  0  0  0  0  0  0
    5.0976   -0.4180    0.0000 H   0  0  0  0  0  0  0  0  0  0  0  0
    8.0827    1.0728    0.0000 H   0  0  0  0  0  0  0  0  0  0  0  0
    7.0619    1.4064    0.0000 H   0  0  0  0  0  0  0  0  0  0  0  0
    3.5624   -2.0379    0.0000 H   0  0  0  0  0  0  0  0  0  0  0  0
    3.9330   -2.8326    0.0000 H   0  0  0  0  0  0  0  0  0  0  0  0
    4.7276   -2.4620    0.0000 H   0  0  0  0  0  0  0  0  0  0  0  0
    5.0240    2.9997    0.0000 H   0  0  0  0  0  0  0  0  0  0  0  0
    3.9501    2.9997    0.0000 H   0  0  0  0  0  0  0  0  0  0  0  0
    2.7550    2.3097    0.0000 H   0  0  0  0  0  0  0  0  0  0  0  0
    4.2922    0.9394    0.0000 H   0  0  0  0  0  0  0  0  0  0  0  0
    2.7635   -2.6898    0.0000 H   0  0  0  0  0  0  0  0  0  0  0  0
    3.3835   -3.3097    0.0000 H   0  0  0  0  0  0  0  0  0  0  0  0
    4.0035   -2.6897    0.0000 H   0  0  0  0  0  0  0  0  0  0  0  0
    2.0000   -1.9908    0.0000 H   0  0  0  0  0  0  0  0  0  0  0  0
    2.6392   -0.3641    0.0000 H   0  0  0  0  0  0  0  0  0  0  0  0
    1.8446    0.0066    0.0000 H   0  0  0  0  0  0  0  0  0  0  0  0
    1.4740   -0.7881    0.0000 H   0  0  0  0  0  0  0  0  0  0  0  0
  1  9  1  0  0  0  0
  1 18  1  0  0  0  0
  2  8  1  0  0  0  0
  2 22  1  0  0  0  0
  3 14  1  0  0  0  0
  3 44  1  0  0  0  0
  4 16  1  0  0  0  0
  4 45  1  0  0  0  0
  5 18  2  0  0  0  0
  6 22  2  0  0  0  0
  7  8  1  0  0  0  0
  7  9  1  0  0  0  0
  7 11  1  0  0  0  0
  7 27  1  0  0  0  0
  8 10  1  0  0  0  0
  8 28  1  0  0  0  0
  9 12  1  0  0  0  0
  9 29  1  0  0  0  0
 10 13  1  0  0  0  0
 10 30  1  0  0  0  0
 10 31  1  0  0  0  0
 11 18  1  0  0  0  0
 11 19  2  0  0  0  0
 12 17  2  0  0  0  0
 12 32  1  0  0  0  0
 13 14  1  0  0  0  0
 13 21  2  0  0  0  0
 14 15  1  0  0  0  0
 14 33  1  0  0  0  0
 15 16  1  0  0  0  0
 15 34  1  0  0  0  0
 15 35  1  0  0  0  0
 16 17  1  0  0  0  0
 16 36  1  0  0  0  0
 17 20  1  0  0  0  0
 19 37  1  0  0  0  0
 19 38  1  0  0  0  0
 20 39  1  0  0  0  0
 20 40  1  0  0  0  0
 20 41  1  0  0  0  0
 21 42  1  0  0  0  0
 21 43  1  0  0  0  0
 22 23  1  0  0  0  0
 23 24  1  0  0  0  0
 23 25  2  0  0  0  0
 24 46  1  0  0  0  0
 24 47  1  0  0  0  0
 24 48  1  0  0  0  0
 25 26  1  0  0  0  0
 25 49  1  0  0  0  0
 26 50  1  0  0  0  0
 26 51  1  0  0  0  0
 26 52  1  0  0  0  0
M  END
>  <PUBCHEM_COMPOUND_CID>
131751567

>  <PUBCHEM_COMPOUND_CANONICALIZED>
1

>  <PUBCHEM_CACTVS_COMPLEXITY>
686

>  <PUBCHEM_CACTVS_HBOND_ACCEPTOR>
6

>  <PUBCHEM_CACTVS_HBOND_DONOR>
2

>  <PUBCHEM_CACTVS_ROTATABLE_BOND>
3

>  <PUBCHEM_CACTVS_SUBSKEYS>
AAADceB4OAAAAAAAAAAAAAAAAAAAASAAAAAAAAAAAAAAAACAAAAAGgAACAAADRSggAICCAAABgCIAiDSCAAAAAAgAAAACAEAAEgAFBIAIQACUAAFwAAIMYPKyPCOAAAAAAAAAAAAAAAAAAAAAAAAAAAAAA==

>  <PUBCHEM_IUPAC_OPENEYE_NAME>
[(10Z)-7,9-dihydroxy-10-methyl-3,6-dimethylene-2-oxo-4,5,7,8,9,11a-hexahydro-3aH-cyclodeca[b]furan-4-yl] (Z)-2-methylbut-2-enoate

>  <PUBCHEM_IUPAC_CAS_NAME>
(Z)-2-methyl-2-butenoic acid [(10Z)-7,9-dihydroxy-10-methyl-3,6-dimethylene-2-oxo-4,5,7,8,9,11a-hexahydro-3aH-cyclodeca[b]furan-4-yl] ester

>  <PUBCHEM_IUPAC_NAME>
[(10Z)-7,9-dihydroxy-10-methyl-3,6-dimethylidene-2-oxo-4,5,7,8,9,11a-hexahydro-3aH-cyclodeca[b]furan-4-yl] (Z)-2-methylbut-2-enoate

>  <PUBCHEM_IUPAC_SYSTEMATIC_NAME>
[(10Z)-10-methyl-3,6-dimethylidene-7,9-bis(oxidanyl)-2-oxidanylidene-4,5,7,8,9,11a-hexahydro-3aH-cyclodeca[b]furan-4-yl] (Z)-2-methylbut-2-enoate

>  <PUBCHEM_IUPAC_TRADITIONAL_NAME>
(Z)-2-methylbut-2-enoic acid [(10Z)-7,9-dihydroxy-2-keto-10-methyl-3,6-dimethylene-4,5,7,8,9,11a-hexahydro-3aH-cyclodeca[b]furan-4-yl] ester

>  <PUBCHEM_IUPAC_INCHI>
InChI=1S/C20H26O6/c1-6-10(2)19(23)25-16-7-11(3)14(21)9-15(22)12(4)8-17-18(16)13(5)20(24)26-17/h6,8,14-18,21-22H,3,5,7,9H2,1-2,4H3/b10-6-,12-8-

>  <PUBCHEM_IUPAC_INCHIKEY>
SDFKKMBWIQKUOQ-RXDMEISQSA-N

>  <PUBCHEM_EXACT_MASS>
362.173

>  <PUBCHEM_MOLECULAR_FORMULA>
C20H26O6

>  <PUBCHEM_MOLECULAR_WEIGHT>
362.422

>  <PUBCHEM_OPENEYE_CAN_SMILES>
CC=C(C)C(=O)OC1CC(=C)C(CC(C(=CC2C1C(=C)C(=O)O2)C)O)O

>  <PUBCHEM_OPENEYE_ISO_SMILES>
C/C=C(/C)\C(=O)OC1CC(=C)C(CC(/C(=C\C2C1C(=C)C(=O)O2)/C)O)O

>  <PUBCHEM_CACTVS_TPSA>
93.1

>  <PUBCHEM_MONOISOTOPIC_WEIGHT>
362.173

>  <PUBCHEM_TOTAL_CHARGE>
0

>  <PUBCHEM_HEAVY_ATOM_COUNT>
26

>  <PUBCHEM_ATOM_DEF_STEREO_COUNT>
0

>  <PUBCHEM_ATOM_UDEF_STEREO_COUNT>
5

>  <PUBCHEM_BOND_DEF_STEREO_COUNT>
2

>  <PUBCHEM_BOND_UDEF_STEREO_COUNT>
0

>  <PUBCHEM_ISOTOPIC_ATOM_COUNT>
0

>  <PUBCHEM_COMPONENT_COUNT>
1

>  <PUBCHEM_CACTVS_TAUTO_COUNT>
1

>  <PUBCHEM_COORDINATE_TYPE>
1
5
255

>  <PUBCHEM_BONDANNOTATIONS>
8  2  3
14  3  3
16  4  3
7  11  3
9  12  3

$$$$
