131752806
 OpenBabel06101807152D

 49 52  0  0  1  0  0  0  0  0999 V2000
    5.9981    0.5154    0.0000 O   0  0  0  0  0  0  0  0  0  0  0  0
    5.2910   -0.9917    0.0000 O   0  0  0  0  0  0  0  0  0  0  0  0
    4.6497    2.1500    0.0000 O   0  0  0  0  0  0  0  0  0  0  0  0
    4.6497   -1.9192    0.0000 O   0  0  0  0  0  0  0  0  0  0  0  0
    2.8680   -0.9087    0.0000 O   0  0  0  0  0  0  0  0  0  0  0  0
    7.2641   -0.3846    0.0000 C   0  0  3  0  0  0  0  0  0  0  0  0
    6.3981   -0.8846    0.0000 C   0  0  3  0  0  0  0  0  0  0  0  0
    8.1741   -0.8914    0.0000 C   0  0  0  0  0  0  0  0  0  0  0  0
    7.2641    0.6154    0.0000 C   0  0  0  0  0  0  0  0  0  0  0  0
    6.3820   -1.9261    0.0000 C   0  0  0  0  0  0  0  0  0  0  0  0
    8.1821   -1.9330    0.0000 C   0  0  0  0  0  0  0  0  0  0  0  0
    6.3981    1.1154    0.0000 C   0  0  3  0  0  0  0  0  0  0  0  0
    5.5320   -0.3846    0.0000 C   0  0  0  0  0  0  0  0  0  0  0  0
    7.2800   -2.4538    0.0000 C   0  0  0  0  0  0  0  0  0  0  0  0
    5.5320    0.6154    0.0000 C   0  0  0  0  0  0  0  0  0  0  0  0
    5.9981   -0.2846    0.0000 C   0  0  0  0  0  0  0  0  0  0  0  0
    9.1740   -0.8798    0.0000 C   0  0  0  0  0  0  0  0  0  0  0  0
    8.6640   -0.0196    0.0000 C   0  0  0  0  0  0  0  0  0  0  0  0
    4.6381   -0.9192    0.0000 C   0  0  0  0  0  0  0  0  0  0  0  0
    4.6381    1.1501    0.0000 C   0  0  0  0  0  0  0  0  0  0  0  0
    3.7320    0.6363    0.0000 C   0  0  0  0  0  0  0  0  0  0  0  0
    3.7320   -0.4054    0.0000 C   0  0  0  0  0  0  0  0  0  0  0  0
    2.8680    1.1396    0.0000 C   0  0  0  0  0  0  0  0  0  0  0  0
    2.0000    0.6429    0.0000 C   0  0  0  0  0  0  0  0  0  0  0  0
    2.8718    2.1396    0.0000 C   0  0  0  0  0  0  0  0  0  0  0  0
    7.7986   -0.0704    0.0000 H   0  0  0  0  0  0  0  0  0  0  0  0
    7.8747    0.5078    0.0000 H   0  0  0  0  0  0  0  0  0  0  0  0
    7.4762    1.1981    0.0000 H   0  0  0  0  0  0  0  0  0  0  0  0
    5.7729   -1.8106    0.0000 H   0  0  0  0  0  0  0  0  0  0  0  0
    6.1640   -2.5065    0.0000 H   0  0  0  0  0  0  0  0  0  0  0  0
    8.3957   -2.5151    0.0000 H   0  0  0  0  0  0  0  0  0  0  0  0
    8.7922   -1.8222    0.0000 H   0  0  0  0  0  0  0  0  0  0  0  0
    6.3981    1.7354    0.0000 H   0  0  0  0  0  0  0  0  0  0  0  0
    6.8791   -2.9267    0.0000 H   0  0  0  0  0  0  0  0  0  0  0  0
    7.6774   -2.9298    0.0000 H   0  0  0  0  0  0  0  0  0  0  0  0
    9.1812   -1.4998    0.0000 H   0  0  0  0  0  0  0  0  0  0  0  0
    9.2045   -0.3234    0.0000 H   0  0  0  0  0  0  0  0  0  0  0  0
    8.9678    0.5208    0.0000 H   0  0  0  0  0  0  0  0  0  0  0  0
    8.1236    0.2841    0.0000 H   0  0  0  0  0  0  0  0  0  0  0  0
    9.7940   -0.8727    0.0000 H   0  0  0  0  0  0  0  0  0  0  0  0
    9.1669   -0.2599    0.0000 H   0  0  0  0  0  0  0  0  0  0  0  0
    2.3322    1.4517    0.0000 H   0  0  0  0  0  0  0  0  0  0  0  0
    5.1902    2.4538    0.0000 H   0  0  0  0  0  0  0  0  0  0  0  0
    3.4918    2.1372    0.0000 H   0  0  0  0  0  0  0  0  0  0  0  0
    2.8742    2.7596    0.0000 H   0  0  0  0  0  0  0  0  0  0  0  0
    1.6921    1.1811    0.0000 H   0  0  0  0  0  0  0  0  0  0  0  0
    1.4619    0.3350    0.0000 H   0  0  0  0  0  0  0  0  0  0  0  0
    2.2518    2.1420    0.0000 H   0  0  0  0  0  0  0  0  0  0  0  0
    2.3079    0.1048    0.0000 H   0  0  0  0  0  0  0  0  0  0  0  0
  1 12  1  0  0  0  0
  1 16  1  0  0  0  0
  2 16  2  0  0  0  0
  3 20  1  0  0  0  0
  3 43  1  0  0  0  0
  4 19  2  0  0  0  0
  5 22  2  0  0  0  0
  6  7  1  0  0  0  0
  6  8  1  0  0  0  0
  6  9  1  0  0  0  0
  6 26  1  0  0  0  0
  7 10  1  0  0  0  0
  7 13  1  0  0  0  0
  7 16  1  0  0  0  0
  8 11  1  0  0  0  0
  8 17  1  0  0  0  0
  8 18  1  0  0  0  0
  9 12  1  0  0  0  0
  9 27  1  0  0  0  0
  9 28  1  0  0  0  0
 10 14  1  0  0  0  0
 10 29  1  0  0  0  0
 10 30  1  0  0  0  0
 11 14  1  0  0  0  0
 11 31  1  0  0  0  0
 11 32  1  0  0  0  0
 12 15  1  0  0  0  0
 12 33  1  0  0  0  0
 13 15  2  0  0  0  0
 13 19  1  0  0  0  0
 14 34  1  0  0  0  0
 14 35  1  0  0  0  0
 15 20  1  0  0  0  0
 17 36  1  0  0  0  0
 17 40  1  0  0  0  0
 17 41  1  0  0  0  0
 18 37  1  0  0  0  0
 18 38  1  0  0  0  0
 18 39  1  0  0  0  0
 19 22  1  0  0  0  0
 20 21  2  0  0  0  0
 21 22  1  0  0  0  0
 21 23  1  0  0  0  0
 23 24  1  0  0  0  0
 23 25  1  0  0  0  0
 23 42  1  0  0  0  0
 24 46  1  0  0  0  0
 24 47  1  0  0  0  0
 24 49  1  0  0  0  0
 25 44  1  0  0  0  0
 25 45  1  0  0  0  0
 25 48  1  0  0  0  0
M  END
>  <PUBCHEM_COMPOUND_CID>
131752806

>  <PUBCHEM_COMPOUND_CANONICALIZED>
1

>  <PUBCHEM_CACTVS_COMPLEXITY>
782

>  <PUBCHEM_CACTVS_HBOND_ACCEPTOR>
5

>  <PUBCHEM_CACTVS_HBOND_DONOR>
1

>  <PUBCHEM_CACTVS_ROTATABLE_BOND>
1

>  <PUBCHEM_CACTVS_SUBSKEYS>
AAADceB4OAAAAAAAAAAAAAAAAAAAAAAAAAA0QIECAAAAAACQAAAAGgAACAAADxSggAICCAAABgCIAoDQCAAAAAAgIAAACAEAAEgIBBIAIAACUAAFwAAIsQOLzvDvgAAAAAAAAAAAAAQAACAAAAAAAAAAAA==

>  <PUBCHEM_IUPAC_INCHI>
InChI=1S/C20H24O5/c1-9(2)12-15(21)13-10-8-11-19(3,4)6-5-7-20(11,18(24)25-10)14(13)17(23)16(12)22/h9-11,21H,5-8H2,1-4H3

>  <PUBCHEM_IUPAC_INCHIKEY>
PCMDDYKLZIZJHI-UHFFFAOYSA-N

>  <PUBCHEM_EXACT_MASS>
344.162

>  <PUBCHEM_MOLECULAR_FORMULA>
C20H24O5

>  <PUBCHEM_MOLECULAR_WEIGHT>
344.407

>  <PUBCHEM_OPENEYE_CAN_SMILES>
CC(C)C1=C(C2=C(C(=O)C1=O)C34CCCC(C3CC2OC4=O)(C)C)O

>  <PUBCHEM_OPENEYE_ISO_SMILES>
CC(C)C1=C(C2=C(C(=O)C1=O)C34CCCC(C3CC2OC4=O)(C)C)O

>  <PUBCHEM_CACTVS_TPSA>
80.7

>  <PUBCHEM_MONOISOTOPIC_WEIGHT>
344.162

>  <PUBCHEM_TOTAL_CHARGE>
0

>  <PUBCHEM_HEAVY_ATOM_COUNT>
25

>  <PUBCHEM_ATOM_DEF_STEREO_COUNT>
0

>  <PUBCHEM_ATOM_UDEF_STEREO_COUNT>
3

>  <PUBCHEM_BOND_DEF_STEREO_COUNT>
0

>  <PUBCHEM_BOND_UDEF_STEREO_COUNT>
0

>  <PUBCHEM_ISOTOPIC_ATOM_COUNT>
0

>  <PUBCHEM_COMPONENT_COUNT>
1

>  <PUBCHEM_CACTVS_TAUTO_COUNT>
26

>  <PUBCHEM_COORDINATE_TYPE>
1
5
255

>  <PUBCHEM_BONDANNOTATIONS>
6  9  3
7  10  3
12  9  3

$$$$
