131752667
 OpenBabel06101807152D

 69 73  0  0  1  0  0  0  0  0999 V2000
    9.0646   -1.2857    0.0000 O   0  0  0  0  0  0  0  0  0  0  0  0
    4.6870   -1.6924    0.0000 O   0  0  0  0  0  0  0  0  0  0  0  0
    6.4666   -1.7857    0.0000 O   0  0  0  0  0  0  0  0  0  0  0  0
    7.3326   -3.2857    0.0000 O   0  0  0  0  0  0  0  0  0  0  0  0
    9.0646   -4.2857    0.0000 O   0  0  0  0  0  0  0  0  0  0  0  0
   10.7967   -1.2857    0.0000 O   0  0  0  0  0  0  0  0  0  0  0  0
   10.7967   -3.2857    0.0000 O   0  0  0  0  0  0  0  0  0  0  0  0
    6.2392    0.3780    0.0000 O   0  0  0  0  0  0  0  0  0  0  0  0
    4.1111    0.8303    0.0000 O   0  0  0  0  0  0  0  0  0  0  0  0
    2.6166   -1.9673    0.0000 O   0  0  0  0  0  0  0  0  0  0  0  0
   11.6627    1.2143    0.0000 O   0  0  0  0  0  0  0  0  0  0  0  0
    9.0646   -0.2857    0.0000 O   0  0  0  0  0  0  0  0  0  0  0  0
    8.1605    1.2112    0.0000 O   0  0  0  0  0  0  0  0  0  0  0  0
    9.9186    4.2836    0.0000 O   0  0  0  0  0  0  0  0  0  0  0  0
   15.1268   -1.7857    0.0000 O   0  0  0  0  0  0  0  0  0  0  0  0
    8.1986   -1.7857    0.0000 C   0  0  1  0  0  0  0  0  0  0  0  0
    8.1986   -2.7857    0.0000 C   0  0  2  0  0  0  0  0  0  0  0  0
    9.0646   -3.2857    0.0000 C   0  0  1  0  0  0  0  0  0  0  0  0
    9.9307   -2.7857    0.0000 C   0  0  2  0  0  0  0  0  0  0  0  0
    5.6005   -1.2857    0.0000 C   0  0  1  0  0  0  0  0  0  0  0  0
    5.4960   -0.2911    0.0000 C   0  0  1  0  0  0  0  0  0  0  0  0
    4.5179   -0.0832    0.0000 C   0  0  2  0  0  0  0  0  0  0  0  0
    9.9307   -1.7857    0.0000 C   0  0  1  0  0  0  0  0  0  0  0  0
    4.0179   -0.9493    0.0000 C   0  0  1  0  0  0  0  0  0  0  0  0
    7.3326   -1.2857    0.0000 C   0  0  0  0  0  0  0  0  0  0  0  0
    3.0233   -1.0538    0.0000 C   0  0  0  0  0  0  0  0  0  0  0  0
   10.7967   -0.2857    0.0000 C   0  0  0  0  0  0  0  0  0  0  0  0
   11.6627    0.2143    0.0000 C   0  0  0  0  0  0  0  0  0  0  0  0
    9.9307    0.2143    0.0000 C   0  0  0  0  0  0  0  0  0  0  0  0
    9.9307    1.2143    0.0000 C   0  0  0  0  0  0  0  0  0  0  0  0
   10.7967    1.7143    0.0000 C   0  0  0  0  0  0  0  0  0  0  0  0
   12.5287   -0.2857    0.0000 C   0  0  0  0  0  0  0  0  0  0  0  0
    9.0207    1.7212    0.0000 C   0  0  0  0  0  0  0  0  0  0  0  0
   10.8127    2.7558    0.0000 C   0  0  0  0  0  0  0  0  0  0  0  0
   12.5287   -1.2857    0.0000 C   0  0  0  0  0  0  0  0  0  0  0  0
   13.3948    0.2143    0.0000 C   0  0  0  0  0  0  0  0  0  0  0  0
    9.0126    2.7628    0.0000 C   0  0  0  0  0  0  0  0  0  0  0  0
    9.9147    3.2836    0.0000 C   0  0  0  0  0  0  0  0  0  0  0  0
   13.3948   -1.7857    0.0000 C   0  0  0  0  0  0  0  0  0  0  0  0
   14.2608   -0.2857    0.0000 C   0  0  0  0  0  0  0  0  0  0  0  0
   14.2608   -1.2857    0.0000 C   0  0  0  0  0  0  0  0  0  0  0  0
    8.1986   -1.1657    0.0000 H   0  0  0  0  0  0  0  0  0  0  0  0
    7.6617   -2.4757    0.0000 H   0  0  0  0  0  0  0  0  0  0  0  0
    8.5277   -3.5957    0.0000 H   0  0  0  0  0  0  0  0  0  0  0  0
    9.9307   -3.4057    0.0000 H   0  0  0  0  0  0  0  0  0  0  0  0
    6.1205   -0.9480    0.0000 H   0  0  0  0  0  0  0  0  0  0  0  0
    6.0748   -0.5133    0.0000 H   0  0  0  0  0  0  0  0  0  0  0  0
    4.9080    0.3986    0.0000 H   0  0  0  0  0  0  0  0  0  0  0  0
    9.9307   -1.1657    0.0000 H   0  0  0  0  0  0  0  0  0  0  0  0
    3.7957   -1.5281    0.0000 H   0  0  0  0  0  0  0  0  0  0  0  0
    7.7311   -0.8107    0.0000 H   0  0  0  0  0  0  0  0  0  0  0  0
    6.9341   -0.8107    0.0000 H   0  0  0  0  0  0  0  0  0  0  0  0
    3.0666   -0.4353    0.0000 H   0  0  0  0  0  0  0  0  0  0  0  0
    2.4218   -0.9038    0.0000 H   0  0  0  0  0  0  0  0  0  0  0  0
    7.3326   -3.9057    0.0000 H   0  0  0  0  0  0  0  0  0  0  0  0
    8.5277   -4.5957    0.0000 H   0  0  0  0  0  0  0  0  0  0  0  0
   10.7967   -3.9057    0.0000 H   0  0  0  0  0  0  0  0  0  0  0  0
    6.1102    0.9844    0.0000 H   0  0  0  0  0  0  0  0  0  0  0  0
    3.4945    0.8951    0.0000 H   0  0  0  0  0  0  0  0  0  0  0  0
    2.0000   -2.0321    0.0000 H   0  0  0  0  0  0  0  0  0  0  0  0
   11.3532    3.0596    0.0000 H   0  0  0  0  0  0  0  0  0  0  0  0
   11.9918   -1.5957    0.0000 H   0  0  0  0  0  0  0  0  0  0  0  0
   13.3948    0.8343    0.0000 H   0  0  0  0  0  0  0  0  0  0  0  0
    8.4745    3.0707    0.0000 H   0  0  0  0  0  0  0  0  0  0  0  0
   13.3948   -2.4057    0.0000 H   0  0  0  0  0  0  0  0  0  0  0  0
   14.7977    0.0243    0.0000 H   0  0  0  0  0  0  0  0  0  0  0  0
    7.6200    1.5150    0.0000 H   0  0  0  0  0  0  0  0  0  0  0  0
    9.3828    4.5957    0.0000 H   0  0  0  0  0  0  0  0  0  0  0  0
   15.1268   -2.4057    0.0000 H   0  0  0  0  0  0  0  0  0  0  0  0
  1 16  1  0  0  0  0
  1 23  1  0  0  0  0
  2 20  1  0  0  0  0
  2 24  1  0  0  0  0
  3 25  1  0  0  0  0
  4 55  1  0  0  0  0
  5 56  1  0  0  0  0
  6 27  1  0  0  0  0
  7 57  1  0  0  0  0
  8 58  1  0  0  0  0
  9 59  1  0  0  0  0
 10 26  1  0  0  0  0
 10 60  1  0  0  0  0
 11 28  1  0  0  0  0
 11 31  1  0  0  0  0
 12 29  2  0  0  0  0
 13 33  1  0  0  0  0
 13 67  1  0  0  0  0
 14 38  1  0  0  0  0
 14 68  1  0  0  0  0
 15 41  1  0  0  0  0
 15 69  1  0  0  0  0
 16 17  1  6  0  0  0
 16 25  1  0  0  0  0
 16 42  1  0  0  0  0
 17  4  1  0  0  0  0
 17 18  1  1  0  0  0
 17 43  1  0  0  0  0
 18  5  1  0  0  0  0
 18 19  1  6  0  0  0
 18 44  1  0  0  0  0
 19  7  1  0  0  0  0
 19 23  1  1  0  0  0
 19 45  1  0  0  0  0
 20  3  1  0  0  0  0
 20 21  1  6  0  0  0
 20 46  1  0  0  0  0
 21  8  1  0  0  0  0
 21 22  1  6  0  0  0
 21 47  1  0  0  0  0
 22  9  1  0  0  0  0
 22 24  1  1  0  0  0
 22 48  1  0  0  0  0
 23  6  1  0  0  0  0
 23 49  1  6  0  0  0
 24 26  1  0  0  0  0
 24 50  1  1  0  0  0
 25 51  1  0  0  0  0
 25 52  1  0  0  0  0
 26 53  1  0  0  0  0
 26 54  1  0  0  0  0
 27 28  2  0  0  0  0
 27 29  1  0  0  0  0
 28 32  1  0  0  0  0
 29 30  1  0  0  0  0
 30 31  1  0  0  0  0
 30 33  2  0  0  0  0
 31 34  2  0  0  0  0
 32 35  2  0  0  0  0
 32 36  1  0  0  0  0
 33 37  1  0  0  0  0
 34 38  1  0  0  0  0
 34 61  1  0  0  0  0
 35 39  1  0  0  0  0
 35 62  1  0  0  0  0
 36 40  2  0  0  0  0
 36 63  1  0  0  0  0
 37 38  2  0  0  0  0
 37 64  1  0  0  0  0
 39 41  2  0  0  0  0
 39 65  1  0  0  0  0
 40 41  1  0  0  0  0
 40 66  1  0  0  0  0
M  END
>  <PUBCHEM_COMPOUND_CID>
131752667

>  <PUBCHEM_COMPOUND_CANONICALIZED>
1

>  <PUBCHEM_CACTVS_COMPLEXITY>
953

>  <PUBCHEM_CACTVS_HBOND_ACCEPTOR>
15

>  <PUBCHEM_CACTVS_HBOND_DONOR>
9

>  <PUBCHEM_CACTVS_ROTATABLE_BOND>
7

>  <PUBCHEM_CACTVS_SUBSKEYS>
AAADceB4PAAAAAAAAAAAAAAAAAAAASAAAAA0YIEAAAAAAACBQAAAGgAACAAADBSwmAMwDoAABgCIAqBSAAICCAAkIAAIiAFGCMgdNzaGNR6ieWCl4BUPuQfI7KzOIAAACAAIAABAAAAQABAAAAAAAAAAAA==

>  <PUBCHEM_IUPAC_OPENEYE_NAME>
3-[(2S,3R,4S,5S,6R)-6-[[(2R,3R,4R,5R)-3,4-dihydroxy-5-(hydroxymethyl)tetrahydrofuran-2-yl]oxymethyl]-3,4,5-trihydroxy-tetrahydropyran-2-yl]oxy-5,7-dihydroxy-2-(4-hydroxyphenyl)chromen-4-one

>  <PUBCHEM_IUPAC_CAS_NAME>
3-[[(2S,3R,4S,5S,6R)-6-[[(2R,3R,4R,5R)-3,4-dihydroxy-5-(hydroxymethyl)-2-oxolanyl]oxymethyl]-3,4,5-trihydroxy-2-oxanyl]oxy]-5,7-dihydroxy-2-(4-hydroxyphenyl)-1-benzopyran-4-one

>  <PUBCHEM_IUPAC_NAME>
3-[(2S,3R,4S,5S,6R)-6-[[(2R,3R,4R,5R)-3,4-dihydroxy-5-(hydroxymethyl)oxolan-2-yl]oxymethyl]-3,4,5-trihydroxyoxan-2-yl]oxy-5,7-dihydroxy-2-(4-hydroxyphenyl)chromen-4-one

>  <PUBCHEM_IUPAC_SYSTEMATIC_NAME>
3-[(2S,3R,4S,5S,6R)-6-[[(2R,3R,4R,5R)-5-(hydroxymethyl)-3,4-bis(oxidanyl)oxolan-2-yl]oxymethyl]-3,4,5-tris(oxidanyl)oxan-2-yl]oxy-2-(4-hydroxyphenyl)-5,7-bis(oxidanyl)chromen-4-one

>  <PUBCHEM_IUPAC_TRADITIONAL_NAME>
3-[(2S,3R,4S,5S,6R)-6-[[(2R,3R,4R,5R)-3,4-dihydroxy-5-methylol-tetrahydrofuran-2-yl]oxymethyl]-3,4,5-trihydroxy-tetrahydropyran-2-yl]oxy-5,7-dihydroxy-2-(4-hydroxyphenyl)chromone

>  <PUBCHEM_IUPAC_INCHI>
InChI=1S/C26H28O15/c27-7-14-17(31)21(35)25(39-14)37-8-15-18(32)20(34)22(36)26(40-15)41-24-19(33)16-12(30)5-11(29)6-13(16)38-23(24)9-1-3-10(28)4-2-9/h1-6,14-15,17-18,20-22,25-32,34-36H,7-8H2/t14-,15-,17+,18-,20+,21-,22-,25-,26+/m1/s1

>  <PUBCHEM_IUPAC_INCHIKEY>
XZTRGHMNLXAJPZ-DGBSRBSYSA-N

>  <PUBCHEM_EXACT_MASS>
580.143

>  <PUBCHEM_MOLECULAR_FORMULA>
C26H28O15

>  <PUBCHEM_MOLECULAR_WEIGHT>
580.495

>  <PUBCHEM_OPENEYE_CAN_SMILES>
C1=CC(=CC=C1C2=C(C(=O)C3=C(C=C(C=C3O2)O)O)OC4C(C(C(C(O4)COC5C(C(C(O5)CO)O)O)O)O)O)O

>  <PUBCHEM_OPENEYE_ISO_SMILES>
C1=CC(=CC=C1C2=C(C(=O)C3=C(C=C(C=C3O2)O)O)O[C@H]4[C@@H]([C@H]([C@@H]([C@H](O4)CO[C@H]5[C@@H]([C@H]([C@H](O5)CO)O)O)O)O)O)O

>  <PUBCHEM_CACTVS_TPSA>
245

>  <PUBCHEM_MONOISOTOPIC_WEIGHT>
580.143

>  <PUBCHEM_TOTAL_CHARGE>
0

>  <PUBCHEM_HEAVY_ATOM_COUNT>
41

>  <PUBCHEM_ATOM_DEF_STEREO_COUNT>
9

>  <PUBCHEM_ATOM_UDEF_STEREO_COUNT>
0

>  <PUBCHEM_BOND_DEF_STEREO_COUNT>
0

>  <PUBCHEM_BOND_UDEF_STEREO_COUNT>
0

>  <PUBCHEM_ISOTOPIC_ATOM_COUNT>
0

>  <PUBCHEM_COMPONENT_COUNT>
1

>  <PUBCHEM_CACTVS_TAUTO_COUNT>
57

>  <PUBCHEM_COORDINATE_TYPE>
1
5
255

>  <PUBCHEM_BONDANNOTATIONS>
11  28  8
11  31  8
16  25  5
24  26  6
27  28  8
27  29  8
29  30  8
20  3  6
30  31  8
30  33  8
31  34  8
32  35  8
32  36  8
33  37  8
34  38  8
35  39  8
36  40  8
37  38  8
39  41  8
17  4  6
40  41  8
18  5  5
23  6  5
19  7  6
21  8  5
22  9  6

$$$$
