131751091
 OpenBabel06101807152D

 63 65  0  0  1  0  0  0  0  0999 V2000
    6.3671    1.0495    0.0000 O   0  0  0  0  0  0  0  0  0  0  0  0
    6.0010   -1.3165    0.0000 O   0  0  0  0  0  0  0  0  0  0  0  0
   10.0360    4.6265    0.0000 O   0  0  0  0  0  0  0  0  0  0  0  0
    4.2690   -1.3165    0.0000 O   0  0  0  0  0  0  0  0  0  0  0  0
    6.0010   -3.3165    0.0000 O   0  0  0  0  0  0  0  0  0  0  0  0
    4.2690   -4.3165    0.0000 O   0  0  0  0  0  0  0  0  0  0  0  0
    2.5369   -3.3165    0.0000 O   0  0  0  0  0  0  0  0  0  0  0  0
    2.5369   -0.3165    0.0000 O   0  0  0  0  0  0  0  0  0  0  0  0
    8.8158    1.8859    0.0000 C   0  0  3  0  0  0  0  0  0  0  0  0
    7.7331    0.6835    0.0000 C   0  0  3  0  0  0  0  0  0  0  0  0
    7.8376    1.6780    0.0000 C   0  0  0  0  0  0  0  0  0  0  0  0
    9.3158    1.0199    0.0000 C   0  0  0  0  0  0  0  0  0  0  0  0
    8.6466    0.2767    0.0000 C   0  0  0  0  0  0  0  0  0  0  0  0
    9.8103    1.9904    0.0000 C   0  0  3  0  0  0  0  0  0  0  0  0
    6.8671    0.1835    0.0000 C   0  0  3  0  0  0  0  0  0  0  0  0
    8.2280    2.6949    0.0000 C   0  0  0  0  0  0  0  0  0  0  0  0
   10.2170    2.9040    0.0000 C   0  0  0  0  0  0  0  0  0  0  0  0
   10.3981    1.1814    0.0000 C   0  0  0  0  0  0  0  0  0  0  0  0
    6.0010   -0.3165    0.0000 C   0  0  0  0  0  0  0  0  0  0  0  0
    8.6347    3.6085    0.0000 C   0  0  0  0  0  0  0  0  0  0  0  0
    7.3671   -0.6826    0.0000 C   0  0  0  0  0  0  0  0  0  0  0  0
    9.6292    3.7130    0.0000 C   0  0  0  0  0  0  0  0  0  0  0  0
    7.2335    2.5904    0.0000 C   0  0  0  0  0  0  0  0  0  0  0  0
    5.1350   -1.8165    0.0000 C   0  0  3  0  0  0  0  0  0  0  0  0
    5.1350   -2.8165    0.0000 C   0  0  3  0  0  0  0  0  0  0  0  0
    4.2690   -3.3165    0.0000 C   0  0  3  0  0  0  0  0  0  0  0  0
    3.4030   -2.8165    0.0000 C   0  0  3  0  0  0  0  0  0  0  0  0
    3.4030   -1.8165    0.0000 C   0  0  3  0  0  0  0  0  0  0  0  0
    2.5369   -1.3165    0.0000 C   0  0  0  0  0  0  0  0  0  0  0  0
    7.7655    0.0643    0.0000 H   0  0  0  0  0  0  0  0  0  0  0  0
    7.7728    2.2946    0.0000 H   0  0  0  0  0  0  0  0  0  0  0  0
    7.2176    1.6780    0.0000 H   0  0  0  0  0  0  0  0  0  0  0  0
    9.7306    0.5591    0.0000 H   0  0  0  0  0  0  0  0  0  0  0  0
    9.8174    1.3843    0.0000 H   0  0  0  0  0  0  0  0  0  0  0  0
    8.3366   -0.2602    0.0000 H   0  0  0  0  0  0  0  0  0  0  0  0
    9.1482   -0.0877    0.0000 H   0  0  0  0  0  0  0  0  0  0  0  0
   10.4269    2.0552    0.0000 H   0  0  0  0  0  0  0  0  0  0  0  0
   10.7310    2.5573    0.0000 H   0  0  0  0  0  0  0  0  0  0  0  0
   10.6477    3.3500    0.0000 H   0  0  0  0  0  0  0  0  0  0  0  0
    9.8965    0.8170    0.0000 H   0  0  0  0  0  0  0  0  0  0  0  0
   10.7625    0.6798    0.0000 H   0  0  0  0  0  0  0  0  0  0  0  0
   10.8997    1.5458    0.0000 H   0  0  0  0  0  0  0  0  0  0  0  0
    5.7890    0.2661    0.0000 H   0  0  0  0  0  0  0  0  0  0  0  0
    5.3905   -0.4242    0.0000 H   0  0  0  0  0  0  0  0  0  0  0  0
    8.2703    4.1100    0.0000 H   0  0  0  0  0  0  0  0  0  0  0  0
    6.8301   -0.9926    0.0000 H   0  0  0  0  0  0  0  0  0  0  0  0
    7.6771   -1.2195    0.0000 H   0  0  0  0  0  0  0  0  0  0  0  0
    7.9040   -0.3726    0.0000 H   0  0  0  0  0  0  0  0  0  0  0  0
    7.1686    3.2070    0.0000 H   0  0  0  0  0  0  0  0  0  0  0  0
    6.6168    2.5256    0.0000 H   0  0  0  0  0  0  0  0  0  0  0  0
    7.2983    1.9738    0.0000 H   0  0  0  0  0  0  0  0  0  0  0  0
    5.7471    1.0495    0.0000 H   0  0  0  0  0  0  0  0  0  0  0  0
    5.1350   -1.1965    0.0000 H   0  0  0  0  0  0  0  0  0  0  0  0
    5.1350   -3.4365    0.0000 H   0  0  0  0  0  0  0  0  0  0  0  0
    3.7320   -3.6265    0.0000 H   0  0  0  0  0  0  0  0  0  0  0  0
    3.4030   -3.4365    0.0000 H   0  0  0  0  0  0  0  0  0  0  0  0
    3.4030   -1.1965    0.0000 H   0  0  0  0  0  0  0  0  0  0  0  0
    1.9264   -1.2089    0.0000 H   0  0  0  0  0  0  0  0  0  0  0  0
    2.3249   -1.8991    0.0000 H   0  0  0  0  0  0  0  0  0  0  0  0
    6.5380   -3.0065    0.0000 H   0  0  0  0  0  0  0  0  0  0  0  0
    3.7320   -4.6265    0.0000 H   0  0  0  0  0  0  0  0  0  0  0  0
    2.0000   -3.0065    0.0000 H   0  0  0  0  0  0  0  0  0  0  0  0
    2.0000   -0.0065    0.0000 H   0  0  0  0  0  0  0  0  0  0  0  0
  1 15  1  0  0  0  0
  1 52  1  0  0  0  0
  2 19  1  0  0  0  0
  2 24  1  0  0  0  0
  3 22  2  0  0  0  0
  4 24  1  0  0  0  0
  4 28  1  0  0  0  0
  5 25  1  0  0  0  0
  5 60  1  0  0  0  0
  6 26  1  0  0  0  0
  6 61  1  0  0  0  0
  7 27  1  0  0  0  0
  7 62  1  0  0  0  0
  8 29  1  0  0  0  0
  8 63  1  0  0  0  0
  9 11  1  0  0  0  0
  9 12  1  0  0  0  0
  9 14  1  0  0  0  0
  9 16  1  0  0  0  0
 10 11  1  0  0  0  0
 10 13  1  0  0  0  0
 10 15  1  0  0  0  0
 10 30  1  0  0  0  0
 11 31  1  0  0  0  0
 11 32  1  0  0  0  0
 12 13  1  0  0  0  0
 12 33  1  0  0  0  0
 12 34  1  0  0  0  0
 13 35  1  0  0  0  0
 13 36  1  0  0  0  0
 14 17  1  0  0  0  0
 14 18  1  0  0  0  0
 14 37  1  0  0  0  0
 15 19  1  0  0  0  0
 15 21  1  0  0  0  0
 16 20  2  0  0  0  0
 16 23  1  0  0  0  0
 17 22  1  0  0  0  0
 17 38  1  0  0  0  0
 17 39  1  0  0  0  0
 18 40  1  0  0  0  0
 18 41  1  0  0  0  0
 18 42  1  0  0  0  0
 19 43  1  0  0  0  0
 19 44  1  0  0  0  0
 20 22  1  0  0  0  0
 20 45  1  0  0  0  0
 21 46  1  0  0  0  0
 21 47  1  0  0  0  0
 21 48  1  0  0  0  0
 23 49  1  0  0  0  0
 23 50  1  0  0  0  0
 23 51  1  0  0  0  0
 24 25  1  0  0  0  0
 24 53  1  0  0  0  0
 25 26  1  0  0  0  0
 25 54  1  0  0  0  0
 26 27  1  0  0  0  0
 26 55  1  0  0  0  0
 27 28  1  0  0  0  0
 27 56  1  0  0  0  0
 28 29  1  0  0  0  0
 28 57  1  0  0  0  0
 29 58  1  0  0  0  0
 29 59  1  0  0  0  0
M  END
>  <PUBCHEM_COMPOUND_CID>
131751091

>  <PUBCHEM_COMPOUND_CANONICALIZED>
1

>  <PUBCHEM_CACTVS_COMPLEXITY>
651

>  <PUBCHEM_CACTVS_HBOND_ACCEPTOR>
8

>  <PUBCHEM_CACTVS_HBOND_DONOR>
5

>  <PUBCHEM_CACTVS_ROTATABLE_BOND>
5

>  <PUBCHEM_CACTVS_SUBSKEYS>
AAADcfB4PAAAAAAAAAAAAAAAAAAAAYAAAAAkQAAAAAAAAAAAAAAAGgAACAAAD1SwgAMCCAAABgCIAqBSAAAAAAAgAAAACAEAAEgREBIAAQAiQAAFgAAPAQPI6PyPgAAAAAAAAAAAAAAAAAAAAQAAAAAAAA==

>  <PUBCHEM_IUPAC_OPENEYE_NAME>
3-[1-hydroxy-1-methyl-2-[3,4,5-trihydroxy-6-(hydroxymethyl)tetrahydropyran-2-yl]oxy-ethyl]-6,10-dimethyl-spiro[4.5]dec-9-en-8-one

>  <PUBCHEM_IUPAC_CAS_NAME>
3-[2-hydroxy-1-[[3,4,5-trihydroxy-6-(hydroxymethyl)-2-oxanyl]oxy]propan-2-yl]-6,10-dimethyl-8-spiro[4.5]dec-9-enone

>  <PUBCHEM_IUPAC_NAME>
3-[2-hydroxy-1-[3,4,5-trihydroxy-6-(hydroxymethyl)oxan-2-yl]oxypropan-2-yl]-6,10-dimethylspiro[4.5]dec-9-en-8-one

>  <PUBCHEM_IUPAC_SYSTEMATIC_NAME>
3-[1-[6-(hydroxymethyl)-3,4,5-tris(oxidanyl)oxan-2-yl]oxy-2-oxidanyl-propan-2-yl]-6,10-dimethyl-spiro[4.5]dec-9-en-8-one

>  <PUBCHEM_IUPAC_TRADITIONAL_NAME>
3-[1-hydroxy-1-methyl-2-(3,4,5-trihydroxy-6-methylol-tetrahydropyran-2-yl)oxy-ethyl]-6,10-dimethyl-spiro[4.5]dec-9-en-8-one

>  <PUBCHEM_IUPAC_INCHI>
InChI=1S/C21H34O8/c1-11-6-14(23)7-12(2)21(11)5-4-13(8-21)20(3,27)10-28-19-18(26)17(25)16(24)15(9-22)29-19/h6,12-13,15-19,22,24-27H,4-5,7-10H2,1-3H3

>  <PUBCHEM_IUPAC_INCHIKEY>
FSQYQQPZIHCQMQ-UHFFFAOYSA-N

>  <PUBCHEM_EXACT_MASS>
414.225

>  <PUBCHEM_MOLECULAR_FORMULA>
C21H34O8

>  <PUBCHEM_MOLECULAR_WEIGHT>
414.495

>  <PUBCHEM_OPENEYE_CAN_SMILES>
CC1CC(=O)C=C(C12CCC(C2)C(C)(COC3C(C(C(C(O3)CO)O)O)O)O)C

>  <PUBCHEM_OPENEYE_ISO_SMILES>
CC1CC(=O)C=C(C12CCC(C2)C(C)(COC3C(C(C(C(O3)CO)O)O)O)O)C

>  <PUBCHEM_CACTVS_TPSA>
137

>  <PUBCHEM_MONOISOTOPIC_WEIGHT>
414.225

>  <PUBCHEM_TOTAL_CHARGE>
0

>  <PUBCHEM_HEAVY_ATOM_COUNT>
29

>  <PUBCHEM_ATOM_DEF_STEREO_COUNT>
0

>  <PUBCHEM_ATOM_UDEF_STEREO_COUNT>
9

>  <PUBCHEM_BOND_DEF_STEREO_COUNT>
0

>  <PUBCHEM_BOND_UDEF_STEREO_COUNT>
0

>  <PUBCHEM_ISOTOPIC_ATOM_COUNT>
0

>  <PUBCHEM_COMPONENT_COUNT>
1

>  <PUBCHEM_CACTVS_TAUTO_COUNT>
5

>  <PUBCHEM_COORDINATE_TYPE>
1
5
255

>  <PUBCHEM_BONDANNOTATIONS>
15  1  3
10  13  3
14  18  3
24  2  3
28  29  3
25  5  3
26  6  3
27  7  3
9  12  3

$$$$
