131752200
 OpenBabel06101807152D

 47 49  0  0  0  0  0  0  0  0999 V2000
    2.5369    1.9154    0.0000 O   0  0  0  0  0  0  0  0  0  0  0  0
    8.6270   -0.6193    0.0000 O   0  0  0  0  0  0  0  0  0  0  0  0
    6.8671    2.4154    0.0000 O   0  0  0  0  0  0  0  0  0  0  0  0
    5.1350   -0.5846    0.0000 O   0  0  0  0  0  0  0  0  0  0  0  0
    8.6155    2.4500    0.0000 O   0  0  0  0  0  0  0  0  0  0  0  0
    9.5254   -2.1054    0.0000 O   0  0  0  0  0  0  0  0  0  0  0  0
   12.9895   -2.1188    0.0000 O   0  0  0  0  0  0  0  0  0  0  0  0
    3.4030    1.4154    0.0000 C   0  0  0  0  0  0  0  0  0  0  0  0
    4.2690    0.9154    0.0000 C   0  0  0  0  0  0  0  0  0  0  0  0
    5.1350    1.4154    0.0000 C   0  0  0  0  0  0  0  0  0  0  0  0
    6.0010    0.9154    0.0000 C   0  0  0  0  0  0  0  0  0  0  0  0
    2.9030    0.5494    0.0000 C   0  0  0  0  0  0  0  0  0  0  0  0
    3.9030    2.2814    0.0000 C   0  0  0  0  0  0  0  0  0  0  0  0
    6.8671    1.4154    0.0000 C   0  0  0  0  0  0  0  0  0  0  0  0
    7.7331    0.9154    0.0000 C   0  0  0  0  0  0  0  0  0  0  0  0
    6.0010   -0.0846    0.0000 C   0  0  0  0  0  0  0  0  0  0  0  0
    7.7331   -0.0846    0.0000 C   0  0  0  0  0  0  0  0  0  0  0  0
    6.8671   -0.5846    0.0000 C   0  0  0  0  0  0  0  0  0  0  0  0
    8.6270    1.4501    0.0000 C   0  0  0  0  0  0  0  0  0  0  0  0
    9.5331   -0.1054    0.0000 C   0  0  0  0  0  0  0  0  0  0  0  0
    9.5331    0.9362    0.0000 C   0  0  0  0  0  0  0  0  0  0  0  0
   10.3972   -0.6088    0.0000 C   0  0  0  0  0  0  0  0  0  0  0  0
   10.3933   -1.6087    0.0000 C   0  0  0  0  0  0  0  0  0  0  0  0
   11.2651   -0.1121    0.0000 C   0  0  0  0  0  0  0  0  0  0  0  0
   11.2574   -2.1121    0.0000 C   0  0  0  0  0  0  0  0  0  0  0  0
   12.1292   -0.6154    0.0000 C   0  0  0  0  0  0  0  0  0  0  0  0
   12.1254   -1.6154    0.0000 C   0  0  0  0  0  0  0  0  0  0  0  0
    3.8705    0.4404    0.0000 H   0  0  0  0  0  0  0  0  0  0  0  0
    4.6675    0.4404    0.0000 H   0  0  0  0  0  0  0  0  0  0  0  0
    5.5335    1.8904    0.0000 H   0  0  0  0  0  0  0  0  0  0  0  0
    4.7365    1.8904    0.0000 H   0  0  0  0  0  0  0  0  0  0  0  0
    4.4399    1.9714    0.0000 H   0  0  0  0  0  0  0  0  0  0  0  0
    4.2130    2.8184    0.0000 H   0  0  0  0  0  0  0  0  0  0  0  0
    2.3660    0.8594    0.0000 H   0  0  0  0  0  0  0  0  0  0  0  0
    2.5930    0.0124    0.0000 H   0  0  0  0  0  0  0  0  0  0  0  0
    3.4399    0.2394    0.0000 H   0  0  0  0  0  0  0  0  0  0  0  0
    3.3660    2.5914    0.0000 H   0  0  0  0  0  0  0  0  0  0  0  0
    6.8671   -1.2046    0.0000 H   0  0  0  0  0  0  0  0  0  0  0  0
    2.0000    1.6054    0.0000 H   0  0  0  0  0  0  0  0  0  0  0  0
   10.0688    1.2483    0.0000 H   0  0  0  0  0  0  0  0  0  0  0  0
    6.3301    2.7254    0.0000 H   0  0  0  0  0  0  0  0  0  0  0  0
    5.1350   -1.2046    0.0000 H   0  0  0  0  0  0  0  0  0  0  0  0
   11.2675    0.5079    0.0000 H   0  0  0  0  0  0  0  0  0  0  0  0
   11.2550   -2.7321    0.0000 H   0  0  0  0  0  0  0  0  0  0  0  0
   12.6674   -0.3075    0.0000 H   0  0  0  0  0  0  0  0  0  0  0  0
    9.5230   -2.7254    0.0000 H   0  0  0  0  0  0  0  0  0  0  0  0
   13.5276   -1.8108    0.0000 H   0  0  0  0  0  0  0  0  0  0  0  0
  1  8  1  0  0  0  0
  1 39  1  0  0  0  0
  2 17  1  0  0  0  0
  2 20  1  0  0  0  0
  3 14  1  0  0  0  0
  3 41  1  0  0  0  0
  4 16  1  0  0  0  0
  4 42  1  0  0  0  0
  5 19  2  0  0  0  0
  6 23  1  0  0  0  0
  6 46  1  0  0  0  0
  7 27  1  0  0  0  0
  7 47  1  0  0  0  0
  8  9  1  0  0  0  0
  8 12  1  0  0  0  0
  8 13  1  0  0  0  0
  9 10  1  0  0  0  0
  9 28  1  0  0  0  0
  9 29  1  0  0  0  0
 10 11  1  0  0  0  0
 10 30  1  0  0  0  0
 10 31  1  0  0  0  0
 11 14  2  0  0  0  0
 11 16  1  0  0  0  0
 12 34  1  0  0  0  0
 12 35  1  0  0  0  0
 12 36  1  0  0  0  0
 13 32  1  0  0  0  0
 13 33  1  0  0  0  0
 13 37  1  0  0  0  0
 14 15  1  0  0  0  0
 15 17  2  0  0  0  0
 15 19  1  0  0  0  0
 16 18  2  0  0  0  0
 17 18  1  0  0  0  0
 18 38  1  0  0  0  0
 19 21  1  0  0  0  0
 20 21  2  0  0  0  0
 20 22  1  0  0  0  0
 21 40  1  0  0  0  0
 22 23  2  0  0  0  0
 22 24  1  0  0  0  0
 23 25  1  0  0  0  0
 24 26  2  0  0  0  0
 24 43  1  0  0  0  0
 25 27  2  0  0  0  0
 25 44  1  0  0  0  0
 26 27  1  0  0  0  0
 26 45  1  0  0  0  0
M  END
>  <PUBCHEM_COMPOUND_CID>
131752200

>  <PUBCHEM_COMPOUND_CANONICALIZED>
1

>  <PUBCHEM_CACTVS_COMPLEXITY>
587

>  <PUBCHEM_CACTVS_HBOND_ACCEPTOR>
7

>  <PUBCHEM_CACTVS_HBOND_DONOR>
5

>  <PUBCHEM_CACTVS_ROTATABLE_BOND>
4

>  <PUBCHEM_CACTVS_SUBSKEYS>
AAADceB4OAAAAAAAAAAAAAAAAAAAAAAAAAAwYIAAAAAAAACBQAAAGgAACAAADESAmAAyBoAABgCIAqBSAAACCAAkIAAIiAEGCMgMJzaGNRqCeWCl4BUIuQeI7PzOIAACCAAIAABAAAQQABAAAAAAAAAAAA==

>  <PUBCHEM_IUPAC_OPENEYE_NAME>
2-(2,4-dihydroxyphenyl)-5,7-dihydroxy-6-(3-hydroxy-3-methyl-butyl)chromen-4-one

>  <PUBCHEM_IUPAC_CAS_NAME>
2-(2,4-dihydroxyphenyl)-5,7-dihydroxy-6-(3-hydroxy-3-methylbutyl)-1-benzopyran-4-one

>  <PUBCHEM_IUPAC_NAME>
2-(2,4-dihydroxyphenyl)-5,7-dihydroxy-6-(3-hydroxy-3-methylbutyl)chromen-4-one

>  <PUBCHEM_IUPAC_SYSTEMATIC_NAME>
2-[2,4-bis(oxidanyl)phenyl]-6-(3-methyl-3-oxidanyl-butyl)-5,7-bis(oxidanyl)chromen-4-one

>  <PUBCHEM_IUPAC_TRADITIONAL_NAME>
2-(2,4-dihydroxyphenyl)-5,7-dihydroxy-6-(3-hydroxy-3-methyl-butyl)chromone

>  <PUBCHEM_IUPAC_INCHI>
InChI=1S/C20H20O7/c1-20(2,26)6-5-12-14(23)8-17-18(19(12)25)15(24)9-16(27-17)11-4-3-10(21)7-13(11)22/h3-4,7-9,21-23,25-26H,5-6H2,1-2H3

>  <PUBCHEM_IUPAC_INCHIKEY>
HRSXJJYSAIZMGH-UHFFFAOYSA-N

>  <PUBCHEM_EXACT_MASS>
372.121

>  <PUBCHEM_MOLECULAR_FORMULA>
C20H20O7

>  <PUBCHEM_MOLECULAR_WEIGHT>
372.373

>  <PUBCHEM_OPENEYE_CAN_SMILES>
CC(C)(CCC1=C(C=C2C(=C1O)C(=O)C=C(O2)C3=C(C=C(C=C3)O)O)O)O

>  <PUBCHEM_OPENEYE_ISO_SMILES>
CC(C)(CCC1=C(C=C2C(=C1O)C(=O)C=C(O2)C3=C(C=C(C=C3)O)O)O)O

>  <PUBCHEM_CACTVS_TPSA>
127

>  <PUBCHEM_MONOISOTOPIC_WEIGHT>
372.121

>  <PUBCHEM_TOTAL_CHARGE>
0

>  <PUBCHEM_HEAVY_ATOM_COUNT>
27

>  <PUBCHEM_ATOM_DEF_STEREO_COUNT>
0

>  <PUBCHEM_ATOM_UDEF_STEREO_COUNT>
0

>  <PUBCHEM_BOND_DEF_STEREO_COUNT>
0

>  <PUBCHEM_BOND_UDEF_STEREO_COUNT>
0

>  <PUBCHEM_ISOTOPIC_ATOM_COUNT>
0

>  <PUBCHEM_COMPONENT_COUNT>
1

>  <PUBCHEM_CACTVS_TAUTO_COUNT>
171

>  <PUBCHEM_COORDINATE_TYPE>
1
5
255

>  <PUBCHEM_BONDANNOTATIONS>
11  14  8
11  16  8
14  15  8
15  17  8
15  19  8
16  18  8
17  18  8
19  21  8
2  17  8
2  20  8
20  21  8
22  23  8
22  24  8
23  25  8
24  26  8
25  27  8
26  27  8

$$$$
