131751703
 OpenBabel06101807152D

 98101  0  0  1  0  0  0  0  0999 V2000
   12.9942   -4.8787    0.0000 O   0  0  0  0  0  0  0  0  0  0  0  0
    4.6783    4.7084    0.0000 O   0  0  0  0  0  0  0  0  0  0  0  0
   12.1279   -5.3792    0.0000 C   0  0  3  0  0  0  0  0  0  0  0  0
   12.9939   -5.8792    0.0000 C   0  0  3  0  0  0  0  0  0  0  0  0
   11.2619   -5.8792    0.0000 C   0  0  0  0  0  0  0  0  0  0  0  0
   12.9939   -6.8792    0.0000 C   0  0  0  0  0  0  0  0  0  0  0  0
   11.2619   -6.8792    0.0000 C   0  0  0  0  0  0  0  0  0  0  0  0
   12.1279   -7.3792    0.0000 C   0  0  0  0  0  0  0  0  0  0  0  0
   13.8600   -6.3792    0.0000 C   0  0  0  0  0  0  0  0  0  0  0  0
   11.2619   -4.8792    0.0000 C   0  0  0  0  0  0  0  0  0  0  0  0
   10.3959   -6.3791    0.0000 C   0  0  0  0  0  0  0  0  0  0  0  0
   10.2771   -5.7055    0.0000 C   0  0  0  0  0  0  0  0  0  0  0  0
   10.7619   -4.0131    0.0000 C   0  0  0  0  0  0  0  0  0  0  0  0
   11.2619   -3.1471    0.0000 C   0  0  0  0  0  0  0  0  0  0  0  0
    3.7320    5.0131    0.0000 C   0  0  3  0  0  0  0  0  0  0  0  0
    2.8660    6.5131    0.0000 C   0  0  0  0  0  0  0  0  0  0  0  0
    3.7320    6.0131    0.0000 C   0  0  0  0  0  0  0  0  0  0  0  0
    2.8660    4.5131    0.0000 C   0  0  0  0  0  0  0  0  0  0  0  0
    2.0000    6.0131    0.0000 C   0  0  0  0  0  0  0  0  0  0  0  0
    2.0000    5.0131    0.0000 C   0  0  0  0  0  0  0  0  0  0  0  0
   12.2619   -3.1471    0.0000 C   0  0  0  0  0  0  0  0  0  0  0  0
   10.7619   -2.2811    0.0000 C   0  0  0  0  0  0  0  0  0  0  0  0
    4.6783    6.3179    0.0000 C   0  0  0  0  0  0  0  0  0  0  0  0
    5.2619    5.5131    0.0000 C   0  0  3  0  0  0  0  0  0  0  0  0
    3.7320    4.0131    0.0000 C   0  0  0  0  0  0  0  0  0  0  0  0
    2.3660    7.3792    0.0000 C   0  0  0  0  0  0  0  0  0  0  0  0
    3.3660    7.3792    0.0000 C   0  0  0  0  0  0  0  0  0  0  0  0
    6.2619    5.5131    0.0000 C   0  0  0  0  0  0  0  0  0  0  0  0
    9.7619   -2.2811    0.0000 C   0  0  0  0  0  0  0  0  0  0  0  0
    6.7619    6.3792    0.0000 C   0  0  0  0  0  0  0  0  0  0  0  0
    6.7619    4.6471    0.0000 C   0  0  0  0  0  0  0  0  0  0  0  0
    9.2619   -1.4151    0.0000 C   0  0  0  0  0  0  0  0  0  0  0  0
    6.2619    3.7811    0.0000 C   0  0  0  0  0  0  0  0  0  0  0  0
    8.2619   -1.4151    0.0000 C   0  0  0  0  0  0  0  0  0  0  0  0
    6.7619    2.9151    0.0000 C   0  0  0  0  0  0  0  0  0  0  0  0
    7.7619   -2.2811    0.0000 C   0  0  0  0  0  0  0  0  0  0  0  0
    7.7619   -0.5490    0.0000 C   0  0  0  0  0  0  0  0  0  0  0  0
    6.2619    2.0490    0.0000 C   0  0  0  0  0  0  0  0  0  0  0  0
    6.7619   -0.5490    0.0000 C   0  0  0  0  0  0  0  0  0  0  0  0
    6.7619    1.1830    0.0000 C   0  0  0  0  0  0  0  0  0  0  0  0
    5.2619    2.0490    0.0000 C   0  0  0  0  0  0  0  0  0  0  0  0
    6.2619    0.3170    0.0000 C   0  0  0  0  0  0  0  0  0  0  0  0
   13.2060   -7.4618    0.0000 H   0  0  0  0  0  0  0  0  0  0  0  0
   13.6045   -6.7715    0.0000 H   0  0  0  0  0  0  0  0  0  0  0  0
   10.6513   -6.7715    0.0000 H   0  0  0  0  0  0  0  0  0  0  0  0
   11.0498   -7.4618    0.0000 H   0  0  0  0  0  0  0  0  0  0  0  0
   11.7294   -7.8541    0.0000 H   0  0  0  0  0  0  0  0  0  0  0  0
   12.5264   -7.8541    0.0000 H   0  0  0  0  0  0  0  0  0  0  0  0
   13.5500   -6.9161    0.0000 H   0  0  0  0  0  0  0  0  0  0  0  0
   14.3969   -6.6892    0.0000 H   0  0  0  0  0  0  0  0  0  0  0  0
   14.1700   -5.8422    0.0000 H   0  0  0  0  0  0  0  0  0  0  0  0
   10.7870   -5.2777    0.0000 H   0  0  0  0  0  0  0  0  0  0  0  0
   10.0859   -5.8422    0.0000 H   0  0  0  0  0  0  0  0  0  0  0  0
    9.8589   -6.6891    0.0000 H   0  0  0  0  0  0  0  0  0  0  0  0
   10.7058   -6.9160    0.0000 H   0  0  0  0  0  0  0  0  0  0  0  0
   10.3848   -5.0950    0.0000 H   0  0  0  0  0  0  0  0  0  0  0  0
    9.6665   -5.5979    0.0000 H   0  0  0  0  0  0  0  0  0  0  0  0
   10.1694   -6.3161    0.0000 H   0  0  0  0  0  0  0  0  0  0  0  0
   10.1419   -4.0131    0.0000 H   0  0  0  0  0  0  0  0  0  0  0  0
    2.4675    4.0382    0.0000 H   0  0  0  0  0  0  0  0  0  0  0  0
    3.2646    4.0382    0.0000 H   0  0  0  0  0  0  0  0  0  0  0  0
    1.7880    6.5958    0.0000 H   0  0  0  0  0  0  0  0  0  0  0  0
    1.3894    5.9055    0.0000 H   0  0  0  0  0  0  0  0  0  0  0  0
    1.3894    5.1208    0.0000 H   0  0  0  0  0  0  0  0  0  0  0  0
    1.7880    4.4305    0.0000 H   0  0  0  0  0  0  0  0  0  0  0  0
   12.2619   -3.7671    0.0000 H   0  0  0  0  0  0  0  0  0  0  0  0
   12.8819   -3.1471    0.0000 H   0  0  0  0  0  0  0  0  0  0  0  0
   12.2619   -2.5271    0.0000 H   0  0  0  0  0  0  0  0  0  0  0  0
   11.0719   -1.7442    0.0000 H   0  0  0  0  0  0  0  0  0  0  0  0
    4.8709    6.9072    0.0000 H   0  0  0  0  0  0  0  0  0  0  0  0
    5.5436    4.9608    0.0000 H   0  0  0  0  0  0  0  0  0  0  0  0
    3.1120    4.0131    0.0000 H   0  0  0  0  0  0  0  0  0  0  0  0
    3.7320    3.3931    0.0000 H   0  0  0  0  0  0  0  0  0  0  0  0
    4.3520    4.0131    0.0000 H   0  0  0  0  0  0  0  0  0  0  0  0
    3.9030    7.0692    0.0000 H   0  0  0  0  0  0  0  0  0  0  0  0
    2.9030    7.6892    0.0000 H   0  0  0  0  0  0  0  0  0  0  0  0
    2.0560    7.9161    0.0000 H   0  0  0  0  0  0  0  0  0  0  0  0
    1.8291    7.0692    0.0000 H   0  0  0  0  0  0  0  0  0  0  0  0
    3.6760    7.9161    0.0000 H   0  0  0  0  0  0  0  0  0  0  0  0
    2.8291    7.6892    0.0000 H   0  0  0  0  0  0  0  0  0  0  0  0
    9.4519   -2.8180    0.0000 H   0  0  0  0  0  0  0  0  0  0  0  0
    7.2988    6.0692    0.0000 H   0  0  0  0  0  0  0  0  0  0  0  0
    7.0719    6.9161    0.0000 H   0  0  0  0  0  0  0  0  0  0  0  0
    6.2249    6.6892    0.0000 H   0  0  0  0  0  0  0  0  0  0  0  0
    7.3819    4.6471    0.0000 H   0  0  0  0  0  0  0  0  0  0  0  0
    9.5719   -0.8781    0.0000 H   0  0  0  0  0  0  0  0  0  0  0  0
    5.6419    3.7811    0.0000 H   0  0  0  0  0  0  0  0  0  0  0  0
    7.3819    2.9151    0.0000 H   0  0  0  0  0  0  0  0  0  0  0  0
    7.2249   -1.9711    0.0000 H   0  0  0  0  0  0  0  0  0  0  0  0
    7.4519   -2.8180    0.0000 H   0  0  0  0  0  0  0  0  0  0  0  0
    8.2988   -2.5911    0.0000 H   0  0  0  0  0  0  0  0  0  0  0  0
    8.0719   -0.0121    0.0000 H   0  0  0  0  0  0  0  0  0  0  0  0
    6.4519   -1.0860    0.0000 H   0  0  0  0  0  0  0  0  0  0  0  0
    7.3819    1.1830    0.0000 H   0  0  0  0  0  0  0  0  0  0  0  0
    5.2619    2.6690    0.0000 H   0  0  0  0  0  0  0  0  0  0  0  0
    4.6419    2.0490    0.0000 H   0  0  0  0  0  0  0  0  0  0  0  0
    5.2619    1.4290    0.0000 H   0  0  0  0  0  0  0  0  0  0  0  0
    5.6419    0.3170    0.0000 H   0  0  0  0  0  0  0  0  0  0  0  0
  1  3  1  0  0  0  0
  1  4  1  0  0  0  0
  2 15  1  0  0  0  0
  2 24  1  0  0  0  0
  3  4  1  0  0  0  0
  3  5  1  0  0  0  0
  3 10  1  0  0  0  0
  4  6  1  0  0  0  0
  4  9  1  0  0  0  0
  5  7  1  0  0  0  0
  5 11  1  0  0  0  0
  5 12  1  0  0  0  0
  6  8  1  0  0  0  0
  6 43  1  0  0  0  0
  6 44  1  0  0  0  0
  7  8  1  0  0  0  0
  7 45  1  0  0  0  0
  7 46  1  0  0  0  0
  8 47  1  0  0  0  0
  8 48  1  0  0  0  0
  9 49  1  0  0  0  0
  9 50  1  0  0  0  0
  9 51  1  0  0  0  0
 10 13  2  0  0  0  0
 10 52  1  0  0  0  0
 11 53  1  0  0  0  0
 11 54  1  0  0  0  0
 11 55  1  0  0  0  0
 12 56  1  0  0  0  0
 12 57  1  0  0  0  0
 12 58  1  0  0  0  0
 13 14  1  0  0  0  0
 13 59  1  0  0  0  0
 14 21  1  0  0  0  0
 14 22  2  0  0  0  0
 15 17  1  0  0  0  0
 15 18  1  0  0  0  0
 15 25  1  0  0  0  0
 16 17  1  0  0  0  0
 16 19  1  0  0  0  0
 16 26  1  0  0  0  0
 16 27  1  0  0  0  0
 17 23  2  0  0  0  0
 18 20  1  0  0  0  0
 18 60  1  0  0  0  0
 18 61  1  0  0  0  0
 19 20  1  0  0  0  0
 19 62  1  0  0  0  0
 19 63  1  0  0  0  0
 20 64  1  0  0  0  0
 20 65  1  0  0  0  0
 21 66  1  0  0  0  0
 21 67  1  0  0  0  0
 21 68  1  0  0  0  0
 22 29  1  0  0  0  0
 22 69  1  0  0  0  0
 23 24  1  0  0  0  0
 23 70  1  0  0  0  0
 24 28  1  0  0  0  0
 24 71  1  0  0  0  0
 25 72  1  0  0  0  0
 25 73  1  0  0  0  0
 25 74  1  0  0  0  0
 26 76  1  0  0  0  0
 26 77  1  0  0  0  0
 26 78  1  0  0  0  0
 27 75  1  0  0  0  0
 27 79  1  0  0  0  0
 27 80  1  0  0  0  0
 28 30  1  0  0  0  0
 28 31  2  0  0  0  0
 29 32  2  0  0  0  0
 29 81  1  0  0  0  0
 30 82  1  0  0  0  0
 30 83  1  0  0  0  0
 30 84  1  0  0  0  0
 31 33  1  0  0  0  0
 31 85  1  0  0  0  0
 32 34  1  0  0  0  0
 32 86  1  0  0  0  0
 33 35  2  0  0  0  0
 33 87  1  0  0  0  0
 34 36  1  0  0  0  0
 34 37  2  0  0  0  0
 35 38  1  0  0  0  0
 35 88  1  0  0  0  0
 36 89  1  0  0  0  0
 36 90  1  0  0  0  0
 36 91  1  0  0  0  0
 37 39  1  0  0  0  0
 37 92  1  0  0  0  0
 38 40  2  0  0  0  0
 38 41  1  0  0  0  0
 39 42  2  0  0  0  0
 39 93  1  0  0  0  0
 40 42  1  0  0  0  0
 40 94  1  0  0  0  0
 41 95  1  0  0  0  0
 41 96  1  0  0  0  0
 41 97  1  0  0  0  0
 42 98  1  0  0  0  0
M  END
>  <PUBCHEM_COMPOUND_CID>
131751703

>  <PUBCHEM_COMPOUND_CANONICALIZED>
1

>  <PUBCHEM_CACTVS_COMPLEXITY>
1300

>  <PUBCHEM_CACTVS_HBOND_ACCEPTOR>
2

>  <PUBCHEM_CACTVS_HBOND_DONOR>
0

>  <PUBCHEM_CACTVS_ROTATABLE_BOND>
9

>  <PUBCHEM_CACTVS_SUBSKEYS>
AAADcfB8MAAAAAAAAAAAAAAAEgAAAQAAAAAwYAAABIAAAEAAAAAAGgAAAAAADlSggAICAAAABACAAiBCAAAAAAAgAAAICAAAAAgIBAIAIQACEAAEwAAIoAOAwPAPgAAAAAAAAAAAAAYAADAAAAAAAAAAAA==

>  <PUBCHEM_IUPAC_OPENEYE_NAME>
4,4,7a-trimethyl-2-[(1Z,3E,5E,7Z,9E,11E,13Z,15Z)-1,5,10,14-tetramethyl-16-(1,5,5-trimethyl-7-oxabicyclo[4.1.0]heptan-6-yl)hexadeca-1,3,5,7,9,11,13,15-octaenyl]-2,5,6,7-tetrahydrobenzofuran

>  <PUBCHEM_IUPAC_CAS_NAME>
4,4,7a-trimethyl-2-[(2Z,4E,6E,8Z,10E,12E,14Z,16Z)-6,11,15-trimethyl-17-(1,5,5-trimethyl-7-oxabicyclo[4.1.0]heptan-6-yl)heptadeca-2,4,6,8,10,12,14,16-octaen-2-yl]-2,5,6,7-tetrahydrobenzofuran

>  <PUBCHEM_IUPAC_NAME>
4,4,7a-trimethyl-2-[(2Z,4E,6E,8Z,10E,12E,14Z,16Z)-6,11,15-trimethyl-17-(1,5,5-trimethyl-7-oxabicyclo[4.1.0]heptan-6-yl)heptadeca-2,4,6,8,10,12,14,16-octaen-2-yl]-2,5,6,7-tetrahydro-1-benzofuran

>  <PUBCHEM_IUPAC_SYSTEMATIC_NAME>
4,4,7a-trimethyl-2-[(2Z,4E,6E,8Z,10E,12E,14Z,16Z)-6,11,15-trimethyl-17-(1,5,5-trimethyl-7-oxabicyclo[4.1.0]heptan-6-yl)heptadeca-2,4,6,8,10,12,14,16-octaen-2-yl]-2,5,6,7-tetrahydro-1-benzofuran

>  <PUBCHEM_IUPAC_TRADITIONAL_NAME>
4,4,7a-trimethyl-2-[(1Z,3E,5E,7Z,9E,11E,13Z,15Z)-1,5,10,14-tetramethyl-16-(1,5,5-trimethyl-7-oxabicyclo[4.1.0]heptan-6-yl)hexadeca-1,3,5,7,9,11,13,15-octaenyl]-2,5,6,7-tetrahydrobenzofuran

>  <PUBCHEM_IUPAC_INCHI>
InChI=1S/C40H56O2/c1-30(19-13-20-32(3)23-28-40-37(7,8)25-16-27-39(40,10)42-40)17-11-12-18-31(2)21-14-22-33(4)34-29-35-36(5,6)24-15-26-38(35,9)41-34/h11-14,17-23,28-29,34H,15-16,24-27H2,1-10H3/b12-11-,19-13+,21-14+,28-23-,30-17+,31-18+,32-20-,33-22-

>  <PUBCHEM_IUPAC_INCHIKEY>
HSOIPJLINDKQOV-VCAYJPBHSA-N

>  <PUBCHEM_EXACT_MASS>
568.428

>  <PUBCHEM_MOLECULAR_FORMULA>
C40H56O2

>  <PUBCHEM_MOLECULAR_WEIGHT>
568.886

>  <PUBCHEM_OPENEYE_CAN_SMILES>
CC(=CC=CC=C(C)C=CC=C(C)C1C=C2C(CCCC2(O1)C)(C)C)C=CC=C(C)C=CC34C(CCCC3(O4)C)(C)C

>  <PUBCHEM_OPENEYE_ISO_SMILES>
C/C(=C\C=C/C=C(\C)/C=C/C=C(/C)\C1C=C2C(CCCC2(O1)C)(C)C)/C=C/C=C(/C)\C=C/C34C(CCCC3(O4)C)(C)C

>  <PUBCHEM_CACTVS_TPSA>
21.8

>  <PUBCHEM_MONOISOTOPIC_WEIGHT>
568.428

>  <PUBCHEM_TOTAL_CHARGE>
0

>  <PUBCHEM_HEAVY_ATOM_COUNT>
42

>  <PUBCHEM_ATOM_DEF_STEREO_COUNT>
0

>  <PUBCHEM_ATOM_UDEF_STEREO_COUNT>
4

>  <PUBCHEM_BOND_DEF_STEREO_COUNT>
8

>  <PUBCHEM_BOND_UDEF_STEREO_COUNT>
0

>  <PUBCHEM_ISOTOPIC_ATOM_COUNT>
0

>  <PUBCHEM_COMPONENT_COUNT>
1

>  <PUBCHEM_CACTVS_TAUTO_COUNT>
41

>  <PUBCHEM_COORDINATE_TYPE>
1
5
255

>  <PUBCHEM_BONDANNOTATIONS>
15  25  3
24  28  3
3  10  3
4  9  3

$$$$
