131750918
 OpenBabel06101807152D

105105  0  0  1  0  0  0  0  0999 V2000
    3.3660    4.1340    0.0000 O   0  0  0  0  0  0  0  0  0  0  0  0
    2.8660    5.0000    0.0000 C   0  0  0  0  0  0  0  0  0  0  0  0
    3.8660    5.0000    0.0000 C   0  0  3  0  0  0  0  0  0  0  0  0
    4.7320    5.5000    0.0000 C   0  0  0  0  0  0  0  0  0  0  0  0
    2.8660    6.0000    0.0000 C   0  0  0  0  0  0  0  0  0  0  0  0
    2.0000    4.5000    0.0000 C   0  0  0  0  0  0  0  0  0  0  0  0
    5.5981    5.0000    0.0000 C   0  0  0  0  0  0  0  0  0  0  0  0
    6.4641    5.5000    0.0000 C   0  0  0  0  0  0  0  0  0  0  0  0
    6.4641    6.5000    0.0000 C   0  0  0  0  0  0  0  0  0  0  0  0
    7.3301    5.0000    0.0000 C   0  0  0  0  0  0  0  0  0  0  0  0
    8.1962    5.5000    0.0000 C   0  0  0  0  0  0  0  0  0  0  0  0
    9.0622    5.0000    0.0000 C   0  0  0  0  0  0  0  0  0  0  0  0
    9.9282    5.5000    0.0000 C   0  0  0  0  0  0  0  0  0  0  0  0
   10.7942    5.0000    0.0000 C   0  0  0  0  0  0  0  0  0  0  0  0
    9.9282    6.5000    0.0000 C   0  0  0  0  0  0  0  0  0  0  0  0
   21.1865   -5.0000    0.0000 C   0  0  0  0  0  0  0  0  0  0  0  0
   22.0526   -5.5000    0.0000 C   0  0  0  0  0  0  0  0  0  0  0  0
   11.6603    5.5000    0.0000 C   0  0  0  0  0  0  0  0  0  0  0  0
   21.1865   -4.0000    0.0000 C   0  0  0  0  0  0  0  0  0  0  0  0
   20.3205   -3.5000    0.0000 C   0  0  0  0  0  0  0  0  0  0  0  0
   12.5263    5.0000    0.0000 C   0  0  0  0  0  0  0  0  0  0  0  0
   22.0526   -6.5000    0.0000 C   0  0  0  0  0  0  0  0  0  0  0  0
   22.9186   -5.0000    0.0000 C   0  0  0  0  0  0  0  0  0  0  0  0
   20.3205   -2.5000    0.0000 C   0  0  0  0  0  0  0  0  0  0  0  0
   19.4545   -2.0000    0.0000 C   0  0  0  0  0  0  0  0  0  0  0  0
   19.4545   -1.0000    0.0000 C   0  0  0  0  0  0  0  0  0  0  0  0
   13.3923    5.5000    0.0000 C   0  0  0  0  0  0  0  0  0  0  0  0
   21.1865   -2.0000    0.0000 C   0  0  0  0  0  0  0  0  0  0  0  0
   18.5885   -0.5000    0.0000 C   0  0  0  0  0  0  0  0  0  0  0  0
   13.3923    6.5000    0.0000 C   0  0  0  0  0  0  0  0  0  0  0  0
   18.5885    0.5000    0.0000 C   0  0  0  0  0  0  0  0  0  0  0  0
   14.2583    5.0000    0.0000 C   0  0  0  0  0  0  0  0  0  0  0  0
   19.4545    1.0000    0.0000 C   0  0  0  0  0  0  0  0  0  0  0  0
   17.7224    1.0000    0.0000 C   0  0  0  0  0  0  0  0  0  0  0  0
   14.2583    4.0000    0.0000 C   0  0  0  0  0  0  0  0  0  0  0  0
   17.7224    2.0000    0.0000 C   0  0  0  0  0  0  0  0  0  0  0  0
   15.1244    3.5000    0.0000 C   0  0  0  0  0  0  0  0  0  0  0  0
   16.8564    2.5000    0.0000 C   0  0  0  0  0  0  0  0  0  0  0  0
   15.9904    2.0000    0.0000 C   0  0  0  0  0  0  0  0  0  0  0  0
   15.1244    2.5000    0.0000 C   0  0  0  0  0  0  0  0  0  0  0  0
   15.9904    1.0000    0.0000 C   0  0  0  0  0  0  0  0  0  0  0  0
    4.3044    4.5616    0.0000 H   0  0  0  0  0  0  0  0  0  0  0  0
    5.1306    5.9750    0.0000 H   0  0  0  0  0  0  0  0  0  0  0  0
    4.3335    5.9750    0.0000 H   0  0  0  0  0  0  0  0  0  0  0  0
    3.4860    6.0000    0.0000 H   0  0  0  0  0  0  0  0  0  0  0  0
    2.8660    6.6200    0.0000 H   0  0  0  0  0  0  0  0  0  0  0  0
    2.2460    6.0000    0.0000 H   0  0  0  0  0  0  0  0  0  0  0  0
    1.6900    5.0369    0.0000 H   0  0  0  0  0  0  0  0  0  0  0  0
    1.4631    4.1900    0.0000 H   0  0  0  0  0  0  0  0  0  0  0  0
    2.3100    3.9631    0.0000 H   0  0  0  0  0  0  0  0  0  0  0  0
    5.1996    4.5250    0.0000 H   0  0  0  0  0  0  0  0  0  0  0  0
    5.9966    4.5250    0.0000 H   0  0  0  0  0  0  0  0  0  0  0  0
    7.0841    6.5000    0.0000 H   0  0  0  0  0  0  0  0  0  0  0  0
    6.4641    7.1200    0.0000 H   0  0  0  0  0  0  0  0  0  0  0  0
    5.8441    6.5000    0.0000 H   0  0  0  0  0  0  0  0  0  0  0  0
    7.3301    4.3800    0.0000 H   0  0  0  0  0  0  0  0  0  0  0  0
    8.5947    5.9750    0.0000 H   0  0  0  0  0  0  0  0  0  0  0  0
    7.7976    5.9750    0.0000 H   0  0  0  0  0  0  0  0  0  0  0  0
    8.6636    4.5250    0.0000 H   0  0  0  0  0  0  0  0  0  0  0  0
    9.4607    4.5250    0.0000 H   0  0  0  0  0  0  0  0  0  0  0  0
   10.7942    4.3800    0.0000 H   0  0  0  0  0  0  0  0  0  0  0  0
   10.5482    6.5000    0.0000 H   0  0  0  0  0  0  0  0  0  0  0  0
    9.9282    7.1200    0.0000 H   0  0  0  0  0  0  0  0  0  0  0  0
    9.3082    6.5000    0.0000 H   0  0  0  0  0  0  0  0  0  0  0  0
   20.5760   -4.8923    0.0000 H   0  0  0  0  0  0  0  0  0  0  0  0
   20.9745   -5.5826    0.0000 H   0  0  0  0  0  0  0  0  0  0  0  0
   22.0526   -4.8800    0.0000 H   0  0  0  0  0  0  0  0  0  0  0  0
   21.7971   -4.1077    0.0000 H   0  0  0  0  0  0  0  0  0  0  0  0
   21.3986   -3.4174    0.0000 H   0  0  0  0  0  0  0  0  0  0  0  0
   12.0588    5.9750    0.0000 H   0  0  0  0  0  0  0  0  0  0  0  0
   11.2617    5.9750    0.0000 H   0  0  0  0  0  0  0  0  0  0  0  0
   19.7099   -3.3923    0.0000 H   0  0  0  0  0  0  0  0  0  0  0  0
   20.1085   -4.0826    0.0000 H   0  0  0  0  0  0  0  0  0  0  0  0
   12.1278    4.5250    0.0000 H   0  0  0  0  0  0  0  0  0  0  0  0
   12.9248    4.5250    0.0000 H   0  0  0  0  0  0  0  0  0  0  0  0
   23.2286   -5.5369    0.0000 H   0  0  0  0  0  0  0  0  0  0  0  0
   21.4326   -6.5000    0.0000 H   0  0  0  0  0  0  0  0  0  0  0  0
   22.0526   -7.1200    0.0000 H   0  0  0  0  0  0  0  0  0  0  0  0
   22.6726   -6.5000    0.0000 H   0  0  0  0  0  0  0  0  0  0  0  0
   23.4555   -4.6900    0.0000 H   0  0  0  0  0  0  0  0  0  0  0  0
   22.6086   -4.4631    0.0000 H   0  0  0  0  0  0  0  0  0  0  0  0
   18.9175   -2.3100    0.0000 H   0  0  0  0  0  0  0  0  0  0  0  0
   20.0651   -1.1077    0.0000 H   0  0  0  0  0  0  0  0  0  0  0  0
   19.6665   -0.4174    0.0000 H   0  0  0  0  0  0  0  0  0  0  0  0
   21.4965   -2.5369    0.0000 H   0  0  0  0  0  0  0  0  0  0  0  0
   21.7235   -1.6900    0.0000 H   0  0  0  0  0  0  0  0  0  0  0  0
   20.8765   -1.4631    0.0000 H   0  0  0  0  0  0  0  0  0  0  0  0
   17.9779   -0.3923    0.0000 H   0  0  0  0  0  0  0  0  0  0  0  0
   18.3764   -1.0826    0.0000 H   0  0  0  0  0  0  0  0  0  0  0  0
   14.0123    6.5000    0.0000 H   0  0  0  0  0  0  0  0  0  0  0  0
   13.3923    7.1200    0.0000 H   0  0  0  0  0  0  0  0  0  0  0  0
   12.7723    6.5000    0.0000 H   0  0  0  0  0  0  0  0  0  0  0  0
   14.7953    5.3100    0.0000 H   0  0  0  0  0  0  0  0  0  0  0  0
   19.7645    0.4631    0.0000 H   0  0  0  0  0  0  0  0  0  0  0  0
   19.9914    1.3100    0.0000 H   0  0  0  0  0  0  0  0  0  0  0  0
   19.1445    1.5369    0.0000 H   0  0  0  0  0  0  0  0  0  0  0  0
   17.1855    0.6900    0.0000 H   0  0  0  0  0  0  0  0  0  0  0  0
   13.7214    3.6900    0.0000 H   0  0  0  0  0  0  0  0  0  0  0  0
   18.2594    2.3100    0.0000 H   0  0  0  0  0  0  0  0  0  0  0  0
   15.6613    3.8100    0.0000 H   0  0  0  0  0  0  0  0  0  0  0  0
   16.8564    3.1200    0.0000 H   0  0  0  0  0  0  0  0  0  0  0  0
   14.5874    2.1900    0.0000 H   0  0  0  0  0  0  0  0  0  0  0  0
   15.3704    1.0000    0.0000 H   0  0  0  0  0  0  0  0  0  0  0  0
   15.9904    0.3800    0.0000 H   0  0  0  0  0  0  0  0  0  0  0  0
   16.6104    1.0000    0.0000 H   0  0  0  0  0  0  0  0  0  0  0  0
  1  2  1  0  0  0  0
  1  3  1  0  0  0  0
  2  3  1  0  0  0  0
  2  5  1  0  0  0  0
  2  6  1  0  0  0  0
  3  4  1  0  0  0  0
  3 42  1  0  0  0  0
  4  7  1  0  0  0  0
  4 43  1  0  0  0  0
  4 44  1  0  0  0  0
  5 45  1  0  0  0  0
  5 46  1  0  0  0  0
  5 47  1  0  0  0  0
  6 48  1  0  0  0  0
  6 49  1  0  0  0  0
  6 50  1  0  0  0  0
  7  8  1  0  0  0  0
  7 51  1  0  0  0  0
  7 52  1  0  0  0  0
  8  9  1  0  0  0  0
  8 10  2  0  0  0  0
  9 53  1  0  0  0  0
  9 54  1  0  0  0  0
  9 55  1  0  0  0  0
 10 11  1  0  0  0  0
 10 56  1  0  0  0  0
 11 12  1  0  0  0  0
 11 57  1  0  0  0  0
 11 58  1  0  0  0  0
 12 13  1  0  0  0  0
 12 59  1  0  0  0  0
 12 60  1  0  0  0  0
 13 14  2  0  0  0  0
 13 15  1  0  0  0  0
 14 18  1  0  0  0  0
 14 61  1  0  0  0  0
 15 62  1  0  0  0  0
 15 63  1  0  0  0  0
 15 64  1  0  0  0  0
 16 17  1  0  0  0  0
 16 19  1  0  0  0  0
 16 65  1  0  0  0  0
 16 66  1  0  0  0  0
 17 22  1  0  0  0  0
 17 23  1  0  0  0  0
 17 67  1  0  0  0  0
 18 21  1  0  0  0  0
 18 70  1  0  0  0  0
 18 71  1  0  0  0  0
 19 20  1  0  0  0  0
 19 68  1  0  0  0  0
 19 69  1  0  0  0  0
 20 24  1  0  0  0  0
 20 72  1  0  0  0  0
 20 73  1  0  0  0  0
 21 27  1  0  0  0  0
 21 74  1  0  0  0  0
 21 75  1  0  0  0  0
 22 77  1  0  0  0  0
 22 78  1  0  0  0  0
 22 79  1  0  0  0  0
 23 76  1  0  0  0  0
 23 80  1  0  0  0  0
 23 81  1  0  0  0  0
 24 25  2  0  0  0  0
 24 28  1  0  0  0  0
 25 26  1  0  0  0  0
 25 82  1  0  0  0  0
 26 29  1  0  0  0  0
 26 83  1  0  0  0  0
 26 84  1  0  0  0  0
 27 30  1  0  0  0  0
 27 32  2  0  0  0  0
 28 85  1  0  0  0  0
 28 86  1  0  0  0  0
 28 87  1  0  0  0  0
 29 31  1  0  0  0  0
 29 88  1  0  0  0  0
 29 89  1  0  0  0  0
 30 90  1  0  0  0  0
 30 91  1  0  0  0  0
 30 92  1  0  0  0  0
 31 33  1  0  0  0  0
 31 34  2  0  0  0  0
 32 35  1  0  0  0  0
 32 93  1  0  0  0  0
 33 94  1  0  0  0  0
 33 95  1  0  0  0  0
 33 96  1  0  0  0  0
 34 36  1  0  0  0  0
 34 97  1  0  0  0  0
 35 37  2  0  0  0  0
 35 98  1  0  0  0  0
 36 38  2  0  0  0  0
 36 99  1  0  0  0  0
 37 40  1  0  0  0  0
 37100  1  0  0  0  0
 38 39  1  0  0  0  0
 38101  1  0  0  0  0
 39 40  2  0  0  0  0
 39 41  1  0  0  0  0
 40102  1  0  0  0  0
 41103  1  0  0  0  0
 41104  1  0  0  0  0
 41105  1  0  0  0  0
M  END
>  <PUBCHEM_COMPOUND_CID>
131750918

>  <PUBCHEM_COMPOUND_CANONICALIZED>
1

>  <PUBCHEM_CACTVS_COMPLEXITY>
999

>  <PUBCHEM_CACTVS_HBOND_ACCEPTOR>
1

>  <PUBCHEM_CACTVS_HBOND_DONOR>
0

>  <PUBCHEM_CACTVS_ROTATABLE_BOND>
20

>  <PUBCHEM_CACTVS_SUBSKEYS>
AAADcfB8IAAAAAAAAAAAAAAAEgAAAAAAAAAAAAAAAAAAAAAAAAAAGgAAAAAADVSggAICAAAABACAAiBCAAAAAAAgAAAICAAAAAgIAAIAAQACAAAEgAAIgAOAwEAMAAAAAAAAAAAAAAAAAAAAAAAAAAAAAA==

>  <PUBCHEM_IUPAC_OPENEYE_NAME>
3-[(3E,7E,11Z,13E,15Z,17Z,19E,23E)-3,7,11,16,20,24,28-heptamethylnonacosa-3,7,11,13,15,17,19,23-octaenyl]-2,2-dimethyl-oxirane

>  <PUBCHEM_IUPAC_CAS_NAME>
3-[(3E,7E,11Z,13E,15Z,17Z,19E,23E)-3,7,11,16,20,24,28-heptamethylnonacosa-3,7,11,13,15,17,19,23-octaenyl]-2,2-dimethyloxirane

>  <PUBCHEM_IUPAC_NAME>
3-[(3E,7E,11Z,13E,15Z,17Z,19E,23E)-3,7,11,16,20,24,28-heptamethylnonacosa-3,7,11,13,15,17,19,23-octaenyl]-2,2-dimethyloxirane

>  <PUBCHEM_IUPAC_SYSTEMATIC_NAME>
3-[(3E,7E,11Z,13E,15Z,17Z,19E,23E)-3,7,11,16,20,24,28-heptamethylnonacosa-3,7,11,13,15,17,19,23-octaenyl]-2,2-dimethyl-oxirane

>  <PUBCHEM_IUPAC_TRADITIONAL_NAME>
3-[(3E,7E,11Z,13E,15Z,17Z,19E,23E)-3,7,11,16,20,24,28-heptamethylnonacosa-3,7,11,13,15,17,19,23-octaenyl]-2,2-dimethyl-oxirane

>  <PUBCHEM_IUPAC_INCHI>
InChI=1S/C40H64O/c1-32(2)18-13-21-35(5)24-16-27-36(6)25-14-22-33(3)19-11-12-20-34(4)23-15-26-37(7)28-17-29-38(8)30-31-39-40(9,10)41-39/h11-12,14,19-20,22,24-26,29,32,39H,13,15-18,21,23,27-28,30-31H2,1-10H3/b12-11+,22-14-,33-19-,34-20-,35-24+,36-25+,37-26+,38-29+

>  <PUBCHEM_IUPAC_INCHIKEY>
DAYCXLCMSBTHAA-RVWKVOMOSA-N

>  <PUBCHEM_EXACT_MASS>
560.496

>  <PUBCHEM_MOLECULAR_FORMULA>
C40H64O

>  <PUBCHEM_MOLECULAR_WEIGHT>
560.951

>  <PUBCHEM_OPENEYE_CAN_SMILES>
CC(C)CCCC(=CCCC(=CC=CC(=CC=CC=C(C)CCC=C(C)CCC=C(C)CCC1C(O1)(C)C)C)C)C

>  <PUBCHEM_OPENEYE_ISO_SMILES>
CC(C)CCC/C(=C/CC/C(=C/C=C\C(=C/C=C/C=C(/C)\CC/C=C(\C)/CC/C=C(\C)/CCC1C(O1)(C)C)\C)/C)/C

>  <PUBCHEM_CACTVS_TPSA>
12.5

>  <PUBCHEM_MONOISOTOPIC_WEIGHT>
560.496

>  <PUBCHEM_TOTAL_CHARGE>
0

>  <PUBCHEM_HEAVY_ATOM_COUNT>
41

>  <PUBCHEM_ATOM_DEF_STEREO_COUNT>
0

>  <PUBCHEM_ATOM_UDEF_STEREO_COUNT>
1

>  <PUBCHEM_BOND_DEF_STEREO_COUNT>
8

>  <PUBCHEM_BOND_UDEF_STEREO_COUNT>
0

>  <PUBCHEM_ISOTOPIC_ATOM_COUNT>
0

>  <PUBCHEM_COMPONENT_COUNT>
1

>  <PUBCHEM_CACTVS_TAUTO_COUNT>
62

>  <PUBCHEM_COORDINATE_TYPE>
1
5
255

>  <PUBCHEM_BONDANNOTATIONS>
3  4  3

$$$$
