131751376
 OpenBabel06101807152D

 48 50  0  0  1  0  0  0  0  0999 V2000
    5.1350   -1.2997    0.0000 O   0  0  0  0  0  0  0  0  0  0  0  0
    6.8671   -1.2997    0.0000 O   0  0  0  0  0  0  0  0  0  0  0  0
    5.1350   -4.2997    0.0000 O   0  0  0  0  0  0  0  0  0  0  0  0
    3.4030   -3.2997    0.0000 O   0  0  0  0  0  0  0  0  0  0  0  0
    6.8671   -3.2997    0.0000 O   0  0  0  0  0  0  0  0  0  0  0  0
    2.5369   -1.7997    0.0000 O   0  0  0  0  0  0  0  0  0  0  0  0
    8.5991   -0.2997    0.0000 O   0  0  0  0  0  0  0  0  0  0  0  0
    7.8376    4.1948    0.0000 N   0  0  0  0  0  0  0  0  0  0  0  0
    8.6466    2.7936    0.0000 N   0  0  0  0  0  0  0  0  0  0  0  0
    5.1350   -3.2997    0.0000 C   0  0  3  0  0  0  0  0  0  0  0  0
    4.2690   -2.7997    0.0000 C   0  0  3  0  0  0  0  0  0  0  0  0
    6.0010   -2.7997    0.0000 C   0  0  3  0  0  0  0  0  0  0  0  0
    4.2690   -1.7997    0.0000 C   0  0  3  0  0  0  0  0  0  0  0  0
    6.0010   -1.7997    0.0000 C   0  0  3  0  0  0  0  0  0  0  0  0
    3.4030   -1.2997    0.0000 C   0  0  0  0  0  0  0  0  0  0  0  0
    6.8671   -0.2997    0.0000 C   0  0  0  0  0  0  0  0  0  0  0  0
    7.7331    0.2003    0.0000 C   0  0  0  0  0  0  0  0  0  0  0  0
    6.0010    0.2003    0.0000 C   0  0  0  0  0  0  0  0  0  0  0  0
    6.8671    1.7003    0.0000 C   0  0  0  0  0  0  0  0  0  0  0  0
    7.7331    1.2003    0.0000 C   0  0  0  0  0  0  0  0  0  0  0  0
    6.0010    1.2003    0.0000 C   0  0  0  0  0  0  0  0  0  0  0  0
    6.8671    2.7003    0.0000 C   0  0  0  0  0  0  0  0  0  0  0  0
    7.7331    3.2003    0.0000 C   0  0  0  0  0  0  0  0  0  0  0  0
    9.4651    0.2003    0.0000 C   0  0  0  0  0  0  0  0  0  0  0  0
    8.8158    4.4027    0.0000 C   0  0  0  0  0  0  0  0  0  0  0  0
    9.3158    3.5367    0.0000 C   0  0  0  0  0  0  0  0  0  0  0  0
    4.5981   -3.6097    0.0000 H   0  0  0  0  0  0  0  0  0  0  0  0
    4.2690   -3.4197    0.0000 H   0  0  0  0  0  0  0  0  0  0  0  0
    6.0010   -3.4197    0.0000 H   0  0  0  0  0  0  0  0  0  0  0  0
    4.2690   -1.1797    0.0000 H   0  0  0  0  0  0  0  0  0  0  0  0
    6.0010   -1.1797    0.0000 H   0  0  0  0  0  0  0  0  0  0  0  0
    3.8015   -0.8247    0.0000 H   0  0  0  0  0  0  0  0  0  0  0  0
    3.0044   -0.8247    0.0000 H   0  0  0  0  0  0  0  0  0  0  0  0
    4.5981   -4.6097    0.0000 H   0  0  0  0  0  0  0  0  0  0  0  0
    3.4030   -3.9197    0.0000 H   0  0  0  0  0  0  0  0  0  0  0  0
    6.8671   -3.9197    0.0000 H   0  0  0  0  0  0  0  0  0  0  0  0
    2.0000   -1.4897    0.0000 H   0  0  0  0  0  0  0  0  0  0  0  0
    5.4641   -0.1097    0.0000 H   0  0  0  0  0  0  0  0  0  0  0  0
    8.2700    1.5103    0.0000 H   0  0  0  0  0  0  0  0  0  0  0  0
    5.4641    1.5103    0.0000 H   0  0  0  0  0  0  0  0  0  0  0  0
    6.6550    3.2829    0.0000 H   0  0  0  0  0  0  0  0  0  0  0  0
    6.2565    2.5926    0.0000 H   0  0  0  0  0  0  0  0  0  0  0  0
    7.3769    4.6097    0.0000 H   0  0  0  0  0  0  0  0  0  0  0  0
    9.7751   -0.3366    0.0000 H   0  0  0  0  0  0  0  0  0  0  0  0
   10.0021    0.5103    0.0000 H   0  0  0  0  0  0  0  0  0  0  0  0
    9.1551    0.7372    0.0000 H   0  0  0  0  0  0  0  0  0  0  0  0
    9.0679    4.9691    0.0000 H   0  0  0  0  0  0  0  0  0  0  0  0
    9.9324    3.4719    0.0000 H   0  0  0  0  0  0  0  0  0  0  0  0
  1 13  1  0  0  0  0
  1 14  1  0  0  0  0
  2 14  1  0  0  0  0
  2 16  1  0  0  0  0
  3 10  1  0  0  0  0
  3 34  1  0  0  0  0
  4 11  1  0  0  0  0
  4 35  1  0  0  0  0
  5 12  1  0  0  0  0
  5 36  1  0  0  0  0
  6 15  1  0  0  0  0
  6 37  1  0  0  0  0
  7 17  1  0  0  0  0
  7 24  1  0  0  0  0
  8 23  1  0  0  0  0
  8 25  1  0  0  0  0
  8 43  1  0  0  0  0
  9 23  2  0  0  0  0
  9 26  1  0  0  0  0
 10 11  1  0  0  0  0
 10 12  1  0  0  0  0
 10 27  1  0  0  0  0
 11 13  1  0  0  0  0
 11 28  1  0  0  0  0
 12 14  1  0  0  0  0
 12 29  1  0  0  0  0
 13 15  1  0  0  0  0
 13 30  1  0  0  0  0
 14 31  1  0  0  0  0
 15 32  1  0  0  0  0
 15 33  1  0  0  0  0
 16 17  2  0  0  0  0
 16 18  1  0  0  0  0
 17 20  1  0  0  0  0
 18 21  2  0  0  0  0
 18 38  1  0  0  0  0
 19 20  2  0  0  0  0
 19 21  1  0  0  0  0
 19 22  1  0  0  0  0
 20 39  1  0  0  0  0
 21 40  1  0  0  0  0
 22 23  1  0  0  0  0
 22 41  1  0  0  0  0
 22 42  1  0  0  0  0
 24 44  1  0  0  0  0
 24 45  1  0  0  0  0
 24 46  1  0  0  0  0
 25 26  2  0  0  0  0
 25 47  1  0  0  0  0
 26 48  1  0  0  0  0
M  END
>  <PUBCHEM_COMPOUND_CID>
131751376

>  <PUBCHEM_COMPOUND_CANONICALIZED>
1

>  <PUBCHEM_CACTVS_COMPLEXITY>
443

>  <PUBCHEM_CACTVS_HBOND_ACCEPTOR>
8

>  <PUBCHEM_CACTVS_HBOND_DONOR>
5

>  <PUBCHEM_CACTVS_ROTATABLE_BOND>
6

>  <PUBCHEM_CACTVS_SUBSKEYS>
AAADceB7OAAAAAAAAAAAAAAAAAAAAWAAAAA0QAAAAAAAAAABwAAAHgAQCAAADBTxmwc/npbJlgCgAjJnZAACiC2xMqAJyYA+uIidfiKEuRu2eCKt0BOPqCfQ8L4OIAABAAAAQABAAAIAAACAAAAAAAAAAA==

>  <PUBCHEM_IUPAC_OPENEYE_NAME>
2-(hydroxymethyl)-6-[4-(1H-imidazol-2-ylmethyl)-2-methoxy-phenoxy]tetrahydropyran-3,4,5-triol

>  <PUBCHEM_IUPAC_CAS_NAME>
2-(hydroxymethyl)-6-[4-(1H-imidazol-2-ylmethyl)-2-methoxyphenoxy]oxane-3,4,5-triol

>  <PUBCHEM_IUPAC_NAME>
2-(hydroxymethyl)-6-[4-(1H-imidazol-2-ylmethyl)-2-methoxyphenoxy]oxane-3,4,5-triol

>  <PUBCHEM_IUPAC_SYSTEMATIC_NAME>
2-(hydroxymethyl)-6-[4-(1H-imidazol-2-ylmethyl)-2-methoxy-phenoxy]oxane-3,4,5-triol

>  <PUBCHEM_IUPAC_TRADITIONAL_NAME>
2-[4-(1H-imidazol-2-ylmethyl)-2-methoxy-phenoxy]-6-methylol-tetrahydropyran-3,4,5-triol

>  <PUBCHEM_IUPAC_INCHI>
InChI=1S/C17H22N2O7/c1-24-11-6-9(7-13-18-4-5-19-13)2-3-10(11)25-17-16(23)15(22)14(21)12(8-20)26-17/h2-6,12,14-17,20-23H,7-8H2,1H3,(H,18,19)

>  <PUBCHEM_IUPAC_INCHIKEY>
ASPNXCICLVYQCJ-UHFFFAOYSA-N

>  <PUBCHEM_EXACT_MASS>
366.143

>  <PUBCHEM_MOLECULAR_FORMULA>
C17H22N2O7

>  <PUBCHEM_MOLECULAR_WEIGHT>
366.37

>  <PUBCHEM_OPENEYE_CAN_SMILES>
COC1=C(C=CC(=C1)CC2=NC=CN2)OC3C(C(C(C(O3)CO)O)O)O

>  <PUBCHEM_OPENEYE_ISO_SMILES>
COC1=C(C=CC(=C1)CC2=NC=CN2)OC3C(C(C(C(O3)CO)O)O)O

>  <PUBCHEM_CACTVS_TPSA>
137

>  <PUBCHEM_MONOISOTOPIC_WEIGHT>
366.143

>  <PUBCHEM_TOTAL_CHARGE>
0

>  <PUBCHEM_HEAVY_ATOM_COUNT>
26

>  <PUBCHEM_ATOM_DEF_STEREO_COUNT>
0

>  <PUBCHEM_ATOM_UDEF_STEREO_COUNT>
5

>  <PUBCHEM_BOND_DEF_STEREO_COUNT>
0

>  <PUBCHEM_BOND_UDEF_STEREO_COUNT>
0

>  <PUBCHEM_ISOTOPIC_ATOM_COUNT>
0

>  <PUBCHEM_COMPONENT_COUNT>
1

>  <PUBCHEM_CACTVS_TAUTO_COUNT>
10

>  <PUBCHEM_COORDINATE_TYPE>
1
5
255

>  <PUBCHEM_BONDANNOTATIONS>
13  15  3
16  17  8
16  18  8
17  20  8
18  21  8
19  20  8
19  21  8
14  2  3
25  26  8
10  3  3
11  4  3
12  5  3
8  23  8
8  25  8
9  23  8
9  26  8

$$$$
