131751373
 OpenBabel06101807152D

 44 44  0  0  1  0  0  0  0  0999 V2000
    4.5981   -0.9050    0.0000 O   0  0  0  0  0  0  0  0  0  0  0  0
    6.3301   -2.9050    0.0000 O   0  0  0  0  0  0  0  0  0  0  0  0
    4.5981   -3.9050    0.0000 O   0  0  0  0  0  0  0  0  0  0  0  0
    2.8660   -2.9050    0.0000 O   0  0  0  0  0  0  0  0  0  0  0  0
    2.8660    0.0950    0.0000 O   0  0  0  0  0  0  0  0  0  0  0  0
    2.0000   -1.4050    0.0000 O   0  0  0  0  0  0  0  0  0  0  0  0
    7.1962    1.5950    0.0000 O   0  0  0  0  0  0  0  0  0  0  0  0
    8.0622    0.0950    0.0000 O   0  0  0  0  0  0  0  0  0  0  0  0
    6.3301   -0.9050    0.0000 N   0  0  0  0  0  0  0  0  0  0  0  0
    3.7320    3.5950    0.0000 N   0  0  0  0  0  0  0  0  0  0  0  0
    5.4641   -2.4050    0.0000 C   0  0  3  0  0  0  0  0  0  0  0  0
    5.4641   -1.4050    0.0000 C   0  0  3  0  0  0  0  0  0  0  0  0
    4.5981   -2.9050    0.0000 C   0  0  3  0  0  0  0  0  0  0  0  0
    3.7320   -2.4050    0.0000 C   0  0  3  0  0  0  0  0  0  0  0  0
    3.7320   -1.4050    0.0000 C   0  0  3  0  0  0  0  0  0  0  0  0
    6.3301    0.0950    0.0000 C   0  0  3  0  0  0  0  0  0  0  0  0
    5.4641    0.5950    0.0000 C   0  0  0  0  0  0  0  0  0  0  0  0
    5.4641    1.5950    0.0000 C   0  0  0  0  0  0  0  0  0  0  0  0
    2.8660   -0.9050    0.0000 C   0  0  0  0  0  0  0  0  0  0  0  0
    7.1962    0.5950    0.0000 C   0  0  0  0  0  0  0  0  0  0  0  0
    4.5981    2.0950    0.0000 C   0  0  0  0  0  0  0  0  0  0  0  0
    4.5981    3.0950    0.0000 C   0  0  0  0  0  0  0  0  0  0  0  0
    5.4641   -3.0250    0.0000 H   0  0  0  0  0  0  0  0  0  0  0  0
    5.4641   -0.7850    0.0000 H   0  0  0  0  0  0  0  0  0  0  0  0
    4.0611   -3.2150    0.0000 H   0  0  0  0  0  0  0  0  0  0  0  0
    3.1951   -2.0950    0.0000 H   0  0  0  0  0  0  0  0  0  0  0  0
    3.7320   -0.7850    0.0000 H   0  0  0  0  0  0  0  0  0  0  0  0
    6.8671   -1.2150    0.0000 H   0  0  0  0  0  0  0  0  0  0  0  0
    6.8671   -0.2150    0.0000 H   0  0  0  0  0  0  0  0  0  0  0  0
    4.8535    0.7027    0.0000 H   0  0  0  0  0  0  0  0  0  0  0  0
    5.2520    0.0124    0.0000 H   0  0  0  0  0  0  0  0  0  0  0  0
    6.0747    1.4873    0.0000 H   0  0  0  0  0  0  0  0  0  0  0  0
    5.6762    2.1776    0.0000 H   0  0  0  0  0  0  0  0  0  0  0  0
    6.3301   -3.5250    0.0000 H   0  0  0  0  0  0  0  0  0  0  0  0
    4.0611   -4.2150    0.0000 H   0  0  0  0  0  0  0  0  0  0  0  0
    2.8660   -3.5250    0.0000 H   0  0  0  0  0  0  0  0  0  0  0  0
    3.9875    2.2027    0.0000 H   0  0  0  0  0  0  0  0  0  0  0  0
    4.3860    1.5124    0.0000 H   0  0  0  0  0  0  0  0  0  0  0  0
    5.2087    2.9873    0.0000 H   0  0  0  0  0  0  0  0  0  0  0  0
    4.8101    3.6776    0.0000 H   0  0  0  0  0  0  0  0  0  0  0  0
    2.3291    0.4050    0.0000 H   0  0  0  0  0  0  0  0  0  0  0  0
    7.7331    1.9050    0.0000 H   0  0  0  0  0  0  0  0  0  0  0  0
    3.7320    4.2150    0.0000 H   0  0  0  0  0  0  0  0  0  0  0  0
    3.1951    3.2850    0.0000 H   0  0  0  0  0  0  0  0  0  0  0  0
  1 12  1  0  0  0  0
  1 15  1  0  0  0  0
  2 11  1  0  0  0  0
  2 34  1  0  0  0  0
  3 13  1  0  0  0  0
  3 35  1  0  0  0  0
  4 14  1  0  0  0  0
  4 36  1  0  0  0  0
  5 19  1  0  0  0  0
  5 41  1  0  0  0  0
  6 19  2  0  0  0  0
  7 20  1  0  0  0  0
  7 42  1  0  0  0  0
  8 20  2  0  0  0  0
  9 12  1  0  0  0  0
  9 16  1  0  0  0  0
  9 28  1  0  0  0  0
 10 22  1  0  0  0  0
 10 43  1  0  0  0  0
 10 44  1  0  0  0  0
 11 12  1  0  0  0  0
 11 13  1  0  0  0  0
 11 23  1  0  0  0  0
 12 24  1  0  0  0  0
 13 14  1  0  0  0  0
 13 25  1  0  0  0  0
 14 15  1  0  0  0  0
 14 26  1  0  0  0  0
 15 19  1  0  0  0  0
 15 27  1  0  0  0  0
 16 17  1  0  0  0  0
 16 20  1  0  0  0  0
 16 29  1  0  0  0  0
 17 18  1  0  0  0  0
 17 30  1  0  0  0  0
 17 31  1  0  0  0  0
 18 21  1  0  0  0  0
 18 32  1  0  0  0  0
 18 33  1  0  0  0  0
 21 22  1  0  0  0  0
 21 37  1  0  0  0  0
 21 38  1  0  0  0  0
 22 39  1  0  0  0  0
 22 40  1  0  0  0  0
M  END
>  <PUBCHEM_COMPOUND_CID>
131751373

>  <PUBCHEM_COMPOUND_CANONICALIZED>
1

>  <PUBCHEM_CACTVS_COMPLEXITY>
393

>  <PUBCHEM_CACTVS_HBOND_ACCEPTOR>
10

>  <PUBCHEM_CACTVS_HBOND_DONOR>
7

>  <PUBCHEM_CACTVS_ROTATABLE_BOND>
8

>  <PUBCHEM_CACTVS_SUBSKEYS>
AAADceBzPAAAAAAAAAAAAAAAAAAAAAAAAAAkAAAAAAAAAAAAAAAAHgAQCAAACDzhgAYACALABgAIAACQCAIAAAAAAAAAAIHIAAEDEBYAgCQOQAAHMACTAAH6fAZAAAAAAAAAAAAAAAAAAAAAAAAAAAAAAA==

>  <PUBCHEM_IUPAC_OPENEYE_NAME>
6-[(5-amino-1-carboxy-pentyl)amino]-3,4,5-trihydroxy-tetrahydropyran-2-carboxylic acid

>  <PUBCHEM_IUPAC_CAS_NAME>
6-[(5-amino-1-carboxypentyl)amino]-3,4,5-trihydroxy-2-oxanecarboxylic acid

>  <PUBCHEM_IUPAC_NAME>
6-[(5-amino-1-carboxypentyl)amino]-3,4,5-trihydroxyoxane-2-carboxylic acid

>  <PUBCHEM_IUPAC_SYSTEMATIC_NAME>
6-[(6-azanyl-1-oxidanyl-1-oxidanylidene-hexan-2-yl)amino]-3,4,5-tris(oxidanyl)oxane-2-carboxylic acid

>  <PUBCHEM_IUPAC_TRADITIONAL_NAME>
6-[(5-amino-1-carboxy-pentyl)amino]-3,4,5-trihydroxy-tetrahydropyran-2-carboxylic acid

>  <PUBCHEM_IUPAC_INCHI>
InChI=1S/C12H22N2O8/c13-4-2-1-3-5(11(18)19)14-10-8(17)6(15)7(16)9(22-10)12(20)21/h5-10,14-17H,1-4,13H2,(H,18,19)(H,20,21)

>  <PUBCHEM_IUPAC_INCHIKEY>
HFIFPDNTHBGIPX-UHFFFAOYSA-N

>  <PUBCHEM_EXACT_MASS>
322.138

>  <PUBCHEM_MOLECULAR_FORMULA>
C12H22N2O8

>  <PUBCHEM_MOLECULAR_WEIGHT>
322.314

>  <PUBCHEM_OPENEYE_CAN_SMILES>
C(CCN)CC(C(=O)O)NC1C(C(C(C(O1)C(=O)O)O)O)O

>  <PUBCHEM_OPENEYE_ISO_SMILES>
C(CCN)CC(C(=O)O)NC1C(C(C(C(O1)C(=O)O)O)O)O

>  <PUBCHEM_CACTVS_TPSA>
183

>  <PUBCHEM_MONOISOTOPIC_WEIGHT>
322.138

>  <PUBCHEM_TOTAL_CHARGE>
0

>  <PUBCHEM_HEAVY_ATOM_COUNT>
22

>  <PUBCHEM_ATOM_DEF_STEREO_COUNT>
0

>  <PUBCHEM_ATOM_UDEF_STEREO_COUNT>
6

>  <PUBCHEM_BOND_DEF_STEREO_COUNT>
0

>  <PUBCHEM_BOND_UDEF_STEREO_COUNT>
0

>  <PUBCHEM_ISOTOPIC_ATOM_COUNT>
0

>  <PUBCHEM_COMPONENT_COUNT>
1

>  <PUBCHEM_CACTVS_TAUTO_COUNT>
1

>  <PUBCHEM_COORDINATE_TYPE>
1
5
255

>  <PUBCHEM_BONDANNOTATIONS>
15  19  3
16  17  3
11  2  3
13  3  3
14  4  3
12  9  3

$$$$
