131751256
 OpenBabel06101807152D

110111  0  0  1  0  0  0  0  0999 V2000
    7.4862   -2.7646    0.0000 O   0  0  0  0  0  0  0  0  0  0  0  0
    7.9761   -0.7342    0.0000 O   0  0  0  0  0  0  0  0  0  0  0  0
    4.7956    0.9641    0.0000 O   0  0  0  0  0  0  0  0  0  0  0  0
    6.9056    2.5603    0.0000 O   0  0  0  0  0  0  0  0  0  0  0  0
    5.2675  -10.4163    0.0000 O   0  0  0  0  0  0  0  0  0  0  0  0
    5.5810  -13.7822    0.0000 O   0  0  0  0  0  0  0  0  0  0  0  0
    7.3411  -13.5035    0.0000 O   0  0  0  0  0  0  0  0  0  0  0  0
    6.8171   -2.0214    0.0000 C   0  0  3  0  0  0  0  0  0  0  0  0
    6.9862   -3.6306    0.0000 C   0  0  3  0  0  0  0  0  0  0  0  0
    5.9036   -2.4282    0.0000 C   0  0  0  0  0  0  0  0  0  0  0  0
    6.0081   -3.4227    0.0000 C   0  0  0  0  0  0  0  0  0  0  0  0
    7.0250   -1.0433    0.0000 C   0  0  3  0  0  0  0  0  0  0  0  0
    7.3930   -4.5441    0.0000 C   0  0  0  0  0  0  0  0  0  0  0  0
    6.2819   -0.3741    0.0000 C   0  0  0  0  0  0  0  0  0  0  0  0
    6.8052   -5.3532    0.0000 C   0  0  0  0  0  0  0  0  0  0  0  0
    6.4898    0.6040    0.0000 C   0  0  0  0  0  0  0  0  0  0  0  0
    7.2119   -6.2667    0.0000 C   0  0  0  0  0  0  0  0  0  0  0  0
    5.7466    1.2731    0.0000 C   0  0  3  0  0  0  0  0  0  0  0  0
    6.6241   -7.0757    0.0000 C   0  0  0  0  0  0  0  0  0  0  0  0
    5.9545    2.2513    0.0000 C   0  0  3  0  0  0  0  0  0  0  0  0
    7.0309   -7.9892    0.0000 C   0  0  0  0  0  0  0  0  0  0  0  0
    5.2114    2.9204    0.0000 C   0  0  0  0  0  0  0  0  0  0  0  0
    6.4431   -8.7983    0.0000 C   0  0  0  0  0  0  0  0  0  0  0  0
    6.8498   -9.7118    0.0000 C   0  0  0  0  0  0  0  0  0  0  0  0
    5.4193    3.8986    0.0000 C   0  0  0  0  0  0  0  0  0  0  0  0
    6.2620  -10.5208    0.0000 C   0  0  3  0  0  0  0  0  0  0  0  0
    6.6688  -11.4344    0.0000 C   0  0  0  0  0  0  0  0  0  0  0  0
    4.6762    4.5677    0.0000 C   0  0  0  0  0  0  0  0  0  0  0  0
    6.0810  -12.2434    0.0000 C   0  0  0  0  0  0  0  0  0  0  0  0
    4.8841    5.5458    0.0000 C   0  0  0  0  0  0  0  0  0  0  0  0
    4.1409    6.2150    0.0000 C   0  0  0  0  0  0  0  0  0  0  0  0
    4.3488    7.1931    0.0000 C   0  0  0  0  0  0  0  0  0  0  0  0
    3.6057    7.8623    0.0000 C   0  0  0  0  0  0  0  0  0  0  0  0
    3.8136    8.8404    0.0000 C   0  0  0  0  0  0  0  0  0  0  0  0
    3.0705    9.5095    0.0000 C   0  0  0  0  0  0  0  0  0  0  0  0
    5.0810  -12.2434    0.0000 C   0  0  0  0  0  0  0  0  0  0  0  0
    3.2784   10.4877    0.0000 C   0  0  0  0  0  0  0  0  0  0  0  0
    4.7720  -13.1945    0.0000 C   0  0  3  0  0  0  0  0  0  0  0  0
    6.3900  -13.1945    0.0000 C   0  0  0  0  0  0  0  0  0  0  0  0
    2.5352   11.1568    0.0000 C   0  0  0  0  0  0  0  0  0  0  0  0
    2.7431   12.1350    0.0000 C   0  0  0  0  0  0  0  0  0  0  0  0
    3.8209  -13.5035    0.0000 C   0  0  0  0  0  0  0  0  0  0  0  0
    2.0000   12.8041    0.0000 C   0  0  0  0  0  0  0  0  0  0  0  0
    2.2079   13.7822    0.0000 C   0  0  0  0  0  0  0  0  0  0  0  0
    7.4160   -1.8610    0.0000 H   0  0  0  0  0  0  0  0  0  0  0  0
    7.6054   -3.6630    0.0000 H   0  0  0  0  0  0  0  0  0  0  0  0
    5.7120   -1.8385    0.0000 H   0  0  0  0  0  0  0  0  0  0  0  0
    5.2971   -2.5571    0.0000 H   0  0  0  0  0  0  0  0  0  0  0  0
    5.3881   -3.4227    0.0000 H   0  0  0  0  0  0  0  0  0  0  0  0
    5.9433   -4.0393    0.0000 H   0  0  0  0  0  0  0  0  0  0  0  0
    7.4858   -1.4581    0.0000 H   0  0  0  0  0  0  0  0  0  0  0  0
    7.8236   -4.9901    0.0000 H   0  0  0  0  0  0  0  0  0  0  0  0
    7.9070   -4.1974    0.0000 H   0  0  0  0  0  0  0  0  0  0  0  0
    5.7070   -0.1419    0.0000 H   0  0  0  0  0  0  0  0  0  0  0  0
    5.9533   -0.8999    0.0000 H   0  0  0  0  0  0  0  0  0  0  0  0
    6.3745   -4.9072    0.0000 H   0  0  0  0  0  0  0  0  0  0  0  0
    6.2912   -5.6998    0.0000 H   0  0  0  0  0  0  0  0  0  0  0  0
    7.0646    0.3718    0.0000 H   0  0  0  0  0  0  0  0  0  0  0  0
    6.8183    1.1298    0.0000 H   0  0  0  0  0  0  0  0  0  0  0  0
    7.6426   -6.7127    0.0000 H   0  0  0  0  0  0  0  0  0  0  0  0
    7.7259   -5.9200    0.0000 H   0  0  0  0  0  0  0  0  0  0  0  0
    5.2859    1.6880    0.0000 H   0  0  0  0  0  0  0  0  0  0  0  0
    6.1934   -6.6297    0.0000 H   0  0  0  0  0  0  0  0  0  0  0  0
    6.1101   -7.4224    0.0000 H   0  0  0  0  0  0  0  0  0  0  0  0
    8.1050   -0.1278    0.0000 H   0  0  0  0  0  0  0  0  0  0  0  0
    6.4153    1.8364    0.0000 H   0  0  0  0  0  0  0  0  0  0  0  0
    7.4616   -8.4352    0.0000 H   0  0  0  0  0  0  0  0  0  0  0  0
    7.5449   -7.6426    0.0000 H   0  0  0  0  0  0  0  0  0  0  0  0
    4.6365    3.1527    0.0000 H   0  0  0  0  0  0  0  0  0  0  0  0
    4.8828    2.3946    0.0000 H   0  0  0  0  0  0  0  0  0  0  0  0
    6.0124   -8.3523    0.0000 H   0  0  0  0  0  0  0  0  0  0  0  0
    5.9291   -9.1450    0.0000 H   0  0  0  0  0  0  0  0  0  0  0  0
    7.2805  -10.1578    0.0000 H   0  0  0  0  0  0  0  0  0  0  0  0
    7.3638   -9.3651    0.0000 H   0  0  0  0  0  0  0  0  0  0  0  0
    4.3348    1.3790    0.0000 H   0  0  0  0  0  0  0  0  0  0  0  0
    5.9942    3.6663    0.0000 H   0  0  0  0  0  0  0  0  0  0  0  0
    5.7479    4.4244    0.0000 H   0  0  0  0  0  0  0  0  0  0  0  0
    5.8976  -11.0224    0.0000 H   0  0  0  0  0  0  0  0  0  0  0  0
    7.0345    3.1668    0.0000 H   0  0  0  0  0  0  0  0  0  0  0  0
    7.0995  -11.8804    0.0000 H   0  0  0  0  0  0  0  0  0  0  0  0
    7.1828  -11.0877    0.0000 H   0  0  0  0  0  0  0  0  0  0  0  0
    4.0865    4.3761    0.0000 H   0  0  0  0  0  0  0  0  0  0  0  0
    5.4737    5.7374    0.0000 H   0  0  0  0  0  0  0  0  0  0  0  0
    3.5661    6.4472    0.0000 H   0  0  0  0  0  0  0  0  0  0  0  0
    3.8124    5.6892    0.0000 H   0  0  0  0  0  0  0  0  0  0  0  0
    5.0153   -9.8499    0.0000 H   0  0  0  0  0  0  0  0  0  0  0  0
    4.9237    6.9609    0.0000 H   0  0  0  0  0  0  0  0  0  0  0  0
    4.6774    7.7189    0.0000 H   0  0  0  0  0  0  0  0  0  0  0  0
    3.0308    8.0945    0.0000 H   0  0  0  0  0  0  0  0  0  0  0  0
    3.2772    7.3365    0.0000 H   0  0  0  0  0  0  0  0  0  0  0  0
    4.3885    8.6082    0.0000 H   0  0  0  0  0  0  0  0  0  0  0  0
    4.1422    9.3662    0.0000 H   0  0  0  0  0  0  0  0  0  0  0  0
    2.4956    9.7418    0.0000 H   0  0  0  0  0  0  0  0  0  0  0  0
    2.7419    8.9837    0.0000 H   0  0  0  0  0  0  0  0  0  0  0  0
    4.7166  -11.7418    0.0000 H   0  0  0  0  0  0  0  0  0  0  0  0
    3.8532   10.2554    0.0000 H   0  0  0  0  0  0  0  0  0  0  0  0
    3.6069   11.0135    0.0000 H   0  0  0  0  0  0  0  0  0  0  0  0
    4.6750  -13.8068    0.0000 H   0  0  0  0  0  0  0  0  0  0  0  0
    1.9604   11.3891    0.0000 H   0  0  0  0  0  0  0  0  0  0  0  0
    2.2067   10.6310    0.0000 H   0  0  0  0  0  0  0  0  0  0  0  0
    3.3180   11.9027    0.0000 H   0  0  0  0  0  0  0  0  0  0  0  0
    3.0717   12.6607    0.0000 H   0  0  0  0  0  0  0  0  0  0  0  0
    3.6293  -12.9138    0.0000 H   0  0  0  0  0  0  0  0  0  0  0  0
    3.2313  -13.6951    0.0000 H   0  0  0  0  0  0  0  0  0  0  0  0
    4.0125  -14.0931    0.0000 H   0  0  0  0  0  0  0  0  0  0  0  0
    1.4252   13.0363    0.0000 H   0  0  0  0  0  0  0  0  0  0  0  0
    1.6714   12.2783    0.0000 H   0  0  0  0  0  0  0  0  0  0  0  0
    2.8144   13.6533    0.0000 H   0  0  0  0  0  0  0  0  0  0  0  0
    2.3368   14.3887    0.0000 H   0  0  0  0  0  0  0  0  0  0  0  0
    1.6015   13.9111    0.0000 H   0  0  0  0  0  0  0  0  0  0  0  0
  1  8  1  0  0  0  0
  1  9  1  0  0  0  0
  2 12  1  0  0  0  0
  2 65  1  0  0  0  0
  3 18  1  0  0  0  0
  3 75  1  0  0  0  0
  4 20  1  0  0  0  0
  4 79  1  0  0  0  0
  5 26  1  0  0  0  0
  5 86  1  0  0  0  0
  6 38  1  0  0  0  0
  6 39  1  0  0  0  0
  7 39  2  0  0  0  0
  8 10  1  0  0  0  0
  8 12  1  0  0  0  0
  8 45  1  0  0  0  0
  9 11  1  0  0  0  0
  9 13  1  0  0  0  0
  9 46  1  0  0  0  0
 10 11  1  0  0  0  0
 10 47  1  0  0  0  0
 10 48  1  0  0  0  0
 11 49  1  0  0  0  0
 11 50  1  0  0  0  0
 12 14  1  0  0  0  0
 12 51  1  0  0  0  0
 13 15  1  0  0  0  0
 13 52  1  0  0  0  0
 13 53  1  0  0  0  0
 14 16  1  0  0  0  0
 14 54  1  0  0  0  0
 14 55  1  0  0  0  0
 15 17  1  0  0  0  0
 15 56  1  0  0  0  0
 15 57  1  0  0  0  0
 16 18  1  0  0  0  0
 16 58  1  0  0  0  0
 16 59  1  0  0  0  0
 17 19  1  0  0  0  0
 17 60  1  0  0  0  0
 17 61  1  0  0  0  0
 18 20  1  0  0  0  0
 18 62  1  0  0  0  0
 19 21  1  0  0  0  0
 19 63  1  0  0  0  0
 19 64  1  0  0  0  0
 20 22  1  0  0  0  0
 20 66  1  0  0  0  0
 21 23  1  0  0  0  0
 21 67  1  0  0  0  0
 21 68  1  0  0  0  0
 22 25  1  0  0  0  0
 22 69  1  0  0  0  0
 22 70  1  0  0  0  0
 23 24  1  0  0  0  0
 23 71  1  0  0  0  0
 23 72  1  0  0  0  0
 24 26  1  0  0  0  0
 24 73  1  0  0  0  0
 24 74  1  0  0  0  0
 25 28  1  0  0  0  0
 25 76  1  0  0  0  0
 25 77  1  0  0  0  0
 26 27  1  0  0  0  0
 26 78  1  0  0  0  0
 27 29  1  0  0  0  0
 27 80  1  0  0  0  0
 27 81  1  0  0  0  0
 28 30  2  0  0  0  0
 28 82  1  0  0  0  0
 29 36  2  0  0  0  0
 29 39  1  0  0  0  0
 30 31  1  0  0  0  0
 30 83  1  0  0  0  0
 31 32  1  0  0  0  0
 31 84  1  0  0  0  0
 31 85  1  0  0  0  0
 32 33  1  0  0  0  0
 32 87  1  0  0  0  0
 32 88  1  0  0  0  0
 33 34  1  0  0  0  0
 33 89  1  0  0  0  0
 33 90  1  0  0  0  0
 34 35  1  0  0  0  0
 34 91  1  0  0  0  0
 34 92  1  0  0  0  0
 35 37  1  0  0  0  0
 35 93  1  0  0  0  0
 35 94  1  0  0  0  0
 36 38  1  0  0  0  0
 36 95  1  0  0  0  0
 37 40  1  0  0  0  0
 37 96  1  0  0  0  0
 37 97  1  0  0  0  0
 38 42  1  0  0  0  0
 38 98  1  0  0  0  0
 40 41  1  0  0  0  0
 40 99  1  0  0  0  0
 40100  1  0  0  0  0
 41 43  1  0  0  0  0
 41101  1  0  0  0  0
 41102  1  0  0  0  0
 42103  1  0  0  0  0
 42104  1  0  0  0  0
 42105  1  0  0  0  0
 43 44  1  0  0  0  0
 43106  1  0  0  0  0
 43107  1  0  0  0  0
 44108  1  0  0  0  0
 44109  1  0  0  0  0
 44110  1  0  0  0  0
M  END
>  <PUBCHEM_COMPOUND_CID>
131751256

>  <PUBCHEM_COMPOUND_CANONICALIZED>
1

>  <PUBCHEM_CACTVS_COMPLEXITY>
797

>  <PUBCHEM_CACTVS_HBOND_ACCEPTOR>
7

>  <PUBCHEM_CACTVS_HBOND_DONOR>
4

>  <PUBCHEM_CACTVS_ROTATABLE_BOND>
27

>  <PUBCHEM_CACTVS_SUBSKEYS>
AAADcfB8OAAAAAAAAAAAAAAAAAAAASIAAAAAAAAAAAAAAAAAAAAAGgAACAAADBSggAICCAAABgCIAiDSCAAAAAAgAAAICAEAAEgBFBIAIQACUAAEwAALIYPK6KyAAAAAAAAAAAAAAAAAAAAAAAAAAAAAAA==

>  <PUBCHEM_IUPAC_OPENEYE_NAME>
4-[2-hydroxy-9-[5-[(E)-1,4,5-trihydroxynonadec-8-enyl]tetrahydrofuran-2-yl]nonyl]-2-methyl-2H-furan-5-one

>  <PUBCHEM_IUPAC_CAS_NAME>
4-[2-hydroxy-9-[5-[(E)-1,4,5-trihydroxynonadec-8-enyl]-2-oxolanyl]nonyl]-2-methyl-2H-furan-5-one

>  <PUBCHEM_IUPAC_NAME>
4-[2-hydroxy-9-[5-[(E)-1,4,5-trihydroxynonadec-8-enyl]oxolan-2-yl]nonyl]-2-methyl-2H-furan-5-one

>  <PUBCHEM_IUPAC_SYSTEMATIC_NAME>
2-methyl-4-[2-oxidanyl-9-[5-[(E)-1,4,5-tris(oxidanyl)nonadec-8-enyl]oxolan-2-yl]nonyl]-2H-furan-5-one

>  <PUBCHEM_IUPAC_TRADITIONAL_NAME>
4-[2-hydroxy-9-[5-[(E)-1,4,5-trihydroxynonadec-8-enyl]tetrahydrofuran-2-yl]nonyl]-2-methyl-2H-furan-5-one

>  <PUBCHEM_IUPAC_INCHI>
InChI=1S/C37H66O7/c1-3-4-5-6-7-8-9-10-11-12-16-19-22-33(39)34(40)24-25-35(41)36-26-23-32(44-36)21-18-15-13-14-17-20-31(38)28-30-27-29(2)43-37(30)42/h12,16,27,29,31-36,38-41H,3-11,13-15,17-26,28H2,1-2H3/b16-12+

>  <PUBCHEM_IUPAC_INCHIKEY>
OOKJEMBYFZCLNC-FOWTUZBSSA-N

>  <PUBCHEM_EXACT_MASS>
622.481

>  <PUBCHEM_MOLECULAR_FORMULA>
C37H66O7

>  <PUBCHEM_MOLECULAR_WEIGHT>
622.928

>  <PUBCHEM_OPENEYE_CAN_SMILES>
CCCCCCCCCCC=CCCC(C(CCC(C1CCC(O1)CCCCCCCC(CC2=CC(OC2=O)C)O)O)O)O

>  <PUBCHEM_OPENEYE_ISO_SMILES>
CCCCCCCCCC/C=C/CCC(C(CCC(C1CCC(O1)CCCCCCCC(CC2=CC(OC2=O)C)O)O)O)O

>  <PUBCHEM_CACTVS_TPSA>
116

>  <PUBCHEM_MONOISOTOPIC_WEIGHT>
622.481

>  <PUBCHEM_TOTAL_CHARGE>
0

>  <PUBCHEM_HEAVY_ATOM_COUNT>
44

>  <PUBCHEM_ATOM_DEF_STEREO_COUNT>
0

>  <PUBCHEM_ATOM_UDEF_STEREO_COUNT>
7

>  <PUBCHEM_BOND_DEF_STEREO_COUNT>
1

>  <PUBCHEM_BOND_UDEF_STEREO_COUNT>
0

>  <PUBCHEM_ISOTOPIC_ATOM_COUNT>
0

>  <PUBCHEM_COMPONENT_COUNT>
1

>  <PUBCHEM_CACTVS_TAUTO_COUNT>
1

>  <PUBCHEM_COORDINATE_TYPE>
1
5
255

>  <PUBCHEM_BONDANNOTATIONS>
12  2  3
18  3  3
38  42  3
20  4  3
26  5  3
8  10  3
9  13  3

$$$$
