131752035
 OpenBabel06101807152D

 35 36  0  0  1  0  0  0  0  0999 V2000
    5.4883    1.3202    0.0000 O   0  0  0  0  0  0  0  0  0  0  0  0
    6.2619   -0.0709    0.0000 O   0  0  0  0  0  0  0  0  0  0  0  0
    3.7320    0.4291    0.0000 C   0  0  1  0  0  0  0  0  0  0  0  0
    4.6783    0.7338    0.0000 C   0  0  2  0  0  0  0  0  0  0  0  0
    3.7320   -0.5709    0.0000 C   0  0  0  0  0  0  0  0  0  0  0  0
    2.8660   -1.0709    0.0000 C   0  0  0  0  0  0  0  0  0  0  0  0
    5.2619   -0.0709    0.0000 C   0  0  1  0  0  0  0  0  0  0  0  0
    4.6783   -0.8756    0.0000 C   0  0  0  0  0  0  0  0  0  0  0  0
    2.0000   -0.5709    0.0000 C   0  0  0  0  0  0  0  0  0  0  0  0
    2.8660    0.9291    0.0000 C   0  0  0  0  0  0  0  0  0  0  0  0
    3.7320    1.4291    0.0000 C   0  0  0  0  0  0  0  0  0  0  0  0
    4.3709    1.6854    0.0000 C   0  0  0  0  0  0  0  0  0  0  0  0
    2.0000    0.4291    0.0000 C   0  0  0  0  0  0  0  0  0  0  0  0
    2.3660   -1.9369    0.0000 C   0  0  0  0  0  0  0  0  0  0  0  0
    3.3660   -1.9369    0.0000 C   0  0  0  0  0  0  0  0  0  0  0  0
    5.5436   -0.6232    0.0000 H   0  0  0  0  0  0  0  0  0  0  0  0
    4.8709   -1.4650    0.0000 H   0  0  0  0  0  0  0  0  0  0  0  0
    1.3894   -0.4632    0.0000 H   0  0  0  0  0  0  0  0  0  0  0  0
    1.7880   -1.1535    0.0000 H   0  0  0  0  0  0  0  0  0  0  0  0
    2.8660    1.5491    0.0000 H   0  0  0  0  0  0  0  0  0  0  0  0
    4.3520    1.4291    0.0000 H   0  0  0  0  0  0  0  0  0  0  0  0
    3.7320    2.0491    0.0000 H   0  0  0  0  0  0  0  0  0  0  0  0
    3.1120    1.4291    0.0000 H   0  0  0  0  0  0  0  0  0  0  0  0
    4.9609    1.8760    0.0000 H   0  0  0  0  0  0  0  0  0  0  0  0
    4.1803    2.2754    0.0000 H   0  0  0  0  0  0  0  0  0  0  0  0
    3.7809    1.4948    0.0000 H   0  0  0  0  0  0  0  0  0  0  0  0
    1.4631    0.7391    0.0000 H   0  0  0  0  0  0  0  0  0  0  0  0
    1.8291   -1.6269    0.0000 H   0  0  0  0  0  0  0  0  0  0  0  0
    2.0560   -2.4739    0.0000 H   0  0  0  0  0  0  0  0  0  0  0  0
    2.9030   -2.2469    0.0000 H   0  0  0  0  0  0  0  0  0  0  0  0
    2.8291   -2.2469    0.0000 H   0  0  0  0  0  0  0  0  0  0  0  0
    3.6760   -2.4739    0.0000 H   0  0  0  0  0  0  0  0  0  0  0  0
    3.9030   -1.6269    0.0000 H   0  0  0  0  0  0  0  0  0  0  0  0
    5.4246    1.9369    0.0000 H   0  0  0  0  0  0  0  0  0  0  0  0
    6.5719   -0.6078    0.0000 H   0  0  0  0  0  0  0  0  0  0  0  0
  1 34  1  0  0  0  0
  2 35  1  0  0  0  0
  3  4  1  1  0  0  0
  3  5  1  0  0  0  0
  3 10  1  0  0  0  0
  3 11  1  0  0  0  0
  4  1  1  0  0  0  0
  4  7  1  6  0  0  0
  4 12  1  0  0  0  0
  5  6  1  0  0  0  0
  5  8  2  0  0  0  0
  6  9  1  0  0  0  0
  6 14  1  0  0  0  0
  6 15  1  0  0  0  0
  7  2  1  0  0  0  0
  7  8  1  0  0  0  0
  7 16  1  1  0  0  0
  8 17  1  0  0  0  0
  9 13  1  0  0  0  0
  9 18  1  0  0  0  0
  9 19  1  0  0  0  0
 10 13  2  0  0  0  0
 10 20  1  0  0  0  0
 11 21  1  0  0  0  0
 11 22  1  0  0  0  0
 11 23  1  0  0  0  0
 12 24  1  0  0  0  0
 12 25  1  0  0  0  0
 12 26  1  0  0  0  0
 13 27  1  0  0  0  0
 14 28  1  0  0  0  0
 14 29  1  0  0  0  0
 14 30  1  0  0  0  0
 15 31  1  0  0  0  0
 15 32  1  0  0  0  0
 15 33  1  0  0  0  0
M  END
>  <PUBCHEM_COMPOUND_CID>
131752035

>  <PUBCHEM_COMPOUND_CANONICALIZED>
1

>  <PUBCHEM_CACTVS_COMPLEXITY>
354

>  <PUBCHEM_CACTVS_HBOND_ACCEPTOR>
2

>  <PUBCHEM_CACTVS_HBOND_DONOR>
2

>  <PUBCHEM_CACTVS_ROTATABLE_BOND>
0

>  <PUBCHEM_CACTVS_SUBSKEYS>
AAADceBwMAAAAAAAAAAAAAAAAAAAAQAAAAAgAAAAAAAAAEAAAAAAGgAACAAADlSggAICAAAAAgCAAiBCAAAAAAAgAAAICAAAAAgBFAIAAQAAUAAEwAAJEAOAwPAPgAAAAAAAAAAAAAAAAAAAAAAAAAAAAA==

>  <PUBCHEM_IUPAC_OPENEYE_NAME>
(1R,2R,7aR)-1,4,4,7a-tetramethyl-2,5-dihydroindene-1,2-diol

>  <PUBCHEM_IUPAC_CAS_NAME>
(1R,2R,7aR)-1,4,4,7a-tetramethyl-2,5-dihydroindene-1,2-diol

>  <PUBCHEM_IUPAC_NAME>
(1R,2R,7aR)-1,4,4,7a-tetramethyl-2,5-dihydroindene-1,2-diol

>  <PUBCHEM_IUPAC_SYSTEMATIC_NAME>
(1R,2R,7aR)-1,4,4,7a-tetramethyl-2,5-dihydroindene-1,2-diol

>  <PUBCHEM_IUPAC_TRADITIONAL_NAME>
(1R,2R,7aR)-1,4,4,7a-tetramethyl-2,5-dihydroindene-1,2-diol

>  <PUBCHEM_IUPAC_INCHI>
InChI=1S/C13H20O2/c1-11(2)6-5-7-12(3)9(11)8-10(14)13(12,4)15/h5,7-8,10,14-15H,6H2,1-4H3/t10-,12-,13+/m1/s1

>  <PUBCHEM_IUPAC_INCHIKEY>
SKBCVUCDJRKPAH-RTXFEEFZSA-N

>  <PUBCHEM_EXACT_MASS>
208.146

>  <PUBCHEM_MOLECULAR_FORMULA>
C13H20O2

>  <PUBCHEM_MOLECULAR_WEIGHT>
208.301

>  <PUBCHEM_OPENEYE_CAN_SMILES>
CC1(CC=CC2(C1=CC(C2(C)O)O)C)C

>  <PUBCHEM_OPENEYE_ISO_SMILES>
C[C@@]12C=CCC(C1=C[C@H]([C@]2(C)O)O)(C)C

>  <PUBCHEM_CACTVS_TPSA>
40.5

>  <PUBCHEM_MONOISOTOPIC_WEIGHT>
208.146

>  <PUBCHEM_TOTAL_CHARGE>
0

>  <PUBCHEM_HEAVY_ATOM_COUNT>
15

>  <PUBCHEM_ATOM_DEF_STEREO_COUNT>
3

>  <PUBCHEM_ATOM_UDEF_STEREO_COUNT>
0

>  <PUBCHEM_BOND_DEF_STEREO_COUNT>
0

>  <PUBCHEM_BOND_UDEF_STEREO_COUNT>
0

>  <PUBCHEM_ISOTOPIC_ATOM_COUNT>
0

>  <PUBCHEM_COMPONENT_COUNT>
1

>  <PUBCHEM_CACTVS_TAUTO_COUNT>
1

>  <PUBCHEM_COORDINATE_TYPE>
1
5
255

>  <PUBCHEM_BONDANNOTATIONS>
4  1  5
7  2  6
3  11  6

$$$$
