131752448
 OpenBabel06101807152D

 54 57  0  0  1  0  0  0  0  0999 V2000
    4.8870    3.3826    0.0000 O   0  0  0  0  0  0  0  0  0  0  0  0
    2.6198   -2.5911    0.0000 O   0  0  0  0  0  0  0  0  0  0  0  0
    7.3668   -1.1073    0.0000 O   0  0  0  0  0  0  0  0  0  0  0  0
    6.1677   -2.3572    0.0000 O   0  0  0  0  0  0  0  0  0  0  0  0
    5.0164   -3.2749    0.0000 O   0  0  0  0  0  0  0  0  0  0  0  0
    3.2846   -3.2446    0.0000 O   0  0  0  0  0  0  0  0  0  0  0  0
    5.8209    0.2910    0.0000 C   0  0  3  0  0  0  0  0  0  0  0  0
    4.9199    0.7248    0.0000 C   0  0  3  0  0  0  0  0  0  0  0  0
    4.2348    0.0045    0.0000 C   0  0  3  0  0  0  0  0  0  0  0  0
    4.7066   -0.8704    0.0000 C   0  0  3  0  0  0  0  0  0  0  0  0
    5.6849   -0.6938    0.0000 C   0  0  3  0  0  0  0  0  0  0  0  0
    5.7140    1.4677    0.0000 C   0  0  0  0  0  0  0  0  0  0  0  0
    4.1767   -1.7600    0.0000 C   0  0  3  0  0  0  0  0  0  0  0  0
    6.7218    0.7248    0.0000 C   0  0  0  0  0  0  0  0  0  0  0  0
    6.3209    2.4816    0.0000 C   0  0  3  0  0  0  0  0  0  0  0  0
    4.6974    1.6998    0.0000 C   0  0  0  0  0  0  0  0  0  0  0  0
    3.2003    0.0506    0.0000 C   0  0  0  0  0  0  0  0  0  0  0  0
    5.3209    2.4816    0.0000 C   0  0  3  0  0  0  0  0  0  0  0  0
    6.9444    1.6998    0.0000 C   0  0  0  0  0  0  0  0  0  0  0  0
    3.7602    0.8847    0.0000 C   0  0  0  0  0  0  0  0  0  0  0  0
    3.1415   -1.7379    0.0000 C   0  0  3  0  0  0  0  0  0  0  0  0
    2.6500   -0.8265    0.0000 C   0  0  0  0  0  0  0  0  0  0  0  0
    6.4065   -1.3861    0.0000 C   0  0  0  0  0  0  0  0  0  0  0  0
    5.0338   -2.2751    0.0000 C   0  0  0  0  0  0  0  0  0  0  0  0
    4.1592   -2.7599    0.0000 C   0  0  0  0  0  0  0  0  0  0  0  0
    7.9193    1.9223    0.0000 C   0  0  0  0  0  0  0  0  0  0  0  0
    4.3220    0.8890    0.0000 H   0  0  0  0  0  0  0  0  0  0  0  0
    5.0598   -1.3800    0.0000 H   0  0  0  0  0  0  0  0  0  0  0  0
    6.2705   -0.4903    0.0000 H   0  0  0  0  0  0  0  0  0  0  0  0
    5.3062    1.9347    0.0000 H   0  0  0  0  0  0  0  0  0  0  0  0
    5.1440    1.2239    0.0000 H   0  0  0  0  0  0  0  0  0  0  0  0
    6.8598    0.1204    0.0000 H   0  0  0  0  0  0  0  0  0  0  0  0
    7.3418    0.7248    0.0000 H   0  0  0  0  0  0  0  0  0  0  0  0
    6.5899    3.0402    0.0000 H   0  0  0  0  0  0  0  0  0  0  0  0
    4.3108    2.1845    0.0000 H   0  0  0  0  0  0  0  0  0  0  0  0
    4.1388    1.4308    0.0000 H   0  0  0  0  0  0  0  0  0  0  0  0
    3.3335    0.6561    0.0000 H   0  0  0  0  0  0  0  0  0  0  0  0
    2.6265    0.2854    0.0000 H   0  0  0  0  0  0  0  0  0  0  0  0
    4.7048    2.5510    0.0000 H   0  0  0  0  0  0  0  0  0  0  0  0
    4.3059    1.1790    0.0000 H   0  0  0  0  0  0  0  0  0  0  0  0
    3.4659    1.4304    0.0000 H   0  0  0  0  0  0  0  0  0  0  0  0
    3.2144    0.5905    0.0000 H   0  0  0  0  0  0  0  0  0  0  0  0
    3.4389   -2.2819    0.0000 H   0  0  0  0  0  0  0  0  0  0  0  0
    2.1890   -0.4120    0.0000 H   0  0  0  0  0  0  0  0  0  0  0  0
    2.1627   -1.2098    0.0000 H   0  0  0  0  0  0  0  0  0  0  0  0
    4.7145   -2.8065    0.0000 H   0  0  0  0  0  0  0  0  0  0  0  0
    5.5653   -2.5944    0.0000 H   0  0  0  0  0  0  0  0  0  0  0  0
    5.3532   -1.7437    0.0000 H   0  0  0  0  0  0  0  0  0  0  0  0
    8.3410    1.4678    0.0000 H   0  0  0  0  0  0  0  0  0  0  0  0
    8.1020    2.5148    0.0000 H   0  0  0  0  0  0  0  0  0  0  0  0
    5.2362    3.8948    0.0000 H   0  0  0  0  0  0  0  0  0  0  0  0
    2.0000   -2.5754    0.0000 H   0  0  0  0  0  0  0  0  0  0  0  0
    7.8142   -1.5366    0.0000 H   0  0  0  0  0  0  0  0  0  0  0  0
    5.0055   -3.8948    0.0000 H   0  0  0  0  0  0  0  0  0  0  0  0
  1 18  1  0  0  0  0
  1 51  1  0  0  0  0
  2 21  1  0  0  0  0
  2 52  1  0  0  0  0
  3 23  1  0  0  0  0
  3 53  1  0  0  0  0
  4 23  2  0  0  0  0
  5 25  1  0  0  0  0
  5 54  1  0  0  0  0
  6 25  2  0  0  0  0
  7  8  1  0  0  0  0
  7 11  1  0  0  0  0
  7 12  1  0  0  0  0
  7 14  1  0  0  0  0
  8  9  1  0  0  0  0
  8 16  1  0  0  0  0
  8 27  1  0  0  0  0
  9 10  1  0  0  0  0
  9 17  1  0  0  0  0
  9 20  1  0  0  0  0
 10 11  1  0  0  0  0
 10 13  1  0  0  0  0
 10 28  1  0  0  0  0
 11 23  1  0  0  0  0
 11 29  1  0  0  0  0
 12 15  1  0  0  0  0
 12 30  1  0  0  0  0
 12 31  1  0  0  0  0
 13 21  1  0  0  0  0
 13 24  1  0  0  0  0
 13 25  1  0  0  0  0
 14 19  1  0  0  0  0
 14 32  1  0  0  0  0
 14 33  1  0  0  0  0
 15 18  1  0  0  0  0
 15 19  1  0  0  0  0
 15 34  1  0  0  0  0
 16 18  1  0  0  0  0
 16 35  1  0  0  0  0
 16 36  1  0  0  0  0
 17 22  1  0  0  0  0
 17 37  1  0  0  0  0
 17 38  1  0  0  0  0
 18 39  1  0  0  0  0
 19 26  2  0  0  0  0
 20 40  1  0  0  0  0
 20 41  1  0  0  0  0
 20 42  1  0  0  0  0
 21 22  1  0  0  0  0
 21 43  1  0  0  0  0
 22 44  1  0  0  0  0
 22 45  1  0  0  0  0
 24 46  1  0  0  0  0
 24 47  1  0  0  0  0
 24 48  1  0  0  0  0
 26 49  1  0  0  0  0
 26 50  1  0  0  0  0
M  END
>  <PUBCHEM_COMPOUND_CID>
131752448

>  <PUBCHEM_COMPOUND_CANONICALIZED>
1

>  <PUBCHEM_CACTVS_COMPLEXITY>
702

>  <PUBCHEM_CACTVS_HBOND_ACCEPTOR>
6

>  <PUBCHEM_CACTVS_HBOND_DONOR>
4

>  <PUBCHEM_CACTVS_ROTATABLE_BOND>
2

>  <PUBCHEM_CACTVS_SUBSKEYS>
AAADceB4OAAAAAAAAAAAAAAAAAAAAYMAAAAwYAAABgAAAGDAAAAAGgAACAAADxSggAICCAAAAgCIAgDSCAAAAAAgAAAAAAEAAAgAEBYAAQAAQAAF4AAAAAGI7vTPgAAAAAAAAADAAAYAADAAAQAACAAAAA==

>  <PUBCHEM_IUPAC_INCHI>
InChI=1S/C20H28O6/c1-9-7-20-8-10(9)11(21)6-12(20)18(2)5-4-13(22)19(3,17(25)26)15(18)14(20)16(23)24/h10-15,21-22H,1,4-8H2,2-3H3,(H,23,24)(H,25,26)

>  <PUBCHEM_IUPAC_INCHIKEY>
RKDWVYHBXWADKI-UHFFFAOYSA-N

>  <PUBCHEM_EXACT_MASS>
364.189

>  <PUBCHEM_MOLECULAR_FORMULA>
C20H28O6

>  <PUBCHEM_MOLECULAR_WEIGHT>
364.438

>  <PUBCHEM_OPENEYE_CAN_SMILES>
CC12CCC(C(C1C(C34C2CC(C(C3)C(=C)C4)O)C(=O)O)(C)C(=O)O)O

>  <PUBCHEM_OPENEYE_ISO_SMILES>
CC12CCC(C(C1C(C34C2CC(C(C3)C(=C)C4)O)C(=O)O)(C)C(=O)O)O

>  <PUBCHEM_CACTVS_TPSA>
115

>  <PUBCHEM_MONOISOTOPIC_WEIGHT>
364.189

>  <PUBCHEM_TOTAL_CHARGE>
0

>  <PUBCHEM_HEAVY_ATOM_COUNT>
26

>  <PUBCHEM_ATOM_DEF_STEREO_COUNT>
0

>  <PUBCHEM_ATOM_UDEF_STEREO_COUNT>
9

>  <PUBCHEM_BOND_DEF_STEREO_COUNT>
0

>  <PUBCHEM_BOND_UDEF_STEREO_COUNT>
0

>  <PUBCHEM_ISOTOPIC_ATOM_COUNT>
0

>  <PUBCHEM_COMPONENT_COUNT>
1

>  <PUBCHEM_CACTVS_TAUTO_COUNT>
1

>  <PUBCHEM_COORDINATE_TYPE>
1
5
255

>  <PUBCHEM_BONDANNOTATIONS>
18  1  3
10  11  3
11  23  3
15  12  3
13  24  3
21  2  3
7  14  3
8  16  3
9  20  3

$$$$
