131752473
 OpenBabel06101807152D

 83 87  0  0  1  0  0  0  0  0999 V2000
    7.0379   -3.2628    0.0000 O   0  0  0  0  0  0  0  0  0  0  0  0
   12.3899    2.9508    0.0000 O   0  0  0  0  0  0  0  0  0  0  0  0
    2.5333   -0.6443    0.0000 O   0  0  0  0  0  0  0  0  0  0  0  0
    8.7820   -0.1936    0.0000 C   0  0  3  0  0  0  0  0  0  0  0  0
    7.9160   -0.6936    0.0000 C   0  0  3  0  0  0  0  0  0  0  0  0
    8.7820    0.8064    0.0000 C   0  0  3  0  0  0  0  0  0  0  0  0
    7.0500   -0.1936    0.0000 C   0  0  3  0  0  0  0  0  0  0  0  0
    9.6760    1.3411    0.0000 C   0  0  3  0  0  0  0  0  0  0  0  0
   10.5820    0.8272    0.0000 C   0  0  3  0  0  0  0  0  0  0  0  0
    6.1400   -0.7004    0.0000 C   0  0  3  0  0  0  0  0  0  0  0  0
    9.6760   -0.7283    0.0000 C   0  0  0  0  0  0  0  0  0  0  0  0
    7.9160    1.3064    0.0000 C   0  0  0  0  0  0  0  0  0  0  0  0
    7.9321   -1.7351    0.0000 C   0  0  0  0  0  0  0  0  0  0  0  0
    7.0500    0.8064    0.0000 C   0  0  0  0  0  0  0  0  0  0  0  0
    6.1319   -1.7420    0.0000 C   0  0  3  0  0  0  0  0  0  0  0  0
   10.5820   -0.2144    0.0000 C   0  0  0  0  0  0  0  0  0  0  0  0
   11.5258    1.3625    0.0000 C   0  0  0  0  0  0  0  0  0  0  0  0
    7.0340   -2.2629    0.0000 C   0  0  3  0  0  0  0  0  0  0  0  0
    9.6509    2.4258    0.0000 C   0  0  0  0  0  0  0  0  0  0  0  0
    9.1241   -1.1333    0.0000 C   0  0  0  0  0  0  0  0  0  0  0  0
    8.5588   -1.4596    0.0000 C   0  0  0  0  0  0  0  0  0  0  0  0
    5.2131   -0.1364    0.0000 C   0  0  3  0  0  0  0  0  0  0  0  0
    8.8061    1.8344    0.0000 C   0  0  0  0  0  0  0  0  0  0  0  0
   11.5258    2.4474    0.0000 C   0  0  3  0  0  0  0  0  0  0  0  0
   10.5820    2.9827    0.0000 C   0  0  0  0  0  0  0  0  0  0  0  0
    5.1965   -2.2918    0.0000 C   0  0  0  0  0  0  0  0  0  0  0  0
    6.1242   -2.7420    0.0000 C   0  0  0  0  0  0  0  0  0  0  0  0
   12.5258    1.3586    0.0000 C   0  0  0  0  0  0  0  0  0  0  0  0
   12.0225    0.4945    0.0000 C   0  0  0  0  0  0  0  0  0  0  0  0
    4.2652   -0.6643    0.0000 C   0  0  0  0  0  0  0  0  0  0  0  0
    4.2569   -1.7493    0.0000 C   0  0  0  0  0  0  0  0  0  0  0  0
    5.2324    0.8635    0.0000 C   0  0  0  0  0  0  0  0  0  0  0  0
    3.4051   -0.1543    0.0000 C   0  0  0  0  0  0  0  0  0  0  0  0
    9.3213    0.5006    0.0000 H   0  0  0  0  0  0  0  0  0  0  0  0
    7.5869    0.1164    0.0000 H   0  0  0  0  0  0  0  0  0  0  0  0
   11.1178    0.5152    0.0000 H   0  0  0  0  0  0  0  0  0  0  0  0
    6.1519   -0.0806    0.0000 H   0  0  0  0  0  0  0  0  0  0  0  0
    9.2714   -1.1980    0.0000 H   0  0  0  0  0  0  0  0  0  0  0  0
   10.0696   -1.2073    0.0000 H   0  0  0  0  0  0  0  0  0  0  0  0
    8.3145    1.7814    0.0000 H   0  0  0  0  0  0  0  0  0  0  0  0
    7.5175    1.7814    0.0000 H   0  0  0  0  0  0  0  0  0  0  0  0
    8.1501   -2.3155    0.0000 H   0  0  0  0  0  0  0  0  0  0  0  0
    8.5412   -1.6196    0.0000 H   0  0  0  0  0  0  0  0  0  0  0  0
    6.8379    1.3890    0.0000 H   0  0  0  0  0  0  0  0  0  0  0  0
    6.4394    0.6987    0.0000 H   0  0  0  0  0  0  0  0  0  0  0  0
   10.7911   -0.7981    0.0000 H   0  0  0  0  0  0  0  0  0  0  0  0
   11.1929   -0.1083    0.0000 H   0  0  0  0  0  0  0  0  0  0  0  0
    7.5727   -2.5698    0.0000 H   0  0  0  0  0  0  0  0  0  0  0  0
    9.4284    3.0045    0.0000 H   0  0  0  0  0  0  0  0  0  0  0  0
    9.0426    2.3056    0.0000 H   0  0  0  0  0  0  0  0  0  0  0  0
    8.5416   -1.3454    0.0000 H   0  0  0  0  0  0  0  0  0  0  0  0
    9.3362   -1.7158    0.0000 H   0  0  0  0  0  0  0  0  0  0  0  0
    9.7067   -0.9211    0.0000 H   0  0  0  0  0  0  0  0  0  0  0  0
    8.0838   -1.8582    0.0000 H   0  0  0  0  0  0  0  0  0  0  0  0
    8.9573   -1.9346    0.0000 H   0  0  0  0  0  0  0  0  0  0  0  0
    9.0337   -1.0611    0.0000 H   0  0  0  0  0  0  0  0  0  0  0  0
    5.7565    0.1622    0.0000 H   0  0  0  0  0  0  0  0  0  0  0  0
    9.1120    2.3737    0.0000 H   0  0  0  0  0  0  0  0  0  0  0  0
    8.2668    2.1402    0.0000 H   0  0  0  0  0  0  0  0  0  0  0  0
    8.5003    1.2951    0.0000 H   0  0  0  0  0  0  0  0  0  0  0  0
   12.0634    2.1385    0.0000 H   0  0  0  0  0  0  0  0  0  0  0  0
   10.9757    3.4617    0.0000 H   0  0  0  0  0  0  0  0  0  0  0  0
   10.1774    3.4525    0.0000 H   0  0  0  0  0  0  0  0  0  0  0  0
    4.7992   -2.7677    0.0000 H   0  0  0  0  0  0  0  0  0  0  0  0
    5.5975   -2.7647    0.0000 H   0  0  0  0  0  0  0  0  0  0  0  0
    5.5042   -2.7372    0.0000 H   0  0  0  0  0  0  0  0  0  0  0  0
    6.1194   -3.3620    0.0000 H   0  0  0  0  0  0  0  0  0  0  0  0
    6.7442   -2.7468    0.0000 H   0  0  0  0  0  0  0  0  0  0  0  0
   12.5234    0.7386    0.0000 H   0  0  0  0  0  0  0  0  0  0  0  0
   13.1458    1.3562    0.0000 H   0  0  0  0  0  0  0  0  0  0  0  0
   12.5282    1.9786    0.0000 H   0  0  0  0  0  0  0  0  0  0  0  0
   11.4844    0.1866    0.0000 H   0  0  0  0  0  0  0  0  0  0  0  0
   12.3304   -0.0436    0.0000 H   0  0  0  0  0  0  0  0  0  0  0  0
   12.5606    0.8024    0.0000 H   0  0  0  0  0  0  0  0  0  0  0  0
    3.7188   -2.0572    0.0000 H   0  0  0  0  0  0  0  0  0  0  0  0
    5.8523    0.8515    0.0000 H   0  0  0  0  0  0  0  0  0  0  0  0
    5.2444    1.4833    0.0000 H   0  0  0  0  0  0  0  0  0  0  0  0
    4.6125    0.8754    0.0000 H   0  0  0  0  0  0  0  0  0  0  0  0
    7.5760   -3.5708    0.0000 H   0  0  0  0  0  0  0  0  0  0  0  0
   12.3875    3.5708    0.0000 H   0  0  0  0  0  0  0  0  0  0  0  0
    3.8091    0.3160    0.0000 H   0  0  0  0  0  0  0  0  0  0  0  0
    3.0120    0.3252    0.0000 H   0  0  0  0  0  0  0  0  0  0  0  0
    2.0000   -0.3281    0.0000 H   0  0  0  0  0  0  0  0  0  0  0  0
  1 18  1  0  0  0  0
  1 79  1  0  0  0  0
  2 24  1  0  0  0  0
  2 80  1  0  0  0  0
  3 33  1  0  0  0  0
  3 83  1  0  0  0  0
  4  5  1  0  0  0  0
  4  6  1  0  0  0  0
  4 11  1  0  0  0  0
  4 20  1  0  0  0  0
  5  7  1  0  0  0  0
  5 13  1  0  0  0  0
  5 21  1  0  0  0  0
  6  8  1  0  0  0  0
  6 12  1  0  0  0  0
  6 34  1  0  0  0  0
  7 10  1  0  0  0  0
  7 14  1  0  0  0  0
  7 35  1  0  0  0  0
  8  9  1  0  0  0  0
  8 19  1  0  0  0  0
  8 23  1  0  0  0  0
  9 16  1  0  0  0  0
  9 17  1  0  0  0  0
  9 36  1  0  0  0  0
 10 15  1  0  0  0  0
 10 22  1  0  0  0  0
 10 37  1  0  0  0  0
 11 16  1  0  0  0  0
 11 38  1  0  0  0  0
 11 39  1  0  0  0  0
 12 14  1  0  0  0  0
 12 40  1  0  0  0  0
 12 41  1  0  0  0  0
 13 18  1  0  0  0  0
 13 42  1  0  0  0  0
 13 43  1  0  0  0  0
 14 44  1  0  0  0  0
 14 45  1  0  0  0  0
 15 18  1  0  0  0  0
 15 26  1  0  0  0  0
 15 27  1  0  0  0  0
 16 46  1  0  0  0  0
 16 47  1  0  0  0  0
 17 24  1  0  0  0  0
 17 28  1  0  0  0  0
 17 29  1  0  0  0  0
 18 48  1  0  0  0  0
 19 25  1  0  0  0  0
 19 49  1  0  0  0  0
 19 50  1  0  0  0  0
 20 51  1  0  0  0  0
 20 52  1  0  0  0  0
 20 53  1  0  0  0  0
 21 54  1  0  0  0  0
 21 55  1  0  0  0  0
 21 56  1  0  0  0  0
 22 30  1  0  0  0  0
 22 32  1  0  0  0  0
 22 57  1  0  0  0  0
 23 58  1  0  0  0  0
 23 59  1  0  0  0  0
 23 60  1  0  0  0  0
 24 25  1  0  0  0  0
 24 61  1  0  0  0  0
 25 62  1  0  0  0  0
 25 63  1  0  0  0  0
 26 31  1  0  0  0  0
 26 64  1  0  0  0  0
 26 65  1  0  0  0  0
 27 66  1  0  0  0  0
 27 67  1  0  0  0  0
 27 68  1  0  0  0  0
 28 69  1  0  0  0  0
 28 70  1  0  0  0  0
 28 71  1  0  0  0  0
 29 72  1  0  0  0  0
 29 73  1  0  0  0  0
 29 74  1  0  0  0  0
 30 31  2  0  0  0  0
 30 33  1  0  0  0  0
 31 75  1  0  0  0  0
 32 76  1  0  0  0  0
 32 77  1  0  0  0  0
 32 78  1  0  0  0  0
 33 81  1  0  0  0  0
 33 82  1  0  0  0  0
M  END
>  <PUBCHEM_COMPOUND_CID>
131752473

>  <PUBCHEM_COMPOUND_CANONICALIZED>
1

>  <PUBCHEM_CACTVS_COMPLEXITY>
832

>  <PUBCHEM_CACTVS_HBOND_ACCEPTOR>
3

>  <PUBCHEM_CACTVS_HBOND_DONOR>
3

>  <PUBCHEM_CACTVS_ROTATABLE_BOND>
1

>  <PUBCHEM_CACTVS_SUBSKEYS>
AAADcfB4MAAAAAAAAAAAAAAAAAAAAAAAAAAwYMGCAAAAAADAAAAAGgAACAAADxSggAICAAAAAgCAAiBCAAAAAAAgAAAACAAAAAgAFAIAAQAAUAAEgAAIEAOAwPAPgAAAAAAAAADAAAYAADAAAAAAAAAAAA==

>  <PUBCHEM_IUPAC_OPENEYE_NAME>
11-(hydroxymethyl)-4,4,6a,6b,8a,12,14b-heptamethyl-2,3,4a,5,6,6a,7,8,9,12,12a,13,14,14a-tetradecahydro-1H-picene-3,8-diol

>  <PUBCHEM_IUPAC_CAS_NAME>
11-(hydroxymethyl)-4,4,6a,6b,8a,12,14b-heptamethyl-2,3,4a,5,6,6a,7,8,9,12,12a,13,14,14a-tetradecahydro-1H-picene-3,8-diol

>  <PUBCHEM_IUPAC_NAME>
11-(hydroxymethyl)-4,4,6a,6b,8a,12,14b-heptamethyl-2,3,4a,5,6,6a,7,8,9,12,12a,13,14,14a-tetradecahydro-1H-picene-3,8-diol

>  <PUBCHEM_IUPAC_SYSTEMATIC_NAME>
11-(hydroxymethyl)-4,4,6a,6b,8a,12,14b-heptamethyl-2,3,4a,5,6,6a,7,8,9,12,12a,13,14,14a-tetradecahydro-1H-picene-3,8-diol

>  <PUBCHEM_IUPAC_TRADITIONAL_NAME>
4,4,6a,6b,8a,12,14b-heptamethyl-11-methylol-2,3,4a,5,6,6a,7,8,9,12,12a,13,14,14a-tetradecahydro-1H-picene-3,8-diol

>  <PUBCHEM_IUPAC_INCHI>
InChI=1S/C30H50O3/c1-18-19(17-31)10-13-28(5)24(33)16-30(7)20(25(18)28)8-9-22-27(4)14-12-23(32)26(2,3)21(27)11-15-29(22,30)6/h10,18,20-25,31-33H,8-9,11-17H2,1-7H3

>  <PUBCHEM_IUPAC_INCHIKEY>
IWSSUQMYGYYLOJ-UHFFFAOYSA-N

>  <PUBCHEM_EXACT_MASS>
458.376

>  <PUBCHEM_MOLECULAR_FORMULA>
C30H50O3

>  <PUBCHEM_MOLECULAR_WEIGHT>
458.727

>  <PUBCHEM_OPENEYE_CAN_SMILES>
CC1C2C3CCC4C5(CCC(C(C5CCC4(C3(CC(C2(CC=C1CO)C)O)C)C)(C)C)O)C

>  <PUBCHEM_OPENEYE_ISO_SMILES>
CC1C2C3CCC4C5(CCC(C(C5CCC4(C3(CC(C2(CC=C1CO)C)O)C)C)(C)C)O)C

>  <PUBCHEM_CACTVS_TPSA>
60.7

>  <PUBCHEM_MONOISOTOPIC_WEIGHT>
458.376

>  <PUBCHEM_TOTAL_CHARGE>
0

>  <PUBCHEM_HEAVY_ATOM_COUNT>
33

>  <PUBCHEM_ATOM_DEF_STEREO_COUNT>
0

>  <PUBCHEM_ATOM_UDEF_STEREO_COUNT>
11

>  <PUBCHEM_BOND_DEF_STEREO_COUNT>
0

>  <PUBCHEM_BOND_UDEF_STEREO_COUNT>
0

>  <PUBCHEM_ISOTOPIC_ATOM_COUNT>
0

>  <PUBCHEM_COMPONENT_COUNT>
1

>  <PUBCHEM_CACTVS_TAUTO_COUNT>
1

>  <PUBCHEM_COORDINATE_TYPE>
1
5
255

>  <PUBCHEM_BONDANNOTATIONS>
18  1  3
10  22  3
15  27  3
24  2  3
22  32  3
4  20  3
5  21  3
6  12  3
7  14  3
8  23  3
9  16  3

$$$$
