131752085
 OpenBabel06101807152D

 98 98  0  0  1  0  0  0  0  0999 V2000
    3.0000   -4.5000    0.0000 C   0  0  0  0  0  0  0  0  0  0  0  0
    3.8660   -4.0000    0.0000 C   0  0  3  0  0  0  0  0  0  0  0  0
    3.0000   -5.5000    0.0000 C   0  0  0  0  0  0  0  0  0  0  0  0
    3.8660   -6.0000    0.0000 C   0  0  0  0  0  0  0  0  0  0  0  0
    4.7320   -4.5000    0.0000 C   0  0  0  0  0  0  0  0  0  0  0  0
    2.0000   -4.5000    0.0000 C   0  0  0  0  0  0  0  0  0  0  0  0
    2.5000   -3.6340    0.0000 C   0  0  0  0  0  0  0  0  0  0  0  0
    4.7320   -5.5000    0.0000 C   0  0  0  0  0  0  0  0  0  0  0  0
    3.8660   -3.0000    0.0000 C   0  0  0  0  0  0  0  0  0  0  0  0
    5.5981   -4.0000    0.0000 C   0  0  0  0  0  0  0  0  0  0  0  0
    4.7320   -2.5000    0.0000 C   0  0  0  0  0  0  0  0  0  0  0  0
    4.7320   -1.5000    0.0000 C   0  0  0  0  0  0  0  0  0  0  0  0
    3.8660   -1.0000    0.0000 C   0  0  0  0  0  0  0  0  0  0  0  0
    5.5981   -1.0000    0.0000 C   0  0  0  0  0  0  0  0  0  0  0  0
    6.4641   -1.5000    0.0000 C   0  0  0  0  0  0  0  0  0  0  0  0
    7.3301   -1.0000    0.0000 C   0  0  0  0  0  0  0  0  0  0  0  0
    8.1962   -1.5000    0.0000 C   0  0  0  0  0  0  0  0  0  0  0  0
    8.1962   -2.5000    0.0000 C   0  0  0  0  0  0  0  0  0  0  0  0
    9.0622   -1.0000    0.0000 C   0  0  0  0  0  0  0  0  0  0  0  0
   16.8564    4.5000    0.0000 C   0  0  0  0  0  0  0  0  0  0  0  0
   15.9904    5.0000    0.0000 C   0  0  0  0  0  0  0  0  0  0  0  0
   15.1244    3.5000    0.0000 C   0  0  0  0  0  0  0  0  0  0  0  0
   14.2583    3.0000    0.0000 C   0  0  0  0  0  0  0  0  0  0  0  0
   17.7224    5.0000    0.0000 C   0  0  0  0  0  0  0  0  0  0  0  0
   15.1244    4.5000    0.0000 C   0  0  0  0  0  0  0  0  0  0  0  0
   14.2583    2.0000    0.0000 C   0  0  0  0  0  0  0  0  0  0  0  0
   15.9904    6.0000    0.0000 C   0  0  0  0  0  0  0  0  0  0  0  0
   18.5885    4.5000    0.0000 C   0  0  0  0  0  0  0  0  0  0  0  0
    9.9282   -1.5000    0.0000 C   0  0  0  0  0  0  0  0  0  0  0  0
   19.4545    5.0000    0.0000 C   0  0  0  0  0  0  0  0  0  0  0  0
   15.1244    1.5000    0.0000 C   0  0  0  0  0  0  0  0  0  0  0  0
   13.3923    1.5000    0.0000 C   0  0  0  0  0  0  0  0  0  0  0  0
   20.3205    4.5000    0.0000 C   0  0  0  0  0  0  0  0  0  0  0  0
   19.4545    6.0000    0.0000 C   0  0  0  0  0  0  0  0  0  0  0  0
   10.7942   -1.0000    0.0000 C   0  0  0  0  0  0  0  0  0  0  0  0
   13.3923    0.5000    0.0000 C   0  0  0  0  0  0  0  0  0  0  0  0
   11.6603   -1.5000    0.0000 C   0  0  0  0  0  0  0  0  0  0  0  0
   12.5263    0.0000    0.0000 C   0  0  0  0  0  0  0  0  0  0  0  0
   12.5263   -1.0000    0.0000 C   0  0  0  0  0  0  0  0  0  0  0  0
   13.3923   -1.5000    0.0000 C   0  0  0  0  0  0  0  0  0  0  0  0
    4.4030   -3.6900    0.0000 H   0  0  0  0  0  0  0  0  0  0  0  0
    2.3894   -5.3923    0.0000 H   0  0  0  0  0  0  0  0  0  0  0  0
    2.7880   -6.0826    0.0000 H   0  0  0  0  0  0  0  0  0  0  0  0
    3.4675   -6.4750    0.0000 H   0  0  0  0  0  0  0  0  0  0  0  0
    4.2646   -6.4750    0.0000 H   0  0  0  0  0  0  0  0  0  0  0  0
    2.0000   -3.8800    0.0000 H   0  0  0  0  0  0  0  0  0  0  0  0
    1.3800   -4.5000    0.0000 H   0  0  0  0  0  0  0  0  0  0  0  0
    2.0000   -5.1200    0.0000 H   0  0  0  0  0  0  0  0  0  0  0  0
    3.0369   -3.3240    0.0000 H   0  0  0  0  0  0  0  0  0  0  0  0
    2.1900   -3.0970    0.0000 H   0  0  0  0  0  0  0  0  0  0  0  0
    1.9631   -3.9440    0.0000 H   0  0  0  0  0  0  0  0  0  0  0  0
    5.2690   -5.8100    0.0000 H   0  0  0  0  0  0  0  0  0  0  0  0
    3.3291   -2.6900    0.0000 H   0  0  0  0  0  0  0  0  0  0  0  0
    5.9081   -4.5369    0.0000 H   0  0  0  0  0  0  0  0  0  0  0  0
    6.1350   -3.6900    0.0000 H   0  0  0  0  0  0  0  0  0  0  0  0
    5.2881   -3.4631    0.0000 H   0  0  0  0  0  0  0  0  0  0  0  0
    5.2690   -2.8100    0.0000 H   0  0  0  0  0  0  0  0  0  0  0  0
    4.1760   -0.4631    0.0000 H   0  0  0  0  0  0  0  0  0  0  0  0
    3.3291   -0.6900    0.0000 H   0  0  0  0  0  0  0  0  0  0  0  0
    3.5560   -1.5369    0.0000 H   0  0  0  0  0  0  0  0  0  0  0  0
    5.5981   -0.3800    0.0000 H   0  0  0  0  0  0  0  0  0  0  0  0
    6.4641   -2.1200    0.0000 H   0  0  0  0  0  0  0  0  0  0  0  0
    7.3301   -0.3800    0.0000 H   0  0  0  0  0  0  0  0  0  0  0  0
    7.5762   -2.5000    0.0000 H   0  0  0  0  0  0  0  0  0  0  0  0
    8.1962   -3.1200    0.0000 H   0  0  0  0  0  0  0  0  0  0  0  0
    8.8162   -2.5000    0.0000 H   0  0  0  0  0  0  0  0  0  0  0  0
   16.4579    4.0250    0.0000 H   0  0  0  0  0  0  0  0  0  0  0  0
   17.2549    4.0250    0.0000 H   0  0  0  0  0  0  0  0  0  0  0  0
   15.3364    2.9174    0.0000 H   0  0  0  0  0  0  0  0  0  0  0  0
   15.7349    3.6077    0.0000 H   0  0  0  0  0  0  0  0  0  0  0  0
    9.0622   -0.3800    0.0000 H   0  0  0  0  0  0  0  0  0  0  0  0
   14.0463    3.5826    0.0000 H   0  0  0  0  0  0  0  0  0  0  0  0
   13.6477    2.8923    0.0000 H   0  0  0  0  0  0  0  0  0  0  0  0
   18.1210    5.4750    0.0000 H   0  0  0  0  0  0  0  0  0  0  0  0
   17.3239    5.4750    0.0000 H   0  0  0  0  0  0  0  0  0  0  0  0
   14.5874    4.8100    0.0000 H   0  0  0  0  0  0  0  0  0  0  0  0
   16.6104    6.0000    0.0000 H   0  0  0  0  0  0  0  0  0  0  0  0
   15.9904    6.6200    0.0000 H   0  0  0  0  0  0  0  0  0  0  0  0
   15.3704    6.0000    0.0000 H   0  0  0  0  0  0  0  0  0  0  0  0
   18.5885    3.8800    0.0000 H   0  0  0  0  0  0  0  0  0  0  0  0
    9.9282   -2.1200    0.0000 H   0  0  0  0  0  0  0  0  0  0  0  0
   14.8144    0.9631    0.0000 H   0  0  0  0  0  0  0  0  0  0  0  0
   15.6613    1.1900    0.0000 H   0  0  0  0  0  0  0  0  0  0  0  0
   15.4344    2.0369    0.0000 H   0  0  0  0  0  0  0  0  0  0  0  0
   12.8554    1.8100    0.0000 H   0  0  0  0  0  0  0  0  0  0  0  0
   20.0745    6.0000    0.0000 H   0  0  0  0  0  0  0  0  0  0  0  0
   19.4545    6.6200    0.0000 H   0  0  0  0  0  0  0  0  0  0  0  0
   20.0105    3.9631    0.0000 H   0  0  0  0  0  0  0  0  0  0  0  0
   20.8574    4.1900    0.0000 H   0  0  0  0  0  0  0  0  0  0  0  0
   20.6305    5.0369    0.0000 H   0  0  0  0  0  0  0  0  0  0  0  0
   18.8345    6.0000    0.0000 H   0  0  0  0  0  0  0  0  0  0  0  0
   10.7942   -0.3800    0.0000 H   0  0  0  0  0  0  0  0  0  0  0  0
   13.9292    0.1900    0.0000 H   0  0  0  0  0  0  0  0  0  0  0  0
   11.9893    0.3100    0.0000 H   0  0  0  0  0  0  0  0  0  0  0  0
   11.6603   -2.1200    0.0000 H   0  0  0  0  0  0  0  0  0  0  0  0
   13.0823   -2.0369    0.0000 H   0  0  0  0  0  0  0  0  0  0  0  0
   13.9292   -1.8100    0.0000 H   0  0  0  0  0  0  0  0  0  0  0  0
   13.7023   -0.9631    0.0000 H   0  0  0  0  0  0  0  0  0  0  0  0
  1  2  1  0  0  0  0
  1  3  1  0  0  0  0
  1  6  1  0  0  0  0
  1  7  1  0  0  0  0
  2  5  1  0  0  0  0
  2  9  1  0  0  0  0
  2 41  1  0  0  0  0
  3  4  1  0  0  0  0
  3 42  1  0  0  0  0
  3 43  1  0  0  0  0
  4  8  1  0  0  0  0
  4 44  1  0  0  0  0
  4 45  1  0  0  0  0
  5  8  2  0  0  0  0
  5 10  1  0  0  0  0
  6 46  1  0  0  0  0
  6 47  1  0  0  0  0
  6 48  1  0  0  0  0
  7 49  1  0  0  0  0
  7 50  1  0  0  0  0
  7 51  1  0  0  0  0
  8 52  1  0  0  0  0
  9 11  2  0  0  0  0
  9 53  1  0  0  0  0
 10 54  1  0  0  0  0
 10 55  1  0  0  0  0
 10 56  1  0  0  0  0
 11 12  1  0  0  0  0
 11 57  1  0  0  0  0
 12 13  1  0  0  0  0
 12 14  2  0  0  0  0
 13 58  1  0  0  0  0
 13 59  1  0  0  0  0
 13 60  1  0  0  0  0
 14 15  1  0  0  0  0
 14 61  1  0  0  0  0
 15 16  2  0  0  0  0
 15 62  1  0  0  0  0
 16 17  1  0  0  0  0
 16 63  1  0  0  0  0
 17 18  1  0  0  0  0
 17 19  2  0  0  0  0
 18 64  1  0  0  0  0
 18 65  1  0  0  0  0
 18 66  1  0  0  0  0
 19 29  1  0  0  0  0
 19 71  1  0  0  0  0
 20 21  1  0  0  0  0
 20 24  1  0  0  0  0
 20 67  1  0  0  0  0
 20 68  1  0  0  0  0
 21 25  2  0  0  0  0
 21 27  1  0  0  0  0
 22 23  1  0  0  0  0
 22 25  1  0  0  0  0
 22 69  1  0  0  0  0
 22 70  1  0  0  0  0
 23 26  1  0  0  0  0
 23 72  1  0  0  0  0
 23 73  1  0  0  0  0
 24 28  1  0  0  0  0
 24 74  1  0  0  0  0
 24 75  1  0  0  0  0
 25 76  1  0  0  0  0
 26 31  1  0  0  0  0
 26 32  2  0  0  0  0
 27 77  1  0  0  0  0
 27 78  1  0  0  0  0
 27 79  1  0  0  0  0
 28 30  2  0  0  0  0
 28 80  1  0  0  0  0
 29 35  2  0  0  0  0
 29 81  1  0  0  0  0
 30 33  1  0  0  0  0
 30 34  1  0  0  0  0
 31 82  1  0  0  0  0
 31 83  1  0  0  0  0
 31 84  1  0  0  0  0
 32 36  1  0  0  0  0
 32 85  1  0  0  0  0
 33 88  1  0  0  0  0
 33 89  1  0  0  0  0
 33 90  1  0  0  0  0
 34 86  1  0  0  0  0
 34 87  1  0  0  0  0
 34 91  1  0  0  0  0
 35 37  1  0  0  0  0
 35 92  1  0  0  0  0
 36 38  2  0  0  0  0
 36 93  1  0  0  0  0
 37 39  2  0  0  0  0
 37 95  1  0  0  0  0
 38 39  1  0  0  0  0
 38 94  1  0  0  0  0
 39 40  1  0  0  0  0
 40 96  1  0  0  0  0
 40 97  1  0  0  0  0
 40 98  1  0  0  0  0
M  END
>  <PUBCHEM_COMPOUND_CID>
131752085

>  <PUBCHEM_COMPOUND_CANONICALIZED>
1

>  <PUBCHEM_CACTVS_COMPLEXITY>
1120

>  <PUBCHEM_CACTVS_HBOND_ACCEPTOR>
0

>  <PUBCHEM_CACTVS_HBOND_DONOR>
0

>  <PUBCHEM_CACTVS_ROTATABLE_BOND>
14

>  <PUBCHEM_CACTVS_SUBSKEYS>
AAADcfB8AAAAAAAAAAAAAAAAAAAAAAAAAAAgAAAAAAAAAAAAAAAAGAAAAAAADwCAAAACAAAAAACAAiBCAAAAAAAgAAAICAAAAAgIAAIAAQAAAAAAgAAIgAMAgAAPgAAAAAAAAAAAAAAAAAAAAAAAAAAAAA==

>  <PUBCHEM_IUPAC_OPENEYE_NAME>
6-[(1E,3Z,5E,7E,9E,11Z,13E,15E,19Z)-3,7,12,16,20,24-hexamethylpentacosa-1,3,5,7,9,11,13,15,19,23-decaenyl]-1,5,5-trimethyl-cyclohexene

>  <PUBCHEM_IUPAC_CAS_NAME>
6-[(1E,3Z,5E,7E,9E,11Z,13E,15E,19Z)-3,7,12,16,20,24-hexamethylpentacosa-1,3,5,7,9,11,13,15,19,23-decaenyl]-1,5,5-trimethylcyclohexene

>  <PUBCHEM_IUPAC_NAME>
6-[(1E,3Z,5E,7E,9E,11Z,13E,15E,19Z)-3,7,12,16,20,24-hexamethylpentacosa-1,3,5,7,9,11,13,15,19,23-decaenyl]-1,5,5-trimethylcyclohexene

>  <PUBCHEM_IUPAC_SYSTEMATIC_NAME>
6-[(1E,3Z,5E,7E,9E,11Z,13E,15E,19Z)-3,7,12,16,20,24-hexamethylpentacosa-1,3,5,7,9,11,13,15,19,23-decaenyl]-1,5,5-trimethyl-cyclohexene

>  <PUBCHEM_IUPAC_TRADITIONAL_NAME>
6-[(1E,3Z,5E,7E,9E,11Z,13E,15E,19Z)-3,7,12,16,20,24-hexamethylpentacosa-1,3,5,7,9,11,13,15,19,23-decaenyl]-1,5,5-trimethyl-cyclohexene

>  <PUBCHEM_IUPAC_INCHI>
InChI=1S/C40H58/c1-32(2)18-13-21-35(5)24-15-26-36(6)25-14-22-33(3)19-11-12-20-34(4)23-16-27-37(7)29-30-39-38(8)28-17-31-40(39,9)10/h11-12,14,16,18-20,22-25,27-30,39H,13,15,17,21,26,31H2,1-10H3/b12-11+,22-14+,23-16+,30-29+,33-19-,34-20+,35-24-,36-25+,37-27-

>  <PUBCHEM_IUPAC_INCHIKEY>
IGABZIVJSNQMPZ-XWGRIQFUSA-N

>  <PUBCHEM_EXACT_MASS>
538.454

>  <PUBCHEM_MOLECULAR_FORMULA>
C40H58

>  <PUBCHEM_MOLECULAR_WEIGHT>
538.904

>  <PUBCHEM_OPENEYE_CAN_SMILES>
CC1=CCCC(C1C=CC(=CC=CC(=CC=CC=C(C)C=CC=C(C)CCC=C(C)CCC=C(C)C)C)C)(C)C

>  <PUBCHEM_OPENEYE_ISO_SMILES>
CC1=CCCC(C1/C=C/C(=C\C=C\C(=C\C=C\C=C(\C)/C=C/C=C(\C)/CC/C=C(/C)\CCC=C(C)C)\C)/C)(C)C

>  <PUBCHEM_CACTVS_TPSA>
0

>  <PUBCHEM_MONOISOTOPIC_WEIGHT>
538.454

>  <PUBCHEM_TOTAL_CHARGE>
0

>  <PUBCHEM_HEAVY_ATOM_COUNT>
40

>  <PUBCHEM_ATOM_DEF_STEREO_COUNT>
0

>  <PUBCHEM_ATOM_UDEF_STEREO_COUNT>
1

>  <PUBCHEM_BOND_DEF_STEREO_COUNT>
9

>  <PUBCHEM_BOND_UDEF_STEREO_COUNT>
0

>  <PUBCHEM_ISOTOPIC_ATOM_COUNT>
0

>  <PUBCHEM_COMPONENT_COUNT>
1

>  <PUBCHEM_CACTVS_TAUTO_COUNT>
1001

>  <PUBCHEM_COORDINATE_TYPE>
1
5
255

>  <PUBCHEM_BONDANNOTATIONS>
2  9  3

$$$$
