131751663
 OpenBabel06101807152D

 72 72  0  0  1  0  0  0  0  0999 V2000
    3.8660   -3.3450    0.0000 O   0  0  0  0  0  0  0  0  0  0  0  0
   17.7224    2.6550    0.0000 O   0  0  0  0  0  0  0  0  0  0  0  0
    3.0000   -0.8450    0.0000 C   0  0  0  0  0  0  0  0  0  0  0  0
    3.0000   -1.8450    0.0000 C   0  0  0  0  0  0  0  0  0  0  0  0
    3.8660   -2.3450    0.0000 C   0  0  3  0  0  0  0  0  0  0  0  0
    3.8660   -0.3450    0.0000 C   0  0  0  0  0  0  0  0  0  0  0  0
    4.7320   -1.8450    0.0000 C   0  0  0  0  0  0  0  0  0  0  0  0
    4.7320   -0.8450    0.0000 C   0  0  0  0  0  0  0  0  0  0  0  0
    2.0000   -0.8450    0.0000 C   0  0  0  0  0  0  0  0  0  0  0  0
    2.5000    0.0210    0.0000 C   0  0  0  0  0  0  0  0  0  0  0  0
    3.8660    0.6550    0.0000 C   0  0  0  0  0  0  0  0  0  0  0  0
    5.5981   -0.3450    0.0000 C   0  0  0  0  0  0  0  0  0  0  0  0
    4.7320    1.1550    0.0000 C   0  0  0  0  0  0  0  0  0  0  0  0
    4.7320    2.1550    0.0000 C   0  0  0  0  0  0  0  0  0  0  0  0
    3.8660    2.6550    0.0000 C   0  0  0  0  0  0  0  0  0  0  0  0
    5.5981    2.6550    0.0000 C   0  0  0  0  0  0  0  0  0  0  0  0
    6.4641    2.1550    0.0000 C   0  0  0  0  0  0  0  0  0  0  0  0
    7.3301    2.6550    0.0000 C   0  0  0  0  0  0  0  0  0  0  0  0
    8.1962    2.1550    0.0000 C   0  0  0  0  0  0  0  0  0  0  0  0
    8.1962    1.1550    0.0000 C   0  0  0  0  0  0  0  0  0  0  0  0
    9.0622    2.6550    0.0000 C   0  0  0  0  0  0  0  0  0  0  0  0
    9.9282    2.1550    0.0000 C   0  0  0  0  0  0  0  0  0  0  0  0
   10.7942    2.6550    0.0000 C   0  0  0  0  0  0  0  0  0  0  0  0
   11.6603    2.1550    0.0000 C   0  0  0  0  0  0  0  0  0  0  0  0
   12.5263    2.6550    0.0000 C   0  0  0  0  0  0  0  0  0  0  0  0
   13.3923    2.1550    0.0000 C   0  0  0  0  0  0  0  0  0  0  0  0
   12.5263    3.6550    0.0000 C   0  0  0  0  0  0  0  0  0  0  0  0
   14.2583    2.6550    0.0000 C   0  0  0  0  0  0  0  0  0  0  0  0
   15.1244    2.1550    0.0000 C   0  0  0  0  0  0  0  0  0  0  0  0
   15.9904    2.6550    0.0000 C   0  0  0  0  0  0  0  0  0  0  0  0
   15.9904    3.6550    0.0000 C   0  0  0  0  0  0  0  0  0  0  0  0
   16.8564    2.1550    0.0000 C   0  0  0  0  0  0  0  0  0  0  0  0
    2.3894   -1.7373    0.0000 H   0  0  0  0  0  0  0  0  0  0  0  0
    2.7880   -2.4276    0.0000 H   0  0  0  0  0  0  0  0  0  0  0  0
    4.4030   -2.6550    0.0000 H   0  0  0  0  0  0  0  0  0  0  0  0
    4.9441   -2.4276    0.0000 H   0  0  0  0  0  0  0  0  0  0  0  0
    5.3426   -1.7373    0.0000 H   0  0  0  0  0  0  0  0  0  0  0  0
    3.0369    0.3310    0.0000 H   0  0  0  0  0  0  0  0  0  0  0  0
    2.1900    0.5580    0.0000 H   0  0  0  0  0  0  0  0  0  0  0  0
    1.9631   -0.2890    0.0000 H   0  0  0  0  0  0  0  0  0  0  0  0
    2.0000   -0.2250    0.0000 H   0  0  0  0  0  0  0  0  0  0  0  0
    1.3800   -0.8450    0.0000 H   0  0  0  0  0  0  0  0  0  0  0  0
    2.0000   -1.4650    0.0000 H   0  0  0  0  0  0  0  0  0  0  0  0
    3.3291    0.9650    0.0000 H   0  0  0  0  0  0  0  0  0  0  0  0
    5.9081   -0.8819    0.0000 H   0  0  0  0  0  0  0  0  0  0  0  0
    6.1350   -0.0350    0.0000 H   0  0  0  0  0  0  0  0  0  0  0  0
    5.2881    0.1919    0.0000 H   0  0  0  0  0  0  0  0  0  0  0  0
    4.4030   -3.6550    0.0000 H   0  0  0  0  0  0  0  0  0  0  0  0
    5.2690    0.8450    0.0000 H   0  0  0  0  0  0  0  0  0  0  0  0
    4.1760    3.1919    0.0000 H   0  0  0  0  0  0  0  0  0  0  0  0
    3.3291    2.9650    0.0000 H   0  0  0  0  0  0  0  0  0  0  0  0
    3.5560    2.1181    0.0000 H   0  0  0  0  0  0  0  0  0  0  0  0
    5.5981    3.2750    0.0000 H   0  0  0  0  0  0  0  0  0  0  0  0
    6.4641    1.5350    0.0000 H   0  0  0  0  0  0  0  0  0  0  0  0
    7.3301    3.2750    0.0000 H   0  0  0  0  0  0  0  0  0  0  0  0
    7.5762    1.1550    0.0000 H   0  0  0  0  0  0  0  0  0  0  0  0
    8.1962    0.5350    0.0000 H   0  0  0  0  0  0  0  0  0  0  0  0
    8.8162    1.1550    0.0000 H   0  0  0  0  0  0  0  0  0  0  0  0
    9.0622    3.2750    0.0000 H   0  0  0  0  0  0  0  0  0  0  0  0
    9.9282    1.5350    0.0000 H   0  0  0  0  0  0  0  0  0  0  0  0
   10.7942    3.2750    0.0000 H   0  0  0  0  0  0  0  0  0  0  0  0
   11.6603    1.5350    0.0000 H   0  0  0  0  0  0  0  0  0  0  0  0
   13.3923    1.5350    0.0000 H   0  0  0  0  0  0  0  0  0  0  0  0
   13.1463    3.6550    0.0000 H   0  0  0  0  0  0  0  0  0  0  0  0
   12.5263    4.2750    0.0000 H   0  0  0  0  0  0  0  0  0  0  0  0
   11.9063    3.6550    0.0000 H   0  0  0  0  0  0  0  0  0  0  0  0
   14.2583    3.2750    0.0000 H   0  0  0  0  0  0  0  0  0  0  0  0
   15.1244    1.5350    0.0000 H   0  0  0  0  0  0  0  0  0  0  0  0
   16.6104    3.6550    0.0000 H   0  0  0  0  0  0  0  0  0  0  0  0
   15.9904    4.2750    0.0000 H   0  0  0  0  0  0  0  0  0  0  0  0
   15.3704    3.6550    0.0000 H   0  0  0  0  0  0  0  0  0  0  0  0
   16.8564    1.5350    0.0000 H   0  0  0  0  0  0  0  0  0  0  0  0
  1  5  1  0  0  0  0
  1 48  1  0  0  0  0
  2 32  2  0  0  0  0
  3  4  1  0  0  0  0
  3  6  1  0  0  0  0
  3  9  1  0  0  0  0
  3 10  1  0  0  0  0
  4  5  1  0  0  0  0
  4 33  1  0  0  0  0
  4 34  1  0  0  0  0
  5  7  1  0  0  0  0
  5 35  1  0  0  0  0
  6  8  2  0  0  0  0
  6 11  1  0  0  0  0
  7  8  1  0  0  0  0
  7 36  1  0  0  0  0
  7 37  1  0  0  0  0
  8 12  1  0  0  0  0
  9 41  1  0  0  0  0
  9 42  1  0  0  0  0
  9 43  1  0  0  0  0
 10 38  1  0  0  0  0
 10 39  1  0  0  0  0
 10 40  1  0  0  0  0
 11 13  2  0  0  0  0
 11 44  1  0  0  0  0
 12 45  1  0  0  0  0
 12 46  1  0  0  0  0
 12 47  1  0  0  0  0
 13 14  1  0  0  0  0
 13 49  1  0  0  0  0
 14 15  1  0  0  0  0
 14 16  2  0  0  0  0
 15 50  1  0  0  0  0
 15 51  1  0  0  0  0
 15 52  1  0  0  0  0
 16 17  1  0  0  0  0
 16 53  1  0  0  0  0
 17 18  2  0  0  0  0
 17 54  1  0  0  0  0
 18 19  1  0  0  0  0
 18 55  1  0  0  0  0
 19 20  1  0  0  0  0
 19 21  2  0  0  0  0
 20 56  1  0  0  0  0
 20 57  1  0  0  0  0
 20 58  1  0  0  0  0
 21 22  1  0  0  0  0
 21 59  1  0  0  0  0
 22 23  2  0  0  0  0
 22 60  1  0  0  0  0
 23 24  1  0  0  0  0
 23 61  1  0  0  0  0
 24 25  2  0  0  0  0
 24 62  1  0  0  0  0
 25 26  1  0  0  0  0
 25 27  1  0  0  0  0
 26 28  2  0  0  0  0
 26 63  1  0  0  0  0
 27 64  1  0  0  0  0
 27 65  1  0  0  0  0
 27 66  1  0  0  0  0
 28 29  1  0  0  0  0
 28 67  1  0  0  0  0
 29 30  2  0  0  0  0
 29 68  1  0  0  0  0
 30 31  1  0  0  0  0
 30 32  1  0  0  0  0
 31 69  1  0  0  0  0
 31 70  1  0  0  0  0
 31 71  1  0  0  0  0
 32 72  1  0  0  0  0
M  END
>  <PUBCHEM_COMPOUND_CID>
131751663

>  <PUBCHEM_COMPOUND_CANONICALIZED>
1

>  <PUBCHEM_CACTVS_COMPLEXITY>
922

>  <PUBCHEM_CACTVS_HBOND_ACCEPTOR>
2

>  <PUBCHEM_CACTVS_HBOND_DONOR>
1

>  <PUBCHEM_CACTVS_ROTATABLE_BOND>
9

>  <PUBCHEM_CACTVS_SUBSKEYS>
AAADcfB4MAAAAAAAAAAAAAAAAAAAAAAAAAAgAAAAAAAAAAAAAAAAGgAACAAADhSggAICAAAAAgCIAihSgAAAAAAgAAAICAEAAEgIEAIAAQAAQAAEwAAIgYOAgMAPAAAAAAAAAAAAAAAAAAAAAAAAAAAAAA==

>  <PUBCHEM_IUPAC_OPENEYE_NAME>
(2E,4E,6E,8E,10E,12E,14Z,16E)-17-(4-hydroxy-2,6,6-trimethyl-cyclohexen-1-yl)-2,6,11,15-tetramethyl-heptadeca-2,4,6,8,10,12,14,16-octaenal

>  <PUBCHEM_IUPAC_CAS_NAME>
(2E,4E,6E,8E,10E,12E,14Z,16E)-17-(4-hydroxy-2,6,6-trimethyl-1-cyclohexenyl)-2,6,11,15-tetramethylheptadeca-2,4,6,8,10,12,14,16-octaenal

>  <PUBCHEM_IUPAC_NAME>
(2E,4E,6E,8E,10E,12E,14Z,16E)-17-(4-hydroxy-2,6,6-trimethylcyclohexen-1-yl)-2,6,11,15-tetramethylheptadeca-2,4,6,8,10,12,14,16-octaenal

>  <PUBCHEM_IUPAC_SYSTEMATIC_NAME>
(2E,4E,6E,8E,10E,12E,14Z,16E)-2,6,11,15-tetramethyl-17-(2,6,6-trimethyl-4-oxidanyl-cyclohexen-1-yl)heptadeca-2,4,6,8,10,12,14,16-octaenal

>  <PUBCHEM_IUPAC_TRADITIONAL_NAME>
(2E,4E,6E,8E,10E,12E,14Z,16E)-17-(4-hydroxy-2,6,6-trimethyl-cyclohexen-1-yl)-2,6,11,15-tetramethyl-heptadeca-2,4,6,8,10,12,14,16-octaenal

>  <PUBCHEM_IUPAC_INCHI>
InChI=1S/C30H40O2/c1-23(12-8-9-13-24(2)15-11-17-26(4)22-31)14-10-16-25(3)18-19-29-27(5)20-28(32)21-30(29,6)7/h8-19,22,28,32H,20-21H2,1-7H3/b9-8+,14-10+,15-11+,19-18+,23-12+,24-13+,25-16-,26-17+

>  <PUBCHEM_IUPAC_INCHIKEY>
AVPAEFHIEZLSLZ-STNACPSUSA-N

>  <PUBCHEM_EXACT_MASS>
432.303

>  <PUBCHEM_MOLECULAR_FORMULA>
C30H40O2

>  <PUBCHEM_MOLECULAR_WEIGHT>
432.648

>  <PUBCHEM_OPENEYE_CAN_SMILES>
CC1=C(C(CC(C1)O)(C)C)C=CC(=CC=CC(=CC=CC=C(C)C=CC=C(C)C=O)C)C

>  <PUBCHEM_OPENEYE_ISO_SMILES>
CC1=C(C(CC(C1)O)(C)C)/C=C/C(=C\C=C\C(=C\C=C\C=C(/C)\C=C\C=C(/C)\C=O)\C)/C

>  <PUBCHEM_CACTVS_TPSA>
37.3

>  <PUBCHEM_MONOISOTOPIC_WEIGHT>
432.303

>  <PUBCHEM_TOTAL_CHARGE>
0

>  <PUBCHEM_HEAVY_ATOM_COUNT>
32

>  <PUBCHEM_ATOM_DEF_STEREO_COUNT>
0

>  <PUBCHEM_ATOM_UDEF_STEREO_COUNT>
1

>  <PUBCHEM_BOND_DEF_STEREO_COUNT>
8

>  <PUBCHEM_BOND_UDEF_STEREO_COUNT>
0

>  <PUBCHEM_ISOTOPIC_ATOM_COUNT>
0

>  <PUBCHEM_COMPONENT_COUNT>
1

>  <PUBCHEM_CACTVS_TAUTO_COUNT>
512

>  <PUBCHEM_COORDINATE_TYPE>
1
5
255

>  <PUBCHEM_BONDANNOTATIONS>
5  1  3

$$$$
