131752196
 OpenBabel06101807152D

 68 72  0  0  1  0  0  0  0  0999 V2000
   11.1972   -1.0000    0.0000 O   0  0  0  0  0  0  0  0  0  0  0  0
    8.5991   -0.5000    0.0000 O   0  0  0  0  0  0  0  0  0  0  0  0
    8.5991   -2.5000    0.0000 O   0  0  0  0  0  0  0  0  0  0  0  0
   10.3312   -3.5000    0.0000 O   0  0  0  0  0  0  0  0  0  0  0  0
   12.0632   -3.5000    0.0000 O   0  0  0  0  0  0  0  0  0  0  0  0
   12.0911    0.4653    0.0000 O   0  0  0  0  0  0  0  0  0  0  0  0
    8.5991    0.5000    0.0000 O   0  0  0  0  0  0  0  0  0  0  0  0
   10.3312    3.5000    0.0000 O   0  0  0  0  0  0  0  0  0  0  0  0
    7.7331   -2.0000    0.0000 O   0  0  0  0  0  0  0  0  0  0  0  0
   12.0796    3.5346    0.0000 O   0  0  0  0  0  0  0  0  0  0  0  0
   16.4536   -1.0341    0.0000 O   0  0  0  0  0  0  0  0  0  0  0  0
    2.5369    1.0000    0.0000 O   0  0  0  0  0  0  0  0  0  0  0  0
    9.4651   -1.0000    0.0000 C   0  0  3  0  0  0  0  0  0  0  0  0
    9.4651   -2.0000    0.0000 C   0  0  3  0  0  0  0  0  0  0  0  0
   10.3312   -0.5000    0.0000 C   0  0  3  0  0  0  0  0  0  0  0  0
   10.3312   -2.5000    0.0000 C   0  0  3  0  0  0  0  0  0  0  0  0
   11.1972   -2.0000    0.0000 C   0  0  3  0  0  0  0  0  0  0  0  0
   10.3312    0.5000    0.0000 C   0  0  0  0  0  0  0  0  0  0  0  0
   12.0632   -2.5000    0.0000 C   0  0  0  0  0  0  0  0  0  0  0  0
   11.1972    1.0000    0.0000 C   0  0  0  0  0  0  0  0  0  0  0  0
    9.4651    1.0000    0.0000 C   0  0  0  0  0  0  0  0  0  0  0  0
   11.1972    2.0000    0.0000 C   0  0  0  0  0  0  0  0  0  0  0  0
    9.4651    2.0000    0.0000 C   0  0  0  0  0  0  0  0  0  0  0  0
   10.3312    2.5000    0.0000 C   0  0  0  0  0  0  0  0  0  0  0  0
    7.7331   -1.0000    0.0000 C   0  0  0  0  0  0  0  0  0  0  0  0
   12.0911    2.5347    0.0000 C   0  0  0  0  0  0  0  0  0  0  0  0
   12.9972    0.9792    0.0000 C   0  0  0  0  0  0  0  0  0  0  0  0
   12.9972    2.0208    0.0000 C   0  0  0  0  0  0  0  0  0  0  0  0
    6.8671   -0.5000    0.0000 C   0  0  0  0  0  0  0  0  0  0  0  0
   13.8613    0.4758    0.0000 C   0  0  0  0  0  0  0  0  0  0  0  0
    6.0010   -1.0000    0.0000 C   0  0  0  0  0  0  0  0  0  0  0  0
   14.7292    0.9725    0.0000 C   0  0  0  0  0  0  0  0  0  0  0  0
   13.8574   -0.5241    0.0000 C   0  0  0  0  0  0  0  0  0  0  0  0
    5.1350   -0.5000    0.0000 C   0  0  0  0  0  0  0  0  0  0  0  0
   15.5933    0.4692    0.0000 C   0  0  0  0  0  0  0  0  0  0  0  0
   14.7215   -1.0275    0.0000 C   0  0  0  0  0  0  0  0  0  0  0  0
   15.5895   -0.5308    0.0000 C   0  0  0  0  0  0  0  0  0  0  0  0
    4.2690   -1.0000    0.0000 C   0  0  0  0  0  0  0  0  0  0  0  0
    5.1350    0.5000    0.0000 C   0  0  0  0  0  0  0  0  0  0  0  0
    3.4030   -0.5000    0.0000 C   0  0  0  0  0  0  0  0  0  0  0  0
    4.2690    1.0000    0.0000 C   0  0  0  0  0  0  0  0  0  0  0  0
    3.4030    0.5000    0.0000 C   0  0  0  0  0  0  0  0  0  0  0  0
    9.4651   -0.3800    0.0000 H   0  0  0  0  0  0  0  0  0  0  0  0
    9.4651   -2.6200    0.0000 H   0  0  0  0  0  0  0  0  0  0  0  0
   10.8681   -0.1900    0.0000 H   0  0  0  0  0  0  0  0  0  0  0  0
   10.8681   -2.8100    0.0000 H   0  0  0  0  0  0  0  0  0  0  0  0
   11.7341   -1.6900    0.0000 H   0  0  0  0  0  0  0  0  0  0  0  0
   12.6738   -2.6077    0.0000 H   0  0  0  0  0  0  0  0  0  0  0  0
   12.2753   -1.9174    0.0000 H   0  0  0  0  0  0  0  0  0  0  0  0
    8.5991   -3.1200    0.0000 H   0  0  0  0  0  0  0  0  0  0  0  0
    9.7942   -3.8100    0.0000 H   0  0  0  0  0  0  0  0  0  0  0  0
    8.9282    2.3100    0.0000 H   0  0  0  0  0  0  0  0  0  0  0  0
   12.6002   -3.8100    0.0000 H   0  0  0  0  0  0  0  0  0  0  0  0
    8.0622    0.8100    0.0000 H   0  0  0  0  0  0  0  0  0  0  0  0
   13.5329    2.3329    0.0000 H   0  0  0  0  0  0  0  0  0  0  0  0
    6.8671    0.1200    0.0000 H   0  0  0  0  0  0  0  0  0  0  0  0
    9.7942    3.8100    0.0000 H   0  0  0  0  0  0  0  0  0  0  0  0
    6.0010   -1.6200    0.0000 H   0  0  0  0  0  0  0  0  0  0  0  0
   14.7316    1.5925    0.0000 H   0  0  0  0  0  0  0  0  0  0  0  0
   13.3193   -0.8321    0.0000 H   0  0  0  0  0  0  0  0  0  0  0  0
   16.1315    0.7771    0.0000 H   0  0  0  0  0  0  0  0  0  0  0  0
   14.7191   -1.6475    0.0000 H   0  0  0  0  0  0  0  0  0  0  0  0
    4.2690   -1.6200    0.0000 H   0  0  0  0  0  0  0  0  0  0  0  0
    5.6720    0.8100    0.0000 H   0  0  0  0  0  0  0  0  0  0  0  0
    2.8660   -0.8100    0.0000 H   0  0  0  0  0  0  0  0  0  0  0  0
    4.2690    1.6200    0.0000 H   0  0  0  0  0  0  0  0  0  0  0  0
   16.9917   -0.7262    0.0000 H   0  0  0  0  0  0  0  0  0  0  0  0
    2.0000    0.6900    0.0000 H   0  0  0  0  0  0  0  0  0  0  0  0
  1 15  1  0  0  0  0
  1 17  1  0  0  0  0
  2 13  1  0  0  0  0
  2 25  1  0  0  0  0
  3 14  1  0  0  0  0
  3 50  1  0  0  0  0
  4 16  1  0  0  0  0
  4 51  1  0  0  0  0
  5 19  1  0  0  0  0
  5 53  1  0  0  0  0
  6 20  1  0  0  0  0
  6 27  1  0  0  0  0
  7 21  1  0  0  0  0
  7 54  1  0  0  0  0
  8 24  1  0  0  0  0
  8 57  1  0  0  0  0
  9 25  2  0  0  0  0
 10 26  2  0  0  0  0
 11 37  1  0  0  0  0
 11 67  1  0  0  0  0
 12 42  1  0  0  0  0
 12 68  1  0  0  0  0
 13 14  1  0  0  0  0
 13 15  1  0  0  0  0
 13 43  1  0  0  0  0
 14 16  1  0  0  0  0
 14 44  1  0  0  0  0
 15 18  1  0  0  0  0
 15 45  1  0  0  0  0
 16 17  1  0  0  0  0
 16 46  1  0  0  0  0
 17 19  1  0  0  0  0
 17 47  1  0  0  0  0
 18 20  1  0  0  0  0
 18 21  2  0  0  0  0
 19 48  1  0  0  0  0
 19 49  1  0  0  0  0
 20 22  2  0  0  0  0
 21 23  1  0  0  0  0
 22 24  1  0  0  0  0
 22 26  1  0  0  0  0
 23 24  2  0  0  0  0
 23 52  1  0  0  0  0
 25 29  1  0  0  0  0
 26 28  1  0  0  0  0
 27 28  2  0  0  0  0
 27 30  1  0  0  0  0
 28 55  1  0  0  0  0
 29 31  2  0  0  0  0
 29 56  1  0  0  0  0
 30 32  2  0  0  0  0
 30 33  1  0  0  0  0
 31 34  1  0  0  0  0
 31 58  1  0  0  0  0
 32 35  1  0  0  0  0
 32 59  1  0  0  0  0
 33 36  2  0  0  0  0
 33 60  1  0  0  0  0
 34 38  2  0  0  0  0
 34 39  1  0  0  0  0
 35 37  2  0  0  0  0
 35 61  1  0  0  0  0
 36 37  1  0  0  0  0
 36 62  1  0  0  0  0
 38 40  1  0  0  0  0
 38 63  1  0  0  0  0
 39 41  2  0  0  0  0
 39 64  1  0  0  0  0
 40 42  2  0  0  0  0
 40 65  1  0  0  0  0
 41 42  1  0  0  0  0
 41 66  1  0  0  0  0
M  END
>  <PUBCHEM_COMPOUND_CID>
131752196

>  <PUBCHEM_COMPOUND_CANONICALIZED>
1

>  <PUBCHEM_CACTVS_COMPLEXITY>
1010

>  <PUBCHEM_CACTVS_HBOND_ACCEPTOR>
12

>  <PUBCHEM_CACTVS_HBOND_DONOR>
7

>  <PUBCHEM_CACTVS_ROTATABLE_BOND>
7

>  <PUBCHEM_CACTVS_SUBSKEYS>
AAADceB4PAAAAAAAAAAAAAAAAAAAAAAAAAA0YMECAAAAAACBUAAAGgAACAAADBSgmAIwDoAABgCIAqDSCAACCAAkIAAIiAEGCMgNNzaGNRqCeWCl4BULuYfI7PzOIAACCAAIAABAAAQQABAAAAAAAAAAAA==

>  <PUBCHEM_IUPAC_OPENEYE_NAME>
[2-[5,7-dihydroxy-2-(4-hydroxyphenyl)-4-oxo-chromen-8-yl]-4,5-dihydroxy-6-(hydroxymethyl)tetrahydropyran-3-yl] (E)-3-(4-hydroxyphenyl)prop-2-enoate

>  <PUBCHEM_IUPAC_CAS_NAME>
(E)-3-(4-hydroxyphenyl)-2-propenoic acid [2-[5,7-dihydroxy-2-(4-hydroxyphenyl)-4-oxo-1-benzopyran-8-yl]-4,5-dihydroxy-6-(hydroxymethyl)-3-oxanyl] ester

>  <PUBCHEM_IUPAC_NAME>
[2-[5,7-dihydroxy-2-(4-hydroxyphenyl)-4-oxochromen-8-yl]-4,5-dihydroxy-6-(hydroxymethyl)oxan-3-yl] (E)-3-(4-hydroxyphenyl)prop-2-enoate

>  <PUBCHEM_IUPAC_SYSTEMATIC_NAME>
[6-(hydroxymethyl)-2-[2-(4-hydroxyphenyl)-5,7-bis(oxidanyl)-4-oxidanylidene-chromen-8-yl]-4,5-bis(oxidanyl)oxan-3-yl] (E)-3-(4-hydroxyphenyl)prop-2-enoate

>  <PUBCHEM_IUPAC_TRADITIONAL_NAME>
(E)-3-(4-hydroxyphenyl)acrylic acid [2-[5,7-dihydroxy-2-(4-hydroxyphenyl)-4-keto-chromen-8-yl]-4,5-dihydroxy-6-methylol-tetrahydropyran-3-yl] ester

>  <PUBCHEM_IUPAC_INCHI>
InChI=1S/C30H26O12/c31-13-22-26(38)27(39)30(42-23(37)10-3-14-1-6-16(32)7-2-14)29(41-22)25-19(35)11-18(34)24-20(36)12-21(40-28(24)25)15-4-8-17(33)9-5-15/h1-12,22,26-27,29-35,38-39H,13H2/b10-3+

>  <PUBCHEM_IUPAC_INCHIKEY>
FJGOEBQRHWKKJH-XCVCLJGOSA-N

>  <PUBCHEM_EXACT_MASS>
578.142

>  <PUBCHEM_MOLECULAR_FORMULA>
C30H26O12

>  <PUBCHEM_MOLECULAR_WEIGHT>
578.526

>  <PUBCHEM_OPENEYE_CAN_SMILES>
C1=CC(=CC=C1C=CC(=O)OC2C(C(C(OC2C3=C(C=C(C4=C3OC(=CC4=O)C5=CC=C(C=C5)O)O)O)CO)O)O)O

>  <PUBCHEM_OPENEYE_ISO_SMILES>
C1=CC(=CC=C1/C=C/C(=O)OC2C(C(C(OC2C3=C(C=C(C4=C3OC(=CC4=O)C5=CC=C(C=C5)O)O)O)CO)O)O)O

>  <PUBCHEM_CACTVS_TPSA>
203

>  <PUBCHEM_MONOISOTOPIC_WEIGHT>
578.142

>  <PUBCHEM_TOTAL_CHARGE>
0

>  <PUBCHEM_HEAVY_ATOM_COUNT>
42

>  <PUBCHEM_ATOM_DEF_STEREO_COUNT>
0

>  <PUBCHEM_ATOM_UDEF_STEREO_COUNT>
5

>  <PUBCHEM_BOND_DEF_STEREO_COUNT>
1

>  <PUBCHEM_BOND_UDEF_STEREO_COUNT>
0

>  <PUBCHEM_ISOTOPIC_ATOM_COUNT>
0

>  <PUBCHEM_COMPONENT_COUNT>
1

>  <PUBCHEM_CACTVS_TAUTO_COUNT>
228

>  <PUBCHEM_COORDINATE_TYPE>
1
5
255

>  <PUBCHEM_BONDANNOTATIONS>
15  18  3
17  19  3
18  20  8
18  21  8
13  2  3
20  22  8
21  23  8
22  24  8
22  26  8
23  24  8
26  28  8
27  28  8
14  3  3
30  32  8
30  33  8
32  35  8
33  36  8
34  38  8
34  39  8
35  37  8
36  37  8
38  40  8
39  41  8
16  4  3
40  42  8
41  42  8
6  20  8
6  27  8

$$$$
