131752778
 OpenBabel06101807152D

146156  0  0  1  0  0  0  0  0999 V2000
   11.1902   -0.3547    0.0000 O   0  0  0  0  0  0  0  0  0  0  0  0
    6.8898   -0.3610    0.0000 O   0  0  0  0  0  0  0  0  0  0  0  0
   10.6504    3.1537    0.0000 O   0  0  0  0  0  0  0  0  0  0  0  0
   11.9396    4.3105    0.0000 O   0  0  0  0  0  0  0  0  0  0  0  0
    4.4620    2.2285    0.0000 O   0  0  0  0  0  0  0  0  0  0  0  0
    5.0544    3.8561    0.0000 O   0  0  0  0  0  0  0  0  0  0  0  0
    7.8833   -3.6866    0.0000 O   0  0  0  0  0  0  0  0  0  0  0  0
    6.1512   -3.6866    0.0000 O   0  0  0  0  0  0  0  0  0  0  0  0
   11.9861    1.6651    0.0000 O   0  0  0  0  0  0  0  0  0  0  0  0
   13.9431    2.0776    0.0000 O   0  0  0  0  0  0  0  0  0  0  0  0
   14.5644    3.9786    0.0000 O   0  0  0  0  0  0  0  0  0  0  0  0
    2.5826    2.9125    0.0000 O   0  0  0  0  0  0  0  0  0  0  0  0
    2.2353    4.8821    0.0000 O   0  0  0  0  0  0  0  0  0  0  0  0
    3.7674    6.1677    0.0000 O   0  0  0  0  0  0  0  0  0  0  0  0
    7.8833   -5.6866    0.0000 O   0  0  0  0  0  0  0  0  0  0  0  0
    6.1512   -6.6866    0.0000 O   0  0  0  0  0  0  0  0  0  0  0  0
    4.4192   -5.6866    0.0000 O   0  0  0  0  0  0  0  0  0  0  0  0
    6.1512   -0.6866    0.0000 O   0  0  0  0  0  0  0  0  0  0  0  0
   14.2072    5.6734    0.0000 O   0  0  0  0  0  0  0  0  0  0  0  0
    5.4731    6.4685    0.0000 O   0  0  0  0  0  0  0  0  0  0  0  0
    9.8814   -3.7550    0.0000 O   0  0  0  0  0  0  0  0  0  0  0  0
   13.1945   -4.0689    0.0000 O   0  0  0  0  0  0  0  0  0  0  0  0
    3.5532   -4.1866    0.0000 O   0  0  0  0  0  0  0  0  0  0  0  0
   10.7640    6.3860    0.0000 O   0  0  0  0  0  0  0  0  0  0  0  0
    8.1227    0.6735    0.0000 C   0  0  3  0  0  0  0  0  0  0  0  0
    9.6154   -0.6866    0.0000 C   0  0  3  0  0  0  0  0  0  0  0  0
    9.7184    0.3022    0.0000 C   0  0  0  0  0  0  0  0  0  0  0  0
    9.0506    1.0465    0.0000 C   0  0  0  0  0  0  0  0  0  0  0  0
    7.8814   -0.2909    0.0000 C   0  0  3  0  0  0  0  0  0  0  0  0
   10.5231   -1.0917    0.0000 C   0  0  3  0  0  0  0  0  0  0  0  0
    7.2811    1.2024    0.0000 C   0  0  0  0  0  0  0  0  0  0  0  0
   10.6969    0.5084    0.0000 C   0  0  0  0  0  0  0  0  0  0  0  0
    6.5150    0.5597    0.0000 C   0  0  0  0  0  0  0  0  0  0  0  0
    8.7493   -1.1866    0.0000 C   0  0  0  0  0  0  0  0  0  0  0  0
    9.3612    1.9970    0.0000 C   0  0  0  0  0  0  0  0  0  0  0  0
    8.3814   -1.1569    0.0000 C   0  0  0  0  0  0  0  0  0  0  0  0
   10.3397    2.2032    0.0000 C   0  0  0  0  0  0  0  0  0  0  0  0
   11.0076    1.4589    0.0000 C   0  0  0  0  0  0  0  0  0  0  0  0
   11.1910   -1.8360    0.0000 C   0  0  0  0  0  0  0  0  0  0  0  0
    7.1074    2.1872    0.0000 C   0  0  0  0  0  0  0  0  0  0  0  0
   11.6289    3.3599    0.0000 C   0  0  3  0  0  0  0  0  0  0  0  0
    5.5753    0.9017    0.0000 C   0  0  0  0  0  0  0  0  0  0  0  0
   12.2967    2.6156    0.0000 C   0  0  3  0  0  0  0  0  0  0  0  0
   13.2752    2.8219    0.0000 C   0  0  3  0  0  0  0  0  0  0  0  0
    8.7493   -2.1866    0.0000 C   0  0  0  0  0  0  0  0  0  0  0  0
    5.4017    1.8865    0.0000 C   0  0  0  0  0  0  0  0  0  0  0  0
   13.5859    3.7724    0.0000 C   0  0  3  0  0  0  0  0  0  0  0  0
    6.1677    2.5293    0.0000 C   0  0  0  0  0  0  0  0  0  0  0  0
    7.8833   -0.6866    0.0000 C   0  0  0  0  0  0  0  0  0  0  0  0
   12.9181    4.5167    0.0000 C   0  0  3  0  0  0  0  0  0  0  0  0
    4.2884    3.2133    0.0000 C   0  0  3  0  0  0  0  0  0  0  0  0
    3.3486    3.5553    0.0000 C   0  0  3  0  0  0  0  0  0  0  0  0
    7.8814   -2.0229    0.0000 C   0  0  0  0  0  0  0  0  0  0  0  0
    9.3814   -1.1569    0.0000 C   0  0  0  0  0  0  0  0  0  0  0  0
    3.1750    4.5401    0.0000 C   0  0  3  0  0  0  0  0  0  0  0  0
   10.8804   -2.7865    0.0000 C   0  0  0  0  0  0  0  0  0  0  0  0
   12.1695   -1.6298    0.0000 C   0  0  0  0  0  0  0  0  0  0  0  0
    3.9410    5.1829    0.0000 C   0  0  3  0  0  0  0  0  0  0  0  0
    7.8833   -2.6866    0.0000 C   0  0  0  0  0  0  0  0  0  0  0  0
    7.8735    2.8300    0.0000 C   0  0  0  0  0  0  0  0  0  0  0  0
    4.8807    4.8409    0.0000 C   0  0  3  0  0  0  0  0  0  0  0  0
    7.0173   -4.1866    0.0000 C   0  0  3  0  0  0  0  0  0  0  0  0
    7.0173   -5.1866    0.0000 C   0  0  3  0  0  0  0  0  0  0  0  0
    6.1512   -5.6866    0.0000 C   0  0  3  0  0  0  0  0  0  0  0  0
    5.2852   -5.1866    0.0000 C   0  0  3  0  0  0  0  0  0  0  0  0
    7.0173   -1.1866    0.0000 C   0  0  0  0  0  0  0  0  0  0  0  0
    5.2852   -4.1866    0.0000 C   0  0  3  0  0  0  0  0  0  0  0  0
    7.0173   -2.1866    0.0000 C   0  0  0  0  0  0  0  0  0  0  0  0
   13.2287    5.4672    0.0000 C   0  0  0  0  0  0  0  0  0  0  0  0
    8.3815   -2.8890    0.0000 C   0  0  0  0  0  0  0  0  0  0  0  0
    9.8814   -2.0229    0.0000 C   0  0  0  0  0  0  0  0  0  0  0  0
   11.5482   -3.5308    0.0000 C   0  0  0  0  0  0  0  0  0  0  0  0
   12.8373   -2.3741    0.0000 C   0  0  0  0  0  0  0  0  0  0  0  0
    5.6468    5.4837    0.0000 C   0  0  0  0  0  0  0  0  0  0  0  0
    9.3814   -2.8890    0.0000 C   0  0  0  0  0  0  0  0  0  0  0  0
   12.5267   -3.3246    0.0000 C   0  0  0  0  0  0  0  0  0  0  0  0
    7.6998    3.8148    0.0000 C   0  0  0  0  0  0  0  0  0  0  0  0
    4.4192   -3.6866    0.0000 C   0  0  0  0  0  0  0  0  0  0  0  0
    8.4659    4.4576    0.0000 C   0  0  0  0  0  0  0  0  0  0  0  0
    9.4056    4.1156    0.0000 C   0  0  0  0  0  0  0  0  0  0  0  0
    8.2922    5.4424    0.0000 C   0  0  0  0  0  0  0  0  0  0  0  0
   10.1716    4.7584    0.0000 C   0  0  0  0  0  0  0  0  0  0  0  0
    9.0583    6.0852    0.0000 C   0  0  0  0  0  0  0  0  0  0  0  0
    9.9980    5.7432    0.0000 C   0  0  0  0  0  0  0  0  0  0  0  0
    8.5901    0.2662    0.0000 H   0  0  0  0  0  0  0  0  0  0  0  0
    9.6475   -1.3057    0.0000 H   0  0  0  0  0  0  0  0  0  0  0  0
    8.4954   -0.2048    0.0000 H   0  0  0  0  0  0  0  0  0  0  0  0
   10.1581   -1.5928    0.0000 H   0  0  0  0  0  0  0  0  0  0  0  0
    8.9472    2.4584    0.0000 H   0  0  0  0  0  0  0  0  0  0  0  0
   11.6142    1.5868    0.0000 H   0  0  0  0  0  0  0  0  0  0  0  0
   11.4363    2.7706    0.0000 H   0  0  0  0  0  0  0  0  0  0  0  0
    5.1004    0.5031    0.0000 H   0  0  0  0  0  0  0  0  0  0  0  0
   12.7108    2.1542    0.0000 H   0  0  0  0  0  0  0  0  0  0  0  0
   13.0826    2.2325    0.0000 H   0  0  0  0  0  0  0  0  0  0  0  0
    9.2863   -2.4966    0.0000 H   0  0  0  0  0  0  0  0  0  0  0  0
   14.0000    3.3109    0.0000 H   0  0  0  0  0  0  0  0  0  0  0  0
    6.0601    3.1398    0.0000 H   0  0  0  0  0  0  0  0  0  0  0  0
    7.8833   -0.0666    0.0000 H   0  0  0  0  0  0  0  0  0  0  0  0
   12.5040    4.9782    0.0000 H   0  0  0  0  0  0  0  0  0  0  0  0
    3.8134    2.8148    0.0000 H   0  0  0  0  0  0  0  0  0  0  0  0
    2.7660    3.7674    0.0000 H   0  0  0  0  0  0  0  0  0  0  0  0
    7.2614   -2.0230    0.0000 H   0  0  0  0  0  0  0  0  0  0  0  0
    9.6914   -0.6200    0.0000 H   0  0  0  0  0  0  0  0  0  0  0  0
    3.0673    5.1507    0.0000 H   0  0  0  0  0  0  0  0  0  0  0  0
   10.2737   -2.9144    0.0000 H   0  0  0  0  0  0  0  0  0  0  0  0
   12.3621   -1.0404    0.0000 H   0  0  0  0  0  0  0  0  0  0  0  0
    4.4160    5.5814    0.0000 H   0  0  0  0  0  0  0  0  0  0  0  0
    5.4634    4.6288    0.0000 H   0  0  0  0  0  0  0  0  0  0  0  0
    8.4561    2.6180    0.0000 H   0  0  0  0  0  0  0  0  0  0  0  0
    7.0173   -3.5666    0.0000 H   0  0  0  0  0  0  0  0  0  0  0  0
    7.0173   -5.8066    0.0000 H   0  0  0  0  0  0  0  0  0  0  0  0
    5.6143   -5.9966    0.0000 H   0  0  0  0  0  0  0  0  0  0  0  0
    5.2852   -5.8066    0.0000 H   0  0  0  0  0  0  0  0  0  0  0  0
    5.2852   -3.5666    0.0000 H   0  0  0  0  0  0  0  0  0  0  0  0
    6.4803   -2.4966    0.0000 H   0  0  0  0  0  0  0  0  0  0  0  0
   13.2082    6.0869    0.0000 H   0  0  0  0  0  0  0  0  0  0  0  0
   12.6149    5.5546    0.0000 H   0  0  0  0  0  0  0  0  0  0  0  0
    8.0715   -3.4259    0.0000 H   0  0  0  0  0  0  0  0  0  0  0  0
   10.5014   -2.0229    0.0000 H   0  0  0  0  0  0  0  0  0  0  0  0
   11.3556   -4.1201    0.0000 H   0  0  0  0  0  0  0  0  0  0  0  0
   13.4440   -2.2462    0.0000 H   0  0  0  0  0  0  0  0  0  0  0  0
    5.9568    4.9467    0.0000 H   0  0  0  0  0  0  0  0  0  0  0  0
    6.2294    5.6957    0.0000 H   0  0  0  0  0  0  0  0  0  0  0  0
   12.4001    1.2037    0.0000 H   0  0  0  0  0  0  0  0  0  0  0  0
   14.5498    2.2054    0.0000 H   0  0  0  0  0  0  0  0  0  0  0  0
   14.9785    3.5171    0.0000 H   0  0  0  0  0  0  0  0  0  0  0  0
    7.1172    4.0269    0.0000 H   0  0  0  0  0  0  0  0  0  0  0  0
    4.8177   -3.2116    0.0000 H   0  0  0  0  0  0  0  0  0  0  0  0
    4.0207   -3.2116    0.0000 H   0  0  0  0  0  0  0  0  0  0  0  0
    2.0000    3.1246    0.0000 H   0  0  0  0  0  0  0  0  0  0  0  0
    2.1276    5.4927    0.0000 H   0  0  0  0  0  0  0  0  0  0  0  0
    3.1848    6.3798    0.0000 H   0  0  0  0  0  0  0  0  0  0  0  0
    8.4202   -5.3766    0.0000 H   0  0  0  0  0  0  0  0  0  0  0  0
    6.6882   -6.9966    0.0000 H   0  0  0  0  0  0  0  0  0  0  0  0
    4.4192   -6.3066    0.0000 H   0  0  0  0  0  0  0  0  0  0  0  0
    5.6143   -0.9966    0.0000 H   0  0  0  0  0  0  0  0  0  0  0  0
   14.3998    6.2627    0.0000 H   0  0  0  0  0  0  0  0  0  0  0  0
    5.9481    6.8670    0.0000 H   0  0  0  0  0  0  0  0  0  0  0  0
    9.5714   -4.2919    0.0000 H   0  0  0  0  0  0  0  0  0  0  0  0
   13.8012   -3.9410    0.0000 H   0  0  0  0  0  0  0  0  0  0  0  0
    3.0162   -3.8766    0.0000 H   0  0  0  0  0  0  0  0  0  0  0  0
    9.5132    3.5050    0.0000 H   0  0  0  0  0  0  0  0  0  0  0  0
    7.7096    5.6545    0.0000 H   0  0  0  0  0  0  0  0  0  0  0  0
   10.7542    4.5463    0.0000 H   0  0  0  0  0  0  0  0  0  0  0  0
    8.9506    6.6958    0.0000 H   0  0  0  0  0  0  0  0  0  0  0  0
   10.6563    6.9966    0.0000 H   0  0  0  0  0  0  0  0  0  0  0  0
  1 30  1  0  0  0  0
  1 32  1  0  0  0  0
  2 29  1  0  0  0  0
  2 33  1  0  0  0  0
  3 37  1  0  0  0  0
  3 41  1  0  0  0  0
  4 41  1  0  0  0  0
  4 50  1  0  0  0  0
  5 46  1  0  0  0  0
  5 51  1  0  0  0  0
  6 51  1  0  0  0  0
  6 61  1  0  0  0  0
  7 59  1  0  0  0  0
  7 62  1  0  0  0  0
  8 62  1  0  0  0  0
  8 67  1  0  0  0  0
  9 43  1  0  0  0  0
  9124  1  0  0  0  0
 10 44  1  0  0  0  0
 10125  1  0  0  0  0
 11 47  1  0  0  0  0
 11126  1  0  0  0  0
 12 52  1  0  0  0  0
 12130  1  0  0  0  0
 13 55  1  0  0  0  0
 13131  1  0  0  0  0
 14 58  1  0  0  0  0
 14132  1  0  0  0  0
 15 63  1  0  0  0  0
 15133  1  0  0  0  0
 16 64  1  0  0  0  0
 16134  1  0  0  0  0
 17 65  1  0  0  0  0
 17135  1  0  0  0  0
 18 66  1  0  0  0  0
 18136  1  0  0  0  0
 19 69  1  0  0  0  0
 19137  1  0  0  0  0
 20 74  1  0  0  0  0
 20138  1  0  0  0  0
 21 75  1  0  0  0  0
 21139  1  0  0  0  0
 22 76  1  0  0  0  0
 22140  1  0  0  0  0
 23 78  1  0  0  0  0
 23141  1  0  0  0  0
 24 84  1  0  0  0  0
 24146  1  0  0  0  0
 25 28  1  0  0  0  0
 25 29  1  0  0  0  0
 25 31  1  0  0  0  0
 25 85  1  0  0  0  0
 26 27  1  0  0  0  0
 26 30  1  0  0  0  0
 26 34  1  0  0  0  0
 26 86  1  0  0  0  0
 27 28  2  0  0  0  0
 27 32  1  0  0  0  0
 28 35  1  0  0  0  0
 29 36  1  0  0  0  0
 29 87  1  0  0  0  0
 30 39  1  0  0  0  0
 30 88  1  0  0  0  0
 31 33  1  0  0  0  0
 31 40  2  0  0  0  0
 32 38  2  0  0  0  0
 33 42  2  0  0  0  0
 34 45  1  0  0  0  0
 34 49  2  0  0  0  0
 35 37  2  0  0  0  0
 35 89  1  0  0  0  0
 36 53  2  0  0  0  0
 36 54  1  0  0  0  0
 37 38  1  0  0  0  0
 38 90  1  0  0  0  0
 39 56  2  0  0  0  0
 39 57  1  0  0  0  0
 40 48  1  0  0  0  0
 40 60  1  0  0  0  0
 41 43  1  0  0  0  0
 41 91  1  0  0  0  0
 42 46  1  0  0  0  0
 42 92  1  0  0  0  0
 43 44  1  0  0  0  0
 43 93  1  0  0  0  0
 44 47  1  0  0  0  0
 44 94  1  0  0  0  0
 45 59  2  0  0  0  0
 45 95  1  0  0  0  0
 46 48  2  0  0  0  0
 47 50  1  0  0  0  0
 47 96  1  0  0  0  0
 48 97  1  0  0  0  0
 49 66  1  0  0  0  0
 49 98  1  0  0  0  0
 50 69  1  0  0  0  0
 50 99  1  0  0  0  0
 51 52  1  0  0  0  0
 51100  1  0  0  0  0
 52 55  1  0  0  0  0
 52101  1  0  0  0  0
 53 70  1  0  0  0  0
 53102  1  0  0  0  0
 54 71  2  0  0  0  0
 54103  1  0  0  0  0
 55 58  1  0  0  0  0
 55104  1  0  0  0  0
 56 72  1  0  0  0  0
 56105  1  0  0  0  0
 57 73  2  0  0  0  0
 57106  1  0  0  0  0
 58 61  1  0  0  0  0
 58107  1  0  0  0  0
 59 68  1  0  0  0  0
 60 77  2  0  0  0  0
 60109  1  0  0  0  0
 61 74  1  0  0  0  0
 61108  1  0  0  0  0
 62 63  1  0  0  0  0
 62110  1  0  0  0  0
 63 64  1  0  0  0  0
 63111  1  0  0  0  0
 64 65  1  0  0  0  0
 64112  1  0  0  0  0
 65 67  1  0  0  0  0
 65113  1  0  0  0  0
 66 68  2  0  0  0  0
 67 78  1  0  0  0  0
 67114  1  0  0  0  0
 68115  1  0  0  0  0
 69116  1  0  0  0  0
 69117  1  0  0  0  0
 70 75  2  0  0  0  0
 70118  1  0  0  0  0
 71 75  1  0  0  0  0
 71119  1  0  0  0  0
 72 76  2  0  0  0  0
 72120  1  0  0  0  0
 73 76  1  0  0  0  0
 73121  1  0  0  0  0
 74122  1  0  0  0  0
 74123  1  0  0  0  0
 77 79  1  0  0  0  0
 77127  1  0  0  0  0
 78128  1  0  0  0  0
 78129  1  0  0  0  0
 79 80  2  0  0  0  0
 79 81  1  0  0  0  0
 80 82  1  0  0  0  0
 80142  1  0  0  0  0
 81 83  2  0  0  0  0
 81143  1  0  0  0  0
 82 84  2  0  0  0  0
 82144  1  0  0  0  0
 83 84  1  0  0  0  0
 83145  1  0  0  0  0
M  END
>  <PUBCHEM_COMPOUND_CID>
131752778

>  <PUBCHEM_COMPOUND_CANONICALIZED>
1

>  <PUBCHEM_CACTVS_COMPLEXITY>
2090

>  <PUBCHEM_CACTVS_HBOND_ACCEPTOR>
24

>  <PUBCHEM_CACTVS_HBOND_DONOR>
16

>  <PUBCHEM_CACTVS_ROTATABLE_BOND>
15

>  <PUBCHEM_CACTVS_SUBSKEYS>
AAADcfB8PgAAAAAAAAAAAAAAAAAAASJAAAA0aNGDAAAAAEgBVAAAGgAACAAADRSwmAMwDoAABgCAAiBCAAACCAAgIAAIiAAGCIgdNyKGMRqieCClwBUPuAfA4PwOoAABCAAYAABAAAIQADAAAAAAAAAAAA==

>  <PUBCHEM_IUPAC_OPENEYE_NAME>
2-[3-hydroxy-5-[2-(4-hydroxyphenyl)-4-[2-(4-hydroxyphenyl)-4-[(E)-2-(4-hydroxyphenyl)vinyl]-6-[3,4,5-trihydroxy-6-(hydroxymethyl)tetrahydropyran-2-yl]oxy-2,3-dihydrobenzofuran-3-yl]-6-[3,4,5-trihydroxy-6-(hydroxymethyl)tetrahydropyran-2-yl]oxy-2,3-dihydrobenzofuran-3-yl]phenoxy]-6-(hydroxymethyl)tetrahydropyran-3,4,5-triol

>  <PUBCHEM_IUPAC_CAS_NAME>
2-[3-hydroxy-5-[2-(4-hydroxyphenyl)-4-[2-(4-hydroxyphenyl)-4-[(E)-2-(4-hydroxyphenyl)ethenyl]-6-[[3,4,5-trihydroxy-6-(hydroxymethyl)-2-oxanyl]oxy]-2,3-dihydrobenzofuran-3-yl]-6-[[3,4,5-trihydroxy-6-(hydroxymethyl)-2-oxanyl]oxy]-2,3-dihydrobenzofuran-3-yl]phenoxy]-6-(hydroxymethyl)oxane-3,4,5-triol

>  <PUBCHEM_IUPAC_NAME>
2-[3-hydroxy-5-[2-(4-hydroxyphenyl)-4-[2-(4-hydroxyphenyl)-4-[(E)-2-(4-hydroxyphenyl)ethenyl]-6-[3,4,5-trihydroxy-6-(hydroxymethyl)oxan-2-yl]oxy-2,3-dihydro-1-benzofuran-3-yl]-6-[3,4,5-trihydroxy-6-(hydroxymethyl)oxan-2-yl]oxy-2,3-dihydro-1-benzofuran-3-yl]phenoxy]-6-(hydroxymethyl)oxane-3,4,5-triol

>  <PUBCHEM_IUPAC_SYSTEMATIC_NAME>
2-(hydroxymethyl)-6-[3-[6-[6-(hydroxymethyl)-3,4,5-tris(oxidanyl)oxan-2-yl]oxy-4-[6-[6-(hydroxymethyl)-3,4,5-tris(oxidanyl)oxan-2-yl]oxy-2-(4-hydroxyphenyl)-4-[(E)-2-(4-hydroxyphenyl)ethenyl]-2,3-dihydro-1-benzofuran-3-yl]-2-(4-hydroxyphenyl)-2,3-dihydro-1-benzofuran-3-yl]-5-oxidanyl-phenoxy]oxane-3,4,5-triol

>  <PUBCHEM_IUPAC_TRADITIONAL_NAME>
2-[3-hydroxy-5-[2-(4-hydroxyphenyl)-4-[2-(4-hydroxyphenyl)-4-[(E)-2-(4-hydroxyphenyl)vinyl]-6-(3,4,5-trihydroxy-6-methylol-tetrahydropyran-2-yl)oxy-coumaran-3-yl]-6-(3,4,5-trihydroxy-6-methylol-tetrahydropyran-2-yl)oxy-coumaran-3-yl]phenoxy]-6-methylol-tetrahydropyran-3,4,5-triol

>  <PUBCHEM_IUPAC_INCHI>
InChI=1S/C60H62O24/c61-22-40-47(68)50(71)53(74)58(82-40)77-34-17-29(15-33(67)18-34)44-45-37(19-36(79-60-55(76)52(73)49(70)42(24-63)84-60)21-39(45)81-56(44)26-5-11-31(65)12-6-26)46-43-28(4-1-25-2-9-30(64)10-3-25)16-35(78-59-54(75)51(72)48(69)41(23-62)83-59)20-38(43)80-57(46)27-7-13-32(66)14-8-27/h1-21,40-42,44,46-76H,22-24H2/b4-1+

>  <PUBCHEM_IUPAC_INCHIKEY>
OERCOQRGXRNZRU-DAFODLJHSA-N

>  <PUBCHEM_EXACT_MASS>
1166.363

>  <PUBCHEM_MOLECULAR_FORMULA>
C60H62O24

>  <PUBCHEM_MOLECULAR_WEIGHT>
1167.132

>  <PUBCHEM_OPENEYE_CAN_SMILES>
C1=CC(=CC=C1C=CC2=CC(=CC3=C2C(C(O3)C4=CC=C(C=C4)O)C5=CC(=CC6=C5C(C(O6)C7=CC=C(C=C7)O)C8=CC(=CC(=C8)OC9C(C(C(C(O9)CO)O)O)O)O)OC1C(C(C(C(O1)CO)O)O)O)OC1C(C(C(C(O1)CO)O)O)O)O

>  <PUBCHEM_OPENEYE_ISO_SMILES>
C1=CC(=CC=C1/C=C/C2=CC(=CC3=C2C(C(O3)C4=CC=C(C=C4)O)C5=CC(=CC6=C5C(C(O6)C7=CC=C(C=C7)O)C8=CC(=CC(=C8)OC9C(C(C(C(O9)CO)O)O)O)O)OC1C(C(C(C(O1)CO)O)O)O)OC1C(C(C(C(O1)CO)O)O)O)O

>  <PUBCHEM_CACTVS_TPSA>
398

>  <PUBCHEM_MONOISOTOPIC_WEIGHT>
1166.363

>  <PUBCHEM_TOTAL_CHARGE>
0

>  <PUBCHEM_HEAVY_ATOM_COUNT>
84

>  <PUBCHEM_ATOM_DEF_STEREO_COUNT>
0

>  <PUBCHEM_ATOM_UDEF_STEREO_COUNT>
19

>  <PUBCHEM_BOND_DEF_STEREO_COUNT>
1

>  <PUBCHEM_BOND_UDEF_STEREO_COUNT>
0

>  <PUBCHEM_ISOTOPIC_ATOM_COUNT>
0

>  <PUBCHEM_COMPONENT_COUNT>
1

>  <PUBCHEM_CACTVS_TAUTO_COUNT>
994

>  <PUBCHEM_COORDINATE_TYPE>
1
5
255

>  <PUBCHEM_BONDANNOTATIONS>
44  10  3
47  11  3
52  12  3
55  13  3
58  14  3
63  15  3
64  16  3
65  17  3
25  28  3
26  34  3
27  28  8
27  32  8
28  35  8
29  36  3
41  3  3
30  39  3
31  33  8
31  40  8
32  38  8
33  42  8
34  45  8
34  49  8
35  37  8
36  53  8
36  54  8
37  38  8
39  56  8
39  57  8
40  48  8
42  46  8
45  59  8
46  48  8
49  66  8
51  5  3
50  69  3
53  70  8
54  71  8
56  72  8
57  73  8
59  68  8
61  74  3
66  68  8
67  78  3
62  7  3
70  75  8
71  75  8
72  76  8
73  76  8
79  80  8
79  81  8
80  82  8
81  83  8
82  84  8
83  84  8
43  9  3

$$$$
