131752298
 OpenBabel06101807152D

 52 55  0  0  1  0  0  0  0  0999 V2000
    8.6663    1.7500    0.0000 O   0  0  0  0  0  0  0  0  0  0  0  0
    7.8003    0.2500    0.0000 O   0  0  0  0  0  0  0  0  0  0  0  0
    6.0682    3.2500    0.0000 O   0  0  0  0  0  0  0  0  0  0  0  0
    6.0682    1.2500    0.0000 O   0  0  0  0  0  0  0  0  0  0  0  0
    7.8003    4.2500    0.0000 O   0  0  0  0  0  0  0  0  0  0  0  0
    6.0682   -1.7500    0.0000 O   0  3  0  0  0  0  0  0  0  0  0  0
   10.3984   -1.2500    0.0000 O   0  0  0  0  0  0  0  0  0  0  0  0
    2.5381   -1.7742    0.0000 O   0  0  0  0  0  0  0  0  0  0  0  0
    8.6663   -4.2500    0.0000 O   0  0  0  0  0  0  0  0  0  0  0  0
   10.3984   -3.2500    0.0000 O   0  0  0  0  0  0  0  0  0  0  0  0
    6.9343    2.7500    0.0000 C   0  0  3  0  0  0  0  0  0  0  0  0
    6.9343    1.7500    0.0000 C   0  0  3  0  0  0  0  0  0  0  0  0
    7.8003    3.2500    0.0000 C   0  0  3  0  0  0  0  0  0  0  0  0
    7.8003    1.2500    0.0000 C   0  0  3  0  0  0  0  0  0  0  0  0
    8.6663    2.7500    0.0000 C   0  0  0  0  0  0  0  0  0  0  0  0
    6.9343   -0.2500    0.0000 C   0  0  0  0  0  0  0  0  0  0  0  0
    6.9343   -1.2500    0.0000 C   0  0  0  0  0  0  0  0  0  0  0  0
    6.0682    0.2500    0.0000 C   0  0  0  0  0  0  0  0  0  0  0  0
    5.2022   -0.2500    0.0000 C   0  0  0  0  0  0  0  0  0  0  0  0
    7.8003   -1.7500    0.0000 C   0  0  0  0  0  0  0  0  0  0  0  0
    5.2022   -1.2500    0.0000 C   0  0  0  0  0  0  0  0  0  0  0  0
    4.3083    0.2847    0.0000 C   0  0  0  0  0  0  0  0  0  0  0  0
    8.6663   -1.2500    0.0000 C   0  0  0  0  0  0  0  0  0  0  0  0
    7.8003   -2.7500    0.0000 C   0  0  0  0  0  0  0  0  0  0  0  0
    4.3083   -1.7847    0.0000 C   0  0  0  0  0  0  0  0  0  0  0  0
    3.4022   -0.2292    0.0000 C   0  0  0  0  0  0  0  0  0  0  0  0
    3.4022   -1.2708    0.0000 C   0  0  0  0  0  0  0  0  0  0  0  0
    9.5323   -1.7500    0.0000 C   0  0  0  0  0  0  0  0  0  0  0  0
    8.6663   -3.2500    0.0000 C   0  0  0  0  0  0  0  0  0  0  0  0
    9.5323   -2.7500    0.0000 C   0  0  0  0  0  0  0  0  0  0  0  0
   11.2644   -1.7500    0.0000 C   0  0  0  0  0  0  0  0  0  0  0  0
    6.9343    3.3700    0.0000 H   0  0  0  0  0  0  0  0  0  0  0  0
    6.3973    2.0600    0.0000 H   0  0  0  0  0  0  0  0  0  0  0  0
    8.3372    3.5600    0.0000 H   0  0  0  0  0  0  0  0  0  0  0  0
    7.2634    0.9400    0.0000 H   0  0  0  0  0  0  0  0  0  0  0  0
    9.2769    2.6423    0.0000 H   0  0  0  0  0  0  0  0  0  0  0  0
    8.8784    3.3326    0.0000 H   0  0  0  0  0  0  0  0  0  0  0  0
    6.0682    3.8700    0.0000 H   0  0  0  0  0  0  0  0  0  0  0  0
    5.5313    1.5600    0.0000 H   0  0  0  0  0  0  0  0  0  0  0  0
    8.3372    4.5600    0.0000 H   0  0  0  0  0  0  0  0  0  0  0  0
    6.0682    0.8700    0.0000 H   0  0  0  0  0  0  0  0  0  0  0  0
    4.3154    0.9046    0.0000 H   0  0  0  0  0  0  0  0  0  0  0  0
    8.6663   -0.6300    0.0000 H   0  0  0  0  0  0  0  0  0  0  0  0
    7.2634   -3.0600    0.0000 H   0  0  0  0  0  0  0  0  0  0  0  0
    4.3154   -2.4046    0.0000 H   0  0  0  0  0  0  0  0  0  0  0  0
    2.8665    0.0829    0.0000 H   0  0  0  0  0  0  0  0  0  0  0  0
    2.0000   -1.4662    0.0000 H   0  0  0  0  0  0  0  0  0  0  0  0
    8.1294   -4.5600    0.0000 H   0  0  0  0  0  0  0  0  0  0  0  0
   10.3984   -3.8700    0.0000 H   0  0  0  0  0  0  0  0  0  0  0  0
   10.9544   -2.2869    0.0000 H   0  0  0  0  0  0  0  0  0  0  0  0
   11.8013   -2.0600    0.0000 H   0  0  0  0  0  0  0  0  0  0  0  0
   11.5744   -1.2131    0.0000 H   0  0  0  0  0  0  0  0  0  0  0  0
  1 14  1  0  0  0  0
  1 15  1  0  0  0  0
  2 14  1  0  0  0  0
  2 16  1  0  0  0  0
  3 11  1  0  0  0  0
  3 38  1  0  0  0  0
  4 12  1  0  0  0  0
  4 39  1  0  0  0  0
  5 13  1  0  0  0  0
  5 40  1  0  0  0  0
  6 17  1  0  0  0  0
  6 21  2  0  0  0  0
  7 28  1  0  0  0  0
  7 31  1  0  0  0  0
  8 27  1  0  0  0  0
  8 47  1  0  0  0  0
  9 29  1  0  0  0  0
  9 48  1  0  0  0  0
 10 30  1  0  0  0  0
 10 49  1  0  0  0  0
 11 12  1  0  0  0  0
 11 13  1  0  0  0  0
 11 32  1  0  0  0  0
 12 14  1  0  0  0  0
 12 33  1  0  0  0  0
 13 15  1  0  0  0  0
 13 34  1  0  0  0  0
 14 35  1  0  0  0  0
 15 36  1  0  0  0  0
 15 37  1  0  0  0  0
 16 17  2  0  0  0  0
 16 18  1  0  0  0  0
 17 20  1  0  0  0  0
 18 19  2  0  0  0  0
 18 41  1  0  0  0  0
 19 21  1  0  0  0  0
 19 22  1  0  0  0  0
 20 23  1  0  0  0  0
 20 24  2  0  0  0  0
 21 25  1  0  0  0  0
 22 26  2  0  0  0  0
 22 42  1  0  0  0  0
 23 28  2  0  0  0  0
 23 43  1  0  0  0  0
 24 29  1  0  0  0  0
 24 44  1  0  0  0  0
 25 27  2  0  0  0  0
 25 45  1  0  0  0  0
 26 27  1  0  0  0  0
 26 46  1  0  0  0  0
 28 30  1  0  0  0  0
 29 30  2  0  0  0  0
 31 50  1  0  0  0  0
 31 51  1  0  0  0  0
 31 52  1  0  0  0  0
M  CHG  1   6   1
M  END
>  <PUBCHEM_COMPOUND_CID>
131752298

>  <PUBCHEM_COMPOUND_CANONICALIZED>
1

>  <PUBCHEM_CACTVS_COMPLEXITY>
593

>  <PUBCHEM_CACTVS_HBOND_ACCEPTOR>
9

>  <PUBCHEM_CACTVS_HBOND_DONOR>
6

>  <PUBCHEM_CACTVS_ROTATABLE_BOND>
4

>  <PUBCHEM_CACTVS_SUBSKEYS>
AAADceB4PAAAAAAAAAAAAAAAAAAAAAAAAAA0aIEAAAAAAACR9AAAGgAACAAADBSwmAMyDsAABkCIAqBSAAICCAAkIAAIiAFGiMgdNzaGNR6ieWOl4BUPuYfK7PzOIAABCAAIQABAAAIQABCAAAAAAAAAAA==

>  <PUBCHEM_IUPAC_OPENEYE_NAME>
2-[2-(3,4-dihydroxy-5-methoxy-phenyl)-7-hydroxy-chromenylium-3-yl]oxytetrahydropyran-3,4,5-triol

>  <PUBCHEM_IUPAC_CAS_NAME>
2-[[2-(3,4-dihydroxy-5-methoxyphenyl)-7-hydroxy-1-benzopyrylium-3-yl]oxy]oxane-3,4,5-triol

>  <PUBCHEM_IUPAC_NAME>
2-[2-(3,4-dihydroxy-5-methoxyphenyl)-7-hydroxychromenylium-3-yl]oxyoxane-3,4,5-triol

>  <PUBCHEM_IUPAC_SYSTEMATIC_NAME>
2-[2-[3-methoxy-4,5-bis(oxidanyl)phenyl]-7-oxidanyl-chromenylium-3-yl]oxyoxane-3,4,5-triol

>  <PUBCHEM_IUPAC_TRADITIONAL_NAME>
2-[[2-(3,4-dihydroxy-5-methoxy-phenyl)-7-hydroxy-1-benzopyrylium-3-yl]oxy]tetrahydropyran-3,4,5-triol

>  <PUBCHEM_IUPAC_INCHI>
InChI=1S/C21H20O10/c1-28-15-6-10(4-12(23)17(15)25)20-16(5-9-2-3-11(22)7-14(9)30-20)31-21-19(27)18(26)13(24)8-29-21/h2-7,13,18-19,21,24,26-27H,8H2,1H3,(H2-,22,23,25)/p+1

>  <PUBCHEM_IUPAC_INCHIKEY>
MVBYJYWJFIOZIW-UHFFFAOYSA-O

>  <PUBCHEM_EXACT_MASS>
433.113

>  <PUBCHEM_MOLECULAR_FORMULA>
C21H21O10+

>  <PUBCHEM_MOLECULAR_WEIGHT>
433.389

>  <PUBCHEM_OPENEYE_CAN_SMILES>
COC1=CC(=CC(=C1O)O)C2=C(C=C3C=CC(=CC3=[O+]2)O)OC4C(C(C(CO4)O)O)O

>  <PUBCHEM_OPENEYE_ISO_SMILES>
COC1=CC(=CC(=C1O)O)C2=C(C=C3C=CC(=CC3=[O+]2)O)OC4C(C(C(CO4)O)O)O

>  <PUBCHEM_CACTVS_TPSA>
150

>  <PUBCHEM_MONOISOTOPIC_WEIGHT>
433.113

>  <PUBCHEM_TOTAL_CHARGE>
1

>  <PUBCHEM_HEAVY_ATOM_COUNT>
31

>  <PUBCHEM_ATOM_DEF_STEREO_COUNT>
0

>  <PUBCHEM_ATOM_UDEF_STEREO_COUNT>
4

>  <PUBCHEM_BOND_DEF_STEREO_COUNT>
0

>  <PUBCHEM_BOND_UDEF_STEREO_COUNT>
0

>  <PUBCHEM_ISOTOPIC_ATOM_COUNT>
0

>  <PUBCHEM_COMPONENT_COUNT>
1

>  <PUBCHEM_CACTVS_TAUTO_COUNT>
102

>  <PUBCHEM_COORDINATE_TYPE>
1
5
255

>  <PUBCHEM_BONDANNOTATIONS>
16  17  8
16  18  8
18  19  8
19  21  8
19  22  8
14  2  3
20  23  8
20  24  8
21  25  8
22  26  8
23  28  8
24  29  8
25  27  8
26  27  8
28  30  8
29  30  8
11  3  3
12  4  3
13  5  3
6  17  8
6  21  8

$$$$
