131751401
 OpenBabel06101807152D

 38 40  0  0  1  0  0  0  0  0999 V2000
    4.3198    1.4050    0.0000 O   0  0  0  0  0  0  0  0  0  0  0  0
    2.5381    0.3945    0.0000 O   0  0  0  0  0  0  0  0  0  0  0  0
    6.0682   -2.6296    0.0000 O   0  0  0  0  0  0  0  0  0  0  0  0
    7.8003   -1.6296    0.0000 O   0  0  0  0  0  0  0  0  0  0  0  0
    8.7202    1.9155    0.0000 O   0  0  0  0  0  0  0  0  0  0  0  0
    5.2022   -1.1296    0.0000 C   0  0  3  0  0  0  0  0  0  0  0  0
    5.2022   -0.1296    0.0000 C   0  0  3  0  0  0  0  0  0  0  0  0
    4.3083    0.4050    0.0000 C   0  0  3  0  0  0  0  0  0  0  0  0
    4.3083   -1.6643    0.0000 C   0  0  0  0  0  0  0  0  0  0  0  0
    3.4022   -0.1088    0.0000 C   0  0  3  0  0  0  0  0  0  0  0  0
    3.4022   -1.1504    0.0000 C   0  0  0  0  0  0  0  0  0  0  0  0
    6.0682   -1.6296    0.0000 C   0  0  3  0  0  0  0  0  0  0  0  0
    6.0682    0.3704    0.0000 C   0  0  0  0  0  0  0  0  0  0  0  0
    6.9343   -0.1296    0.0000 C   0  0  0  0  0  0  0  0  0  0  0  0
    6.9343   -1.1296    0.0000 C   0  0  0  0  0  0  0  0  0  0  0  0
    6.0522    1.4119    0.0000 C   0  0  0  0  0  0  0  0  0  0  0  0
    7.8443    0.3772    0.0000 C   0  0  0  0  0  0  0  0  0  0  0  0
    6.9502    1.9396    0.0000 C   0  0  0  0  0  0  0  0  0  0  0  0
    7.8523    1.4188    0.0000 C   0  0  0  0  0  0  0  0  0  0  0  0
    6.9464    2.9396    0.0000 C   0  0  0  0  0  0  0  0  0  0  0  0
    5.2070   -1.7496    0.0000 H   0  0  0  0  0  0  0  0  0  0  0  0
    5.2070    0.4904    0.0000 H   0  0  0  0  0  0  0  0  0  0  0  0
    3.7744    0.7202    0.0000 H   0  0  0  0  0  0  0  0  0  0  0  0
    3.9147   -2.1433    0.0000 H   0  0  0  0  0  0  0  0  0  0  0  0
    4.7129   -2.1341    0.0000 H   0  0  0  0  0  0  0  0  0  0  0  0
    2.8647   -0.4178    0.0000 H   0  0  0  0  0  0  0  0  0  0  0  0
    2.7914   -1.0443    0.0000 H   0  0  0  0  0  0  0  0  0  0  0  0
    3.1932   -1.7341    0.0000 H   0  0  0  0  0  0  0  0  0  0  0  0
    6.6052   -1.9396    0.0000 H   0  0  0  0  0  0  0  0  0  0  0  0
    5.5117    1.7156    0.0000 H   0  0  0  0  0  0  0  0  0  0  0  0
    3.7865    1.7212    0.0000 H   0  0  0  0  0  0  0  0  0  0  0  0
    8.3776    0.0610    0.0000 H   0  0  0  0  0  0  0  0  0  0  0  0
    2.0000    0.0866    0.0000 H   0  0  0  0  0  0  0  0  0  0  0  0
    6.6052   -2.9396    0.0000 H   0  0  0  0  0  0  0  0  0  0  0  0
    7.5664    2.9420    0.0000 H   0  0  0  0  0  0  0  0  0  0  0  0
    6.9440    3.5596    0.0000 H   0  0  0  0  0  0  0  0  0  0  0  0
    6.3264    2.9372    0.0000 H   0  0  0  0  0  0  0  0  0  0  0  0
    9.2560    1.6034    0.0000 H   0  0  0  0  0  0  0  0  0  0  0  0
  1  8  1  0  0  0  0
  1 31  1  0  0  0  0
  2 10  1  0  0  0  0
  2 33  1  0  0  0  0
  3 12  1  0  0  0  0
  3 34  1  0  0  0  0
  4 15  2  0  0  0  0
  5 19  1  0  0  0  0
  5 38  1  0  0  0  0
  6  7  1  0  0  0  0
  6  9  1  0  0  0  0
  6 12  1  0  0  0  0
  6 21  1  0  0  0  0
  7  8  1  0  0  0  0
  7 13  1  0  0  0  0
  7 22  1  0  0  0  0
  8 10  1  0  0  0  0
  8 23  1  0  0  0  0
  9 11  1  0  0  0  0
  9 24  1  0  0  0  0
  9 25  1  0  0  0  0
 10 11  1  0  0  0  0
 10 26  1  0  0  0  0
 11 27  1  0  0  0  0
 11 28  1  0  0  0  0
 12 15  1  0  0  0  0
 12 29  1  0  0  0  0
 13 14  2  0  0  0  0
 13 16  1  0  0  0  0
 14 15  1  0  0  0  0
 14 17  1  0  0  0  0
 16 18  2  0  0  0  0
 16 30  1  0  0  0  0
 17 19  2  0  0  0  0
 17 32  1  0  0  0  0
 18 19  1  0  0  0  0
 18 20  1  0  0  0  0
 20 35  1  0  0  0  0
 20 36  1  0  0  0  0
 20 37  1  0  0  0  0
M  END
>  <PUBCHEM_COMPOUND_CID>
131751401

>  <PUBCHEM_COMPOUND_CANONICALIZED>
1

>  <PUBCHEM_CACTVS_COMPLEXITY>
398

>  <PUBCHEM_CACTVS_HBOND_ACCEPTOR>
5

>  <PUBCHEM_CACTVS_HBOND_DONOR>
4

>  <PUBCHEM_CACTVS_ROTATABLE_BOND>
0

>  <PUBCHEM_CACTVS_SUBSKEYS>
AAADceBwOAAAAAAAAAAAAAAAAAAAAAAAAAAwYMAAAAAAAADBAAAAGgAACAAADRSgmAIyBoAAAgCIAqBSAAICAAAkIAAAiAFGCMgJNjKCFRKAcQAkwBEJmYfK7PTO4AADAAAYAADAAAYAADCAAAAAAAAAAA==

>  <PUBCHEM_IUPAC_OPENEYE_NAME>
3,4,7,10-tetrahydroxy-6-methyl-2,3,4,4a,10,10a-hexahydro-1H-phenanthren-9-one

>  <PUBCHEM_IUPAC_CAS_NAME>
3,4,7,10-tetrahydroxy-6-methyl-2,3,4,4a,10,10a-hexahydro-1H-phenanthren-9-one

>  <PUBCHEM_IUPAC_NAME>
3,4,7,10-tetrahydroxy-6-methyl-2,3,4,4a,10,10a-hexahydro-1H-phenanthren-9-one

>  <PUBCHEM_IUPAC_SYSTEMATIC_NAME>
6-methyl-3,4,7,10-tetrakis(oxidanyl)-2,3,4,4a,10,10a-hexahydro-1H-phenanthren-9-one

>  <PUBCHEM_IUPAC_TRADITIONAL_NAME>
3,4,7,10-tetrahydroxy-6-methyl-2,3,4,4a,10,10a-hexahydro-1H-phenanthren-9-one

>  <PUBCHEM_IUPAC_INCHI>
InChI=1S/C15H18O5/c1-6-4-8-9(5-11(6)17)14(19)13(18)7-2-3-10(16)15(20)12(7)8/h4-5,7,10,12-13,15-18,20H,2-3H2,1H3

>  <PUBCHEM_IUPAC_INCHIKEY>
MBBMNXMKZBEZIP-UHFFFAOYSA-N

>  <PUBCHEM_EXACT_MASS>
278.115

>  <PUBCHEM_MOLECULAR_FORMULA>
C15H18O5

>  <PUBCHEM_MOLECULAR_WEIGHT>
278.304

>  <PUBCHEM_OPENEYE_CAN_SMILES>
CC1=C(C=C2C(=C1)C3C(CCC(C3O)O)C(C2=O)O)O

>  <PUBCHEM_OPENEYE_ISO_SMILES>
CC1=C(C=C2C(=C1)C3C(CCC(C3O)O)C(C2=O)O)O

>  <PUBCHEM_CACTVS_TPSA>
98

>  <PUBCHEM_MONOISOTOPIC_WEIGHT>
278.115

>  <PUBCHEM_TOTAL_CHARGE>
0

>  <PUBCHEM_HEAVY_ATOM_COUNT>
20

>  <PUBCHEM_ATOM_DEF_STEREO_COUNT>
0

>  <PUBCHEM_ATOM_UDEF_STEREO_COUNT>
5

>  <PUBCHEM_BOND_DEF_STEREO_COUNT>
0

>  <PUBCHEM_BOND_UDEF_STEREO_COUNT>
0

>  <PUBCHEM_ISOTOPIC_ATOM_COUNT>
0

>  <PUBCHEM_COMPONENT_COUNT>
1

>  <PUBCHEM_CACTVS_TAUTO_COUNT>
317

>  <PUBCHEM_COORDINATE_TYPE>
1
5
255

>  <PUBCHEM_BONDANNOTATIONS>
8  1  3
13  14  8
13  16  8
14  17  8
16  18  8
17  19  8
18  19  8
10  2  3
12  3  3
6  9  3
7  13  3

$$$$
