131751245
 OpenBabel06101807152D

 53 56  0  0  1  0  0  0  0  0999 V2000
    4.2370    3.3674    0.0000 O   0  0  0  0  0  0  0  0  0  0  0  0
    6.7168   -1.1225    0.0000 O   0  0  0  0  0  0  0  0  0  0  0  0
    5.5177   -2.3723    0.0000 O   0  0  0  0  0  0  0  0  0  0  0  0
    2.6346   -3.2598    0.0000 O   0  0  0  0  0  0  0  0  0  0  0  0
    4.3664   -3.2901    0.0000 O   0  0  0  0  0  0  0  0  0  0  0  0
    5.1708    0.2758    0.0000 C   0  0  3  0  0  0  0  0  0  0  0  0
    4.2699    0.7097    0.0000 C   0  0  3  0  0  0  0  0  0  0  0  0
    3.5848   -0.0106    0.0000 C   0  0  3  0  0  0  0  0  0  0  0  0
    4.0566   -0.8856    0.0000 C   0  0  3  0  0  0  0  0  0  0  0  0
    5.0349   -0.7089    0.0000 C   0  0  3  0  0  0  0  0  0  0  0  0
    5.0640    1.4526    0.0000 C   0  0  0  0  0  0  0  0  0  0  0  0
    6.0718    0.7097    0.0000 C   0  0  0  0  0  0  0  0  0  0  0  0
    5.6708    2.4665    0.0000 C   0  0  3  0  0  0  0  0  0  0  0  0
    4.0474    1.6846    0.0000 C   0  0  0  0  0  0  0  0  0  0  0  0
    3.5267   -1.7752    0.0000 C   0  0  3  0  0  0  0  0  0  0  0  0
    2.5503    0.0354    0.0000 C   0  0  0  0  0  0  0  0  0  0  0  0
    4.6708    2.4665    0.0000 C   0  0  3  0  0  0  0  0  0  0  0  0
    6.2943    1.6846    0.0000 C   0  0  0  0  0  0  0  0  0  0  0  0
    3.1102    0.8696    0.0000 C   0  0  0  0  0  0  0  0  0  0  0  0
    2.4915   -1.7531    0.0000 C   0  0  0  0  0  0  0  0  0  0  0  0
    2.0000   -0.8417    0.0000 C   0  0  0  0  0  0  0  0  0  0  0  0
    5.7565   -1.4012    0.0000 C   0  0  0  0  0  0  0  0  0  0  0  0
    4.3838   -2.2902    0.0000 C   0  0  0  0  0  0  0  0  0  0  0  0
    3.5092   -2.7750    0.0000 C   0  0  0  0  0  0  0  0  0  0  0  0
    7.2693    1.9072    0.0000 C   0  0  0  0  0  0  0  0  0  0  0  0
    3.6720    0.8739    0.0000 H   0  0  0  0  0  0  0  0  0  0  0  0
    4.4098   -1.3951    0.0000 H   0  0  0  0  0  0  0  0  0  0  0  0
    4.8558   -1.3025    0.0000 H   0  0  0  0  0  0  0  0  0  0  0  0
    4.6562    1.9196    0.0000 H   0  0  0  0  0  0  0  0  0  0  0  0
    4.4940    1.2088    0.0000 H   0  0  0  0  0  0  0  0  0  0  0  0
    6.2098    0.1052    0.0000 H   0  0  0  0  0  0  0  0  0  0  0  0
    6.6918    0.7097    0.0000 H   0  0  0  0  0  0  0  0  0  0  0  0
    5.9399    3.0251    0.0000 H   0  0  0  0  0  0  0  0  0  0  0  0
    3.6608    2.1694    0.0000 H   0  0  0  0  0  0  0  0  0  0  0  0
    3.4888    1.4156    0.0000 H   0  0  0  0  0  0  0  0  0  0  0  0
    2.6835    0.6410    0.0000 H   0  0  0  0  0  0  0  0  0  0  0  0
    1.9765    0.2702    0.0000 H   0  0  0  0  0  0  0  0  0  0  0  0
    4.0548    2.5359    0.0000 H   0  0  0  0  0  0  0  0  0  0  0  0
    3.6559    1.1639    0.0000 H   0  0  0  0  0  0  0  0  0  0  0  0
    2.8159    1.4153    0.0000 H   0  0  0  0  0  0  0  0  0  0  0  0
    2.5644    0.5753    0.0000 H   0  0  0  0  0  0  0  0  0  0  0  0
    1.9034   -1.9496    0.0000 H   0  0  0  0  0  0  0  0  0  0  0  0
    2.5845   -2.3660    0.0000 H   0  0  0  0  0  0  0  0  0  0  0  0
    1.5390   -0.4271    0.0000 H   0  0  0  0  0  0  0  0  0  0  0  0
    1.5127   -1.2250    0.0000 H   0  0  0  0  0  0  0  0  0  0  0  0
    4.0645   -2.8217    0.0000 H   0  0  0  0  0  0  0  0  0  0  0  0
    4.9153   -2.6096    0.0000 H   0  0  0  0  0  0  0  0  0  0  0  0
    4.7032   -1.7588    0.0000 H   0  0  0  0  0  0  0  0  0  0  0  0
    7.6910    1.4527    0.0000 H   0  0  0  0  0  0  0  0  0  0  0  0
    7.4520    2.4996    0.0000 H   0  0  0  0  0  0  0  0  0  0  0  0
    4.5862    3.8797    0.0000 H   0  0  0  0  0  0  0  0  0  0  0  0
    7.1642   -1.5517    0.0000 H   0  0  0  0  0  0  0  0  0  0  0  0
    2.6237   -3.8797    0.0000 H   0  0  0  0  0  0  0  0  0  0  0  0
  1 17  1  0  0  0  0
  1 51  1  0  0  0  0
  2 22  1  0  0  0  0
  2 52  1  0  0  0  0
  3 22  2  0  0  0  0
  4 24  1  0  0  0  0
  4 53  1  0  0  0  0
  5 24  2  0  0  0  0
  6  7  1  0  0  0  0
  6 10  1  0  0  0  0
  6 11  1  0  0  0  0
  6 12  1  0  0  0  0
  7  8  1  0  0  0  0
  7 14  1  0  0  0  0
  7 26  1  0  0  0  0
  8  9  1  0  0  0  0
  8 16  1  0  0  0  0
  8 19  1  0  0  0  0
  9 10  1  0  0  0  0
  9 15  1  0  0  0  0
  9 27  1  0  0  0  0
 10 22  1  0  0  0  0
 10 28  1  0  0  0  0
 11 13  1  0  0  0  0
 11 29  1  0  0  0  0
 11 30  1  0  0  0  0
 12 18  1  0  0  0  0
 12 31  1  0  0  0  0
 12 32  1  0  0  0  0
 13 17  1  0  0  0  0
 13 18  1  0  0  0  0
 13 33  1  0  0  0  0
 14 17  1  0  0  0  0
 14 34  1  0  0  0  0
 14 35  1  0  0  0  0
 15 20  1  0  0  0  0
 15 23  1  0  0  0  0
 15 24  1  0  0  0  0
 16 21  1  0  0  0  0
 16 36  1  0  0  0  0
 16 37  1  0  0  0  0
 17 38  1  0  0  0  0
 18 25  2  0  0  0  0
 19 39  1  0  0  0  0
 19 40  1  0  0  0  0
 19 41  1  0  0  0  0
 20 21  1  0  0  0  0
 20 42  1  0  0  0  0
 20 43  1  0  0  0  0
 21 44  1  0  0  0  0
 21 45  1  0  0  0  0
 23 46  1  0  0  0  0
 23 47  1  0  0  0  0
 23 48  1  0  0  0  0
 25 49  1  0  0  0  0
 25 50  1  0  0  0  0
M  END
>  <PUBCHEM_COMPOUND_CID>
131751245

>  <PUBCHEM_COMPOUND_CANONICALIZED>
1

>  <PUBCHEM_CACTVS_COMPLEXITY>
671

>  <PUBCHEM_CACTVS_HBOND_ACCEPTOR>
5

>  <PUBCHEM_CACTVS_HBOND_DONOR>
3

>  <PUBCHEM_CACTVS_ROTATABLE_BOND>
2

>  <PUBCHEM_CACTVS_SUBSKEYS>
AAADceB4OAAAAAAAAAAAAAAAAAAAAYMAAAAwYAAABgAAAGDAAAAAGgAACAAADxSggAICCAAAAgCIAgDSCAAAAAAgAAAAAAEAAAgAEBIAAQAAQAAEwAAAAAGI7vCPgAAAAAAAAADAAAYAADAAAQAACAAAAA==

>  <PUBCHEM_IUPAC_INCHI>
InChI=1S/C20H28O5/c1-10-8-20-9-11(10)12(21)7-13(20)18(2)5-4-6-19(3,17(24)25)15(18)14(20)16(22)23/h11-15,21H,1,4-9H2,2-3H3,(H,22,23)(H,24,25)

>  <PUBCHEM_IUPAC_INCHIKEY>
RVQCZHZIMZMGAD-UHFFFAOYSA-N

>  <PUBCHEM_EXACT_MASS>
348.194

>  <PUBCHEM_MOLECULAR_FORMULA>
C20H28O5

>  <PUBCHEM_MOLECULAR_WEIGHT>
348.439

>  <PUBCHEM_OPENEYE_CAN_SMILES>
CC12CCCC(C1C(C34C2CC(C(C3)C(=C)C4)O)C(=O)O)(C)C(=O)O

>  <PUBCHEM_OPENEYE_ISO_SMILES>
CC12CCCC(C1C(C34C2CC(C(C3)C(=C)C4)O)C(=O)O)(C)C(=O)O

>  <PUBCHEM_CACTVS_TPSA>
94.8

>  <PUBCHEM_MONOISOTOPIC_WEIGHT>
348.194

>  <PUBCHEM_TOTAL_CHARGE>
0

>  <PUBCHEM_HEAVY_ATOM_COUNT>
25

>  <PUBCHEM_ATOM_DEF_STEREO_COUNT>
0

>  <PUBCHEM_ATOM_UDEF_STEREO_COUNT>
8

>  <PUBCHEM_BOND_DEF_STEREO_COUNT>
0

>  <PUBCHEM_BOND_UDEF_STEREO_COUNT>
0

>  <PUBCHEM_ISOTOPIC_ATOM_COUNT>
0

>  <PUBCHEM_COMPONENT_COUNT>
1

>  <PUBCHEM_CACTVS_TAUTO_COUNT>
1

>  <PUBCHEM_COORDINATE_TYPE>
1
5
255

>  <PUBCHEM_BONDANNOTATIONS>
17  1  3
10  22  3
13  18  3
15  23  3
6  12  3
7  14  3
8  19  3
9  15  3

$$$$
