131752553
 OpenBabel06101807152D

 90 91  0  0  1  0  0  0  0  0999 V2000
    7.7331    5.0000    0.0000 O   0  0  0  0  0  0  0  0  0  0  0  0
    4.2690    4.0000    0.0000 O   0  0  0  0  0  0  0  0  0  0  0  0
    6.0010    4.0000    0.0000 O   0  0  0  0  0  0  0  0  0  0  0  0
    6.0010    7.0000    0.0000 O   0  0  0  0  0  0  0  0  0  0  0  0
    6.0010    2.0000    0.0000 O   0  0  0  0  0  0  0  0  0  0  0  0
    7.7331    8.0000    0.0000 O   0  0  0  0  0  0  0  0  0  0  0  0
    4.2690    1.0000    0.0000 O   0  0  0  0  0  0  0  0  0  0  0  0
    2.5369    2.0000    0.0000 O   0  0  0  0  0  0  0  0  0  0  0  0
    9.4651    7.0000    0.0000 O   0  0  0  0  0  0  0  0  0  0  0  0
    9.4651    5.0000    0.0000 O   0  0  0  0  0  0  0  0  0  0  0  0
    2.5369    5.0000    0.0000 O   0  0  0  0  0  0  0  0  0  0  0  0
    8.5991    3.5000    0.0000 O   0  0  0  0  0  0  0  0  0  0  0  0
    9.4651   -8.0000    0.0000 O   0  0  0  0  0  0  0  0  0  0  0  0
   10.3312   -6.5000    0.0000 O   0  0  0  0  0  0  0  0  0  0  0  0
    6.8671    5.5000    0.0000 C   0  0  3  0  0  0  0  0  0  0  0  0
    6.8671    6.5000    0.0000 C   0  0  3  0  0  0  0  0  0  0  0  0
    5.1350    2.5000    0.0000 C   0  0  3  0  0  0  0  0  0  0  0  0
    7.7331    7.0000    0.0000 C   0  0  3  0  0  0  0  0  0  0  0  0
    4.2690    2.0000    0.0000 C   0  0  3  0  0  0  0  0  0  0  0  0
    5.1350    3.5000    0.0000 C   0  0  3  0  0  0  0  0  0  0  0  0
    3.4030    2.5000    0.0000 C   0  0  3  0  0  0  0  0  0  0  0  0
    3.4030    3.5000    0.0000 C   0  0  3  0  0  0  0  0  0  0  0  0
    8.5991    6.5000    0.0000 C   0  0  3  0  0  0  0  0  0  0  0  0
    6.0010    5.0000    0.0000 C   0  0  0  0  0  0  0  0  0  0  0  0
    8.5991    5.5000    0.0000 C   0  0  3  0  0  0  0  0  0  0  0  0
    2.5369    4.0000    0.0000 C   0  0  0  0  0  0  0  0  0  0  0  0
    9.4651    4.0000    0.0000 C   0  0  0  0  0  0  0  0  0  0  0  0
   10.3312    3.5000    0.0000 C   0  0  0  0  0  0  0  0  0  0  0  0
   11.1972    4.0000    0.0000 C   0  0  0  0  0  0  0  0  0  0  0  0
   10.3312    2.5000    0.0000 C   0  0  0  0  0  0  0  0  0  0  0  0
   11.1972    2.0000    0.0000 C   0  0  0  0  0  0  0  0  0  0  0  0
   11.1972    1.0000    0.0000 C   0  0  0  0  0  0  0  0  0  0  0  0
   12.0632    0.5000    0.0000 C   0  0  0  0  0  0  0  0  0  0  0  0
   12.9292    1.0000    0.0000 C   0  0  0  0  0  0  0  0  0  0  0  0
   12.0632   -0.5000    0.0000 C   0  0  0  0  0  0  0  0  0  0  0  0
   11.1972   -1.0000    0.0000 C   0  0  0  0  0  0  0  0  0  0  0  0
   11.1972   -2.0000    0.0000 C   0  0  0  0  0  0  0  0  0  0  0  0
   10.3312   -2.5000    0.0000 C   0  0  0  0  0  0  0  0  0  0  0  0
   10.3312   -3.5000    0.0000 C   0  0  0  0  0  0  0  0  0  0  0  0
   11.1972   -4.0000    0.0000 C   0  0  0  0  0  0  0  0  0  0  0  0
    9.4651   -4.0000    0.0000 C   0  0  0  0  0  0  0  0  0  0  0  0
    9.4651   -5.0000    0.0000 C   0  0  0  0  0  0  0  0  0  0  0  0
    8.5991   -5.5000    0.0000 C   0  0  0  0  0  0  0  0  0  0  0  0
    8.5991   -6.5000    0.0000 C   0  0  0  0  0  0  0  0  0  0  0  0
    7.7331   -7.0000    0.0000 C   0  0  0  0  0  0  0  0  0  0  0  0
    9.4651   -7.0000    0.0000 C   0  0  0  0  0  0  0  0  0  0  0  0
    6.8671    4.8800    0.0000 H   0  0  0  0  0  0  0  0  0  0  0  0
    6.3301    6.1900    0.0000 H   0  0  0  0  0  0  0  0  0  0  0  0
    5.6720    2.8100    0.0000 H   0  0  0  0  0  0  0  0  0  0  0  0
    7.1962    7.3100    0.0000 H   0  0  0  0  0  0  0  0  0  0  0  0
    4.8059    1.6900    0.0000 H   0  0  0  0  0  0  0  0  0  0  0  0
    5.1350    4.1200    0.0000 H   0  0  0  0  0  0  0  0  0  0  0  0
    2.8660    2.8100    0.0000 H   0  0  0  0  0  0  0  0  0  0  0  0
    3.4030    4.1200    0.0000 H   0  0  0  0  0  0  0  0  0  0  0  0
    8.5991    7.1200    0.0000 H   0  0  0  0  0  0  0  0  0  0  0  0
    5.7890    5.5826    0.0000 H   0  0  0  0  0  0  0  0  0  0  0  0
    5.3905    4.8923    0.0000 H   0  0  0  0  0  0  0  0  0  0  0  0
    8.5991    4.8800    0.0000 H   0  0  0  0  0  0  0  0  0  0  0  0
    1.9264    4.1077    0.0000 H   0  0  0  0  0  0  0  0  0  0  0  0
    2.3249    3.4174    0.0000 H   0  0  0  0  0  0  0  0  0  0  0  0
    6.0010    7.6200    0.0000 H   0  0  0  0  0  0  0  0  0  0  0  0
    6.5380    2.3100    0.0000 H   0  0  0  0  0  0  0  0  0  0  0  0
    8.2700    8.3100    0.0000 H   0  0  0  0  0  0  0  0  0  0  0  0
    3.7320    0.6900    0.0000 H   0  0  0  0  0  0  0  0  0  0  0  0
    2.0000    2.3100    0.0000 H   0  0  0  0  0  0  0  0  0  0  0  0
   10.0021    6.6900    0.0000 H   0  0  0  0  0  0  0  0  0  0  0  0
    2.0000    5.3100    0.0000 H   0  0  0  0  0  0  0  0  0  0  0  0
   11.5072    3.4631    0.0000 H   0  0  0  0  0  0  0  0  0  0  0  0
   11.7341    4.3100    0.0000 H   0  0  0  0  0  0  0  0  0  0  0  0
   10.8872    4.5369    0.0000 H   0  0  0  0  0  0  0  0  0  0  0  0
    9.7942    2.1900    0.0000 H   0  0  0  0  0  0  0  0  0  0  0  0
   11.7341    2.3100    0.0000 H   0  0  0  0  0  0  0  0  0  0  0  0
   10.6603    0.6900    0.0000 H   0  0  0  0  0  0  0  0  0  0  0  0
   13.2392    0.4631    0.0000 H   0  0  0  0  0  0  0  0  0  0  0  0
   13.4662    1.3100    0.0000 H   0  0  0  0  0  0  0  0  0  0  0  0
   12.6192    1.5369    0.0000 H   0  0  0  0  0  0  0  0  0  0  0  0
   12.6002   -0.8100    0.0000 H   0  0  0  0  0  0  0  0  0  0  0  0
   10.6603   -0.6900    0.0000 H   0  0  0  0  0  0  0  0  0  0  0  0
   11.7341   -2.3100    0.0000 H   0  0  0  0  0  0  0  0  0  0  0  0
    9.7942   -2.1900    0.0000 H   0  0  0  0  0  0  0  0  0  0  0  0
   10.8872   -4.5369    0.0000 H   0  0  0  0  0  0  0  0  0  0  0  0
   11.7341   -4.3100    0.0000 H   0  0  0  0  0  0  0  0  0  0  0  0
   11.5072   -3.4631    0.0000 H   0  0  0  0  0  0  0  0  0  0  0  0
    8.9282   -3.6900    0.0000 H   0  0  0  0  0  0  0  0  0  0  0  0
   10.0021   -5.3100    0.0000 H   0  0  0  0  0  0  0  0  0  0  0  0
    8.0622   -5.1900    0.0000 H   0  0  0  0  0  0  0  0  0  0  0  0
    7.4231   -6.4631    0.0000 H   0  0  0  0  0  0  0  0  0  0  0  0
    7.1962   -7.3100    0.0000 H   0  0  0  0  0  0  0  0  0  0  0  0
    8.0431   -7.5369    0.0000 H   0  0  0  0  0  0  0  0  0  0  0  0
   10.0021   -8.3100    0.0000 H   0  0  0  0  0  0  0  0  0  0  0  0
  1 15  1  0  0  0  0
  1 25  1  0  0  0  0
  2 20  1  0  0  0  0
  2 22  1  0  0  0  0
  3 20  1  0  0  0  0
  3 24  1  0  0  0  0
  4 16  1  0  0  0  0
  4 61  1  0  0  0  0
  5 17  1  0  0  0  0
  5 62  1  0  0  0  0
  6 18  1  0  0  0  0
  6 63  1  0  0  0  0
  7 19  1  0  0  0  0
  7 64  1  0  0  0  0
  8 21  1  0  0  0  0
  8 65  1  0  0  0  0
  9 23  1  0  0  0  0
  9 66  1  0  0  0  0
 10 25  1  0  0  0  0
 10 27  1  0  0  0  0
 11 26  1  0  0  0  0
 11 67  1  0  0  0  0
 12 27  2  0  0  0  0
 13 46  1  0  0  0  0
 13 90  1  0  0  0  0
 14 46  2  0  0  0  0
 15 16  1  0  0  0  0
 15 24  1  0  0  0  0
 15 47  1  0  0  0  0
 16 18  1  0  0  0  0
 16 48  1  0  0  0  0
 17 19  1  0  0  0  0
 17 20  1  0  0  0  0
 17 49  1  0  0  0  0
 18 23  1  0  0  0  0
 18 50  1  0  0  0  0
 19 21  1  0  0  0  0
 19 51  1  0  0  0  0
 20 52  1  0  0  0  0
 21 22  1  0  0  0  0
 21 53  1  0  0  0  0
 22 26  1  0  0  0  0
 22 54  1  0  0  0  0
 23 25  1  0  0  0  0
 23 55  1  0  0  0  0
 24 56  1  0  0  0  0
 24 57  1  0  0  0  0
 25 58  1  0  0  0  0
 26 59  1  0  0  0  0
 26 60  1  0  0  0  0
 27 28  1  0  0  0  0
 28 29  1  0  0  0  0
 28 30  2  0  0  0  0
 29 68  1  0  0  0  0
 29 69  1  0  0  0  0
 29 70  1  0  0  0  0
 30 31  1  0  0  0  0
 30 71  1  0  0  0  0
 31 32  2  0  0  0  0
 31 72  1  0  0  0  0
 32 33  1  0  0  0  0
 32 73  1  0  0  0  0
 33 34  1  0  0  0  0
 33 35  2  0  0  0  0
 34 74  1  0  0  0  0
 34 75  1  0  0  0  0
 34 76  1  0  0  0  0
 35 36  1  0  0  0  0
 35 77  1  0  0  0  0
 36 37  2  0  0  0  0
 36 78  1  0  0  0  0
 37 38  1  0  0  0  0
 37 79  1  0  0  0  0
 38 39  2  0  0  0  0
 38 80  1  0  0  0  0
 39 40  1  0  0  0  0
 39 41  1  0  0  0  0
 40 81  1  0  0  0  0
 40 82  1  0  0  0  0
 40 83  1  0  0  0  0
 41 42  2  0  0  0  0
 41 84  1  0  0  0  0
 42 43  1  0  0  0  0
 42 85  1  0  0  0  0
 43 44  2  0  0  0  0
 43 86  1  0  0  0  0
 44 45  1  0  0  0  0
 44 46  1  0  0  0  0
 45 87  1  0  0  0  0
 45 88  1  0  0  0  0
 45 89  1  0  0  0  0
M  END
>  <PUBCHEM_COMPOUND_CID>
131752553

>  <PUBCHEM_COMPOUND_CANONICALIZED>
1

>  <PUBCHEM_CACTVS_COMPLEXITY>
1250

>  <PUBCHEM_CACTVS_HBOND_ACCEPTOR>
14

>  <PUBCHEM_CACTVS_HBOND_DONOR>
8

>  <PUBCHEM_CACTVS_ROTATABLE_BOND>
14

>  <PUBCHEM_CACTVS_SUBSKEYS>
AAADcfB8PAAAAAAAAAAAAAAAAAAAAAAAAAAkSAAAAAAAAAAAAAAAGgAACAAADBSwgAMCCAAABgCIAiDSCAAAAAAgAAAICAEAAEgZFAIAIQAiUAAFAAAPsYPAYAwAAAAAAAAAAAAAAAAAAAAAAAAAAAAAAA==

>  <PUBCHEM_IUPAC_OPENEYE_NAME>
(2Z,4E,6E,8E,10Z,12E,14E)-2,6,11,15-tetramethyl-16-oxo-16-[3,4,5-trihydroxy-6-[[3,4,5-trihydroxy-6-(hydroxymethyl)tetrahydropyran-2-yl]oxymethyl]tetrahydropyran-2-yl]oxy-hexadeca-2,4,6,8,10,12,14-heptaenoic acid

>  <PUBCHEM_IUPAC_CAS_NAME>
(2Z,4E,6E,8E,10Z,12E,14E)-2,6,11,15-tetramethyl-16-oxo-16-[[3,4,5-trihydroxy-6-[[3,4,5-trihydroxy-6-(hydroxymethyl)-2-oxanyl]oxymethyl]-2-oxanyl]oxy]hexadeca-2,4,6,8,10,12,14-heptaenoic acid

>  <PUBCHEM_IUPAC_NAME>
(2Z,4E,6E,8E,10Z,12E,14E)-2,6,11,15-tetramethyl-16-oxo-16-[3,4,5-trihydroxy-6-[[3,4,5-trihydroxy-6-(hydroxymethyl)oxan-2-yl]oxymethyl]oxan-2-yl]oxyhexadeca-2,4,6,8,10,12,14-heptaenoic acid

>  <PUBCHEM_IUPAC_SYSTEMATIC_NAME>
(2Z,4E,6E,8E,10Z,12E,14E)-16-[6-[[6-(hydroxymethyl)-3,4,5-tris(oxidanyl)oxan-2-yl]oxymethyl]-3,4,5-tris(oxidanyl)oxan-2-yl]oxy-2,6,11,15-tetramethyl-16-oxidanylidene-hexadeca-2,4,6,8,10,12,14-heptaenoic acid

>  <PUBCHEM_IUPAC_TRADITIONAL_NAME>
(2Z,4E,6E,8E,10Z,12E,14E)-16-keto-2,6,11,15-tetramethyl-16-[3,4,5-trihydroxy-6-[(3,4,5-trihydroxy-6-methylol-tetrahydropyran-2-yl)oxymethyl]tetrahydropyran-2-yl]oxy-hexadeca-2,4,6,8,10,12,14-heptaenoic acid

>  <PUBCHEM_IUPAC_INCHI>
InChI=1S/C32H44O14/c1-17(11-7-13-19(3)29(40)41)9-5-6-10-18(2)12-8-14-20(4)30(42)46-32-28(39)26(37)24(35)22(45-32)16-43-31-27(38)25(36)23(34)21(15-33)44-31/h5-14,21-28,31-39H,15-16H2,1-4H3,(H,40,41)/b6-5+,11-7+,12-8+,17-9+,18-10-,19-13-,20-14+

>  <PUBCHEM_IUPAC_INCHIKEY>
VULLCGFNYWDRHL-BCMXLCDNSA-N

>  <PUBCHEM_EXACT_MASS>
652.273

>  <PUBCHEM_MOLECULAR_FORMULA>
C32H44O14

>  <PUBCHEM_MOLECULAR_WEIGHT>
652.69

>  <PUBCHEM_OPENEYE_CAN_SMILES>
CC(=CC=CC=C(C)C=CC=C(C)C(=O)OC1C(C(C(C(O1)COC2C(C(C(C(O2)CO)O)O)O)O)O)O)C=CC=C(C)C(=O)O

>  <PUBCHEM_OPENEYE_ISO_SMILES>
C/C(=C\C=C\C=C(\C)/C=C/C=C(\C)/C(=O)OC1C(C(C(C(O1)COC2C(C(C(C(O2)CO)O)O)O)O)O)O)/C=C/C=C(/C)\C(=O)O

>  <PUBCHEM_CACTVS_TPSA>
233

>  <PUBCHEM_MONOISOTOPIC_WEIGHT>
652.273

>  <PUBCHEM_TOTAL_CHARGE>
0

>  <PUBCHEM_HEAVY_ATOM_COUNT>
46

>  <PUBCHEM_ATOM_DEF_STEREO_COUNT>
0

>  <PUBCHEM_ATOM_UDEF_STEREO_COUNT>
10

>  <PUBCHEM_BOND_DEF_STEREO_COUNT>
7

>  <PUBCHEM_BOND_UDEF_STEREO_COUNT>
0

>  <PUBCHEM_ISOTOPIC_ATOM_COUNT>
0

>  <PUBCHEM_COMPONENT_COUNT>
1

>  <PUBCHEM_CACTVS_TAUTO_COUNT>
98

>  <PUBCHEM_COORDINATE_TYPE>
1
5
255

>  <PUBCHEM_BONDANNOTATIONS>
25  10  3
15  24  3
22  26  3
20  3  3
16  4  3
17  5  3
18  6  3
19  7  3
21  8  3
23  9  3

$$$$
