131752185
 OpenBabel06101807152D

 89 95  0  0  1  0  0  0  0  0999 V2000
    5.1396    1.2741    0.0000 O   0  0  0  0  0  0  0  0  0  0  0  0
    8.6658   -1.7500    0.0000 O   0  0  0  0  0  0  0  0  0  0  0  0
   10.4258    1.2153    0.0000 O   0  0  0  0  0  0  0  0  0  0  0  0
   10.3979    0.2500    0.0000 O   0  0  0  0  0  0  0  0  0  0  0  0
    4.2639   -1.2225    0.0000 O   0  0  0  0  0  0  0  0  0  0  0  0
    2.5357   -0.2158    0.0000 O   0  0  0  0  0  0  0  0  0  0  0  0
    2.5434    1.7842    0.0000 O   0  0  0  0  0  0  0  0  0  0  0  0
    6.2720    1.0581    0.0000 O   0  0  0  0  0  0  0  0  0  0  0  0
    5.1357   -1.7742    0.0000 O   0  0  0  0  0  0  0  0  0  0  0  0
   12.1960    3.2742    0.0000 O   0  0  0  0  0  0  0  0  0  0  0  0
    6.8150    1.9237    0.0000 O   0  0  0  0  0  0  0  0  0  0  0  0
    3.4152    3.2808    0.0000 O   0  0  0  0  0  0  0  0  0  0  0  0
    8.6658    4.2500    0.0000 O   0  0  0  0  0  0  0  0  0  0  0  0
   11.2639   -4.2500    0.0000 O   0  0  0  0  0  0  0  0  0  0  0  0
   12.9960   -3.2500    0.0000 O   0  0  0  0  0  0  0  0  0  0  0  0
   13.0524   -1.2775    0.0000 O   0  0  0  0  0  0  0  0  0  0  0  0
   14.7882   -0.2842    0.0000 O   0  0  0  0  0  0  0  0  0  0  0  0
    8.6658    0.2500    0.0000 C   0  0  2  0  0  0  0  0  0  0  0  0
    5.1357    0.2742    0.0000 C   0  0  3  0  0  0  0  0  0  0  0  0
    9.5319   -0.2500    0.0000 C   0  0  2  0  0  0  0  0  0  0  0  0
    7.7998   -0.2500    0.0000 C   0  0  0  0  0  0  0  0  0  0  0  0
    4.2678   -0.2225    0.0000 C   0  0  1  0  0  0  0  0  0  0  0  0
    3.4037    0.2808    0.0000 C   0  0  1  0  0  0  0  0  0  0  0  0
    9.5319   -1.2500    0.0000 C   0  0  1  0  0  0  0  0  0  0  0  0
    3.4075    1.2808    0.0000 C   0  0  1  0  0  0  0  0  0  0  0  0
    5.9998   -0.2292    0.0000 C   0  0  0  0  0  0  0  0  0  0  0  0
    8.6658    1.2500    0.0000 C   0  0  0  0  0  0  0  0  0  0  0  0
    4.2755    1.7775    0.0000 C   0  0  1  0  0  0  0  0  0  0  0  0
    6.9059    0.2847    0.0000 C   0  0  0  0  0  0  0  0  0  0  0  0
    7.7998   -1.2500    0.0000 C   0  0  0  0  0  0  0  0  0  0  0  0
    9.5319    1.7500    0.0000 C   0  0  0  0  0  0  0  0  0  0  0  0
    5.9998   -1.2708    0.0000 C   0  0  0  0  0  0  0  0  0  0  0  0
    9.5319    2.7500    0.0000 C   0  0  0  0  0  0  0  0  0  0  0  0
    6.9059   -1.7847    0.0000 C   0  0  0  0  0  0  0  0  0  0  0  0
   10.4258    3.2847    0.0000 C   0  0  0  0  0  0  0  0  0  0  0  0
   11.3319    2.7708    0.0000 C   0  0  2  0  0  0  0  0  0  0  0  0
   11.3319    1.7292    0.0000 C   0  0  1  0  0  0  0  0  0  0  0  0
   10.3979   -1.7500    0.0000 C   0  0  0  0  0  0  0  0  0  0  0  0
    7.7998    1.7500    0.0000 C   0  0  0  0  0  0  0  0  0  0  0  0
    4.2793    2.7775    0.0000 C   0  0  0  0  0  0  0  0  0  0  0  0
    8.6658    3.2500    0.0000 C   0  0  0  0  0  0  0  0  0  0  0  0
    7.7998    2.7500    0.0000 C   0  0  0  0  0  0  0  0  0  0  0  0
   12.1960    1.2259    0.0000 C   0  0  0  0  0  0  0  0  0  0  0  0
   10.3979   -2.7500    0.0000 C   0  0  0  0  0  0  0  0  0  0  0  0
   11.2639   -1.2500    0.0000 C   0  0  0  0  0  0  0  0  0  0  0  0
   11.2639   -3.2500    0.0000 C   0  0  0  0  0  0  0  0  0  0  0  0
   12.1299   -1.7500    0.0000 C   0  0  0  0  0  0  0  0  0  0  0  0
   12.1921    0.2259    0.0000 C   0  0  0  0  0  0  0  0  0  0  0  0
   13.0639    1.7225    0.0000 C   0  0  0  0  0  0  0  0  0  0  0  0
   12.1299   -2.7500    0.0000 C   0  0  0  0  0  0  0  0  0  0  0  0
   13.0562   -0.2775    0.0000 C   0  0  0  0  0  0  0  0  0  0  0  0
   13.9280    1.2192    0.0000 C   0  0  0  0  0  0  0  0  0  0  0  0
   13.9242    0.2192    0.0000 C   0  0  0  0  0  0  0  0  0  0  0  0
    9.4020    0.6750    0.0000 H   0  0  0  0  0  0  0  0  0  0  0  0
    5.6738    0.5821    0.0000 H   0  0  0  0  0  0  0  0  0  0  0  0
   10.0688   -0.5600    0.0000 H   0  0  0  0  0  0  0  0  0  0  0  0
    3.7296   -0.5304    0.0000 H   0  0  0  0  0  0  0  0  0  0  0  0
    4.3507   -0.0312    0.0000 H   0  0  0  0  0  0  0  0  0  0  0  0
    9.5319   -1.8700    0.0000 H   0  0  0  0  0  0  0  0  0  0  0  0
    2.8694    0.9729    0.0000 H   0  0  0  0  0  0  0  0  0  0  0  0
    4.8136    2.0854    0.0000 H   0  0  0  0  0  0  0  0  0  0  0  0
    6.9130   -2.4046    0.0000 H   0  0  0  0  0  0  0  0  0  0  0  0
   10.8194    3.7637    0.0000 H   0  0  0  0  0  0  0  0  0  0  0  0
   10.0212    3.7544    0.0000 H   0  0  0  0  0  0  0  0  0  0  0  0
   11.8694    2.4618    0.0000 H   0  0  0  0  0  0  0  0  0  0  0  0
   11.8694    2.0382    0.0000 H   0  0  0  0  0  0  0  0  0  0  0  0
    4.8895    2.6674    0.0000 H   0  0  0  0  0  0  0  0  0  0  0  0
    4.4936    3.3593    0.0000 H   0  0  0  0  0  0  0  0  0  0  0  0
   10.9348   -0.0600    0.0000 H   0  0  0  0  0  0  0  0  0  0  0  0
    3.7258   -1.5304    0.0000 H   0  0  0  0  0  0  0  0  0  0  0  0
    7.2629    3.0600    0.0000 H   0  0  0  0  0  0  0  0  0  0  0  0
    2.0000    0.0962    0.0000 H   0  0  0  0  0  0  0  0  0  0  0  0
    2.0053    1.4762    0.0000 H   0  0  0  0  0  0  0  0  0  0  0  0
    5.6602    0.9575    0.0000 H   0  0  0  0  0  0  0  0  0  0  0  0
    9.8610   -3.0600    0.0000 H   0  0  0  0  0  0  0  0  0  0  0  0
   11.2639   -0.6300    0.0000 H   0  0  0  0  0  0  0  0  0  0  0  0
    5.1381   -2.3941    0.0000 H   0  0  0  0  0  0  0  0  0  0  0  0
   12.1936    3.8942    0.0000 H   0  0  0  0  0  0  0  0  0  0  0  0
    6.6030    2.5063    0.0000 H   0  0  0  0  0  0  0  0  0  0  0  0
    3.4176    3.9008    0.0000 H   0  0  0  0  0  0  0  0  0  0  0  0
   12.6669   -1.4400    0.0000 H   0  0  0  0  0  0  0  0  0  0  0  0
   11.6540   -0.0821    0.0000 H   0  0  0  0  0  0  0  0  0  0  0  0
   13.0663    2.3425    0.0000 H   0  0  0  0  0  0  0  0  0  0  0  0
    8.1289    4.5600    0.0000 H   0  0  0  0  0  0  0  0  0  0  0  0
   14.4661    1.5271    0.0000 H   0  0  0  0  0  0  0  0  0  0  0  0
   10.7270   -4.5600    0.0000 H   0  0  0  0  0  0  0  0  0  0  0  0
   12.9960   -3.8700    0.0000 H   0  0  0  0  0  0  0  0  0  0  0  0
   13.5881   -1.5895    0.0000 H   0  0  0  0  0  0  0  0  0  0  0  0
   15.3264    0.0238    0.0000 H   0  0  0  0  0  0  0  0  0  0  0  0
  1 19  1  0  0  0  0
  1 28  1  0  0  0  0
  2 24  1  0  0  0  0
  2 30  1  0  0  0  0
  3 31  1  0  0  0  0
  3 37  1  0  0  0  0
  4 69  1  0  0  0  0
  5 70  1  0  0  0  0
  6 72  1  0  0  0  0
  7 73  1  0  0  0  0
  8 29  1  0  0  0  0
  8 74  1  0  0  0  0
  9 32  1  0  0  0  0
  9 77  1  0  0  0  0
 10 78  1  0  0  0  0
 11 39  1  0  0  0  0
 11 79  1  0  0  0  0
 12 40  1  0  0  0  0
 12 80  1  0  0  0  0
 13 41  1  0  0  0  0
 13 84  1  0  0  0  0
 14 46  1  0  0  0  0
 14 86  1  0  0  0  0
 15 50  1  0  0  0  0
 15 87  1  0  0  0  0
 16 51  1  0  0  0  0
 16 88  1  0  0  0  0
 17 53  1  0  0  0  0
 17 89  1  0  0  0  0
 18 20  1  6  0  0  0
 18 21  1  0  0  0  0
 18 27  1  0  0  0  0
 18 54  1  0  0  0  0
 19 26  1  0  0  0  0
 19 55  1  0  0  0  0
 20  4  1  0  0  0  0
 20 24  1  1  0  0  0
 20 56  1  0  0  0  0
 21 29  1  0  0  0  0
 21 30  2  0  0  0  0
 22  5  1  0  0  0  0
 22 19  1  1  0  0  0
 22 57  1  0  0  0  0
 23  6  1  0  0  0  0
 23 22  1  6  0  0  0
 23 58  1  0  0  0  0
 24 38  1  0  0  0  0
 24 59  1  6  0  0  0
 25  7  1  0  0  0  0
 25 23  1  6  0  0  0
 25 60  1  0  0  0  0
 26 29  2  0  0  0  0
 26 32  1  0  0  0  0
 27 31  1  0  0  0  0
 27 39  2  0  0  0  0
 28 25  1  6  0  0  0
 28 40  1  0  0  0  0
 28 61  1  0  0  0  0
 30 34  1  0  0  0  0
 31 33  2  0  0  0  0
 32 34  2  0  0  0  0
 33 35  1  0  0  0  0
 33 41  1  0  0  0  0
 34 62  1  0  0  0  0
 35 36  1  0  0  0  0
 35 63  1  0  0  0  0
 35 64  1  0  0  0  0
 36 10  1  0  0  0  0
 36 37  1  1  0  0  0
 36 65  1  0  0  0  0
 37 43  1  0  0  0  0
 37 66  1  6  0  0  0
 38 44  2  0  0  0  0
 38 45  1  0  0  0  0
 39 42  1  0  0  0  0
 40 67  1  0  0  0  0
 40 68  1  0  0  0  0
 41 42  2  0  0  0  0
 42 71  1  0  0  0  0
 43 48  2  0  0  0  0
 43 49  1  0  0  0  0
 44 46  1  0  0  0  0
 44 75  1  0  0  0  0
 45 47  2  0  0  0  0
 45 76  1  0  0  0  0
 46 50  2  0  0  0  0
 47 50  1  0  0  0  0
 47 81  1  0  0  0  0
 48 51  1  0  0  0  0
 48 82  1  0  0  0  0
 49 52  2  0  0  0  0
 49 83  1  0  0  0  0
 51 53  2  0  0  0  0
 52 53  1  0  0  0  0
 52 85  1  0  0  0  0
M  END
>  <PUBCHEM_COMPOUND_CID>
131752185

>  <PUBCHEM_COMPOUND_CANONICALIZED>
1

>  <PUBCHEM_CACTVS_COMPLEXITY>
1230

>  <PUBCHEM_CACTVS_HBOND_ACCEPTOR>
17

>  <PUBCHEM_CACTVS_HBOND_DONOR>
14

>  <PUBCHEM_CACTVS_ROTATABLE_BOND>
5

>  <PUBCHEM_CACTVS_SUBSKEYS>
AAADcfB8PgAAAAAAAAAAAAAAAAAAAAAAAAA0aNGCAAAAAACRVAAAGgAACAAADRSgmAIwBoAABgCAAiBCAAACCAAgIAAIiAAGiIgNNyKGMRqCeCGlwBULuAfA4PwOoAADCAAIQABAAAYQABCAAAAAAAAAAA==

>  <PUBCHEM_IUPAC_OPENEYE_NAME>
(2R,3R,4R)-2-(3,4-dihydroxyphenyl)-4-[(2R,3R)-2-(3,4-dihydroxyphenyl)-3,5,7-trihydroxy-chroman-8-yl]-6-[(3R,4R,5S,6R)-3,4,5-trihydroxy-6-(hydroxymethyl)tetrahydropyran-2-yl]chromane-3,5,7-triol

>  <PUBCHEM_IUPAC_CAS_NAME>
(2R,3R,4R)-2-(3,4-dihydroxyphenyl)-4-[(2R,3R)-2-(3,4-dihydroxyphenyl)-3,5,7-trihydroxy-3,4-dihydro-2H-1-benzopyran-8-yl]-6-[(3R,4R,5S,6R)-3,4,5-trihydroxy-6-(hydroxymethyl)-2-oxanyl]-3,4-dihydro-2H-1-benzopyran-3,5,7-triol

>  <PUBCHEM_IUPAC_NAME>
(2R,3R,4R)-2-(3,4-dihydroxyphenyl)-4-[(2R,3R)-2-(3,4-dihydroxyphenyl)-3,5,7-trihydroxy-3,4-dihydro-2H-chromen-8-yl]-6-[(3R,4R,5S,6R)-3,4,5-trihydroxy-6-(hydroxymethyl)oxan-2-yl]-3,4-dihydro-2H-chromene-3,5,7-triol

>  <PUBCHEM_IUPAC_SYSTEMATIC_NAME>
(2R,3R,4R)-2-[3,4-bis(oxidanyl)phenyl]-4-[(2R,3R)-2-[3,4-bis(oxidanyl)phenyl]-3,5,7-tris(oxidanyl)-3,4-dihydro-2H-chromen-8-yl]-6-[(3R,4R,5S,6R)-6-(hydroxymethyl)-3,4,5-tris(oxidanyl)oxan-2-yl]-3,4-dihydro-2H-chromene-3,5,7-triol

>  <PUBCHEM_IUPAC_TRADITIONAL_NAME>
(2R,3R,4R)-2-(3,4-dihydroxyphenyl)-4-[(2R,3R)-2-(3,4-dihydroxyphenyl)-3,5,7-trihydroxy-chroman-8-yl]-6-[(3R,4R,5S,6R)-3,4,5-trihydroxy-6-methylol-tetrahydropyran-2-yl]chroman-3,5,7-triol

>  <PUBCHEM_IUPAC_INCHI>
InChI=1S/C36H36O17/c37-10-23-28(46)31(49)32(50)36(52-23)25-20(44)9-22-26(29(25)47)27(30(48)34(51-22)12-2-4-15(39)18(42)6-12)24-19(43)8-16(40)13-7-21(45)33(53-35(13)24)11-1-3-14(38)17(41)5-11/h1-6,8-9,21,23,27-28,30-34,36-50H,7,10H2/t21-,23-,27+,28-,30-,31+,32-,33-,34-,36?/m1/s1

>  <PUBCHEM_IUPAC_INCHIKEY>
VRCSTDIDMJHJBX-XXXODXNESA-N

>  <PUBCHEM_EXACT_MASS>
740.195

>  <PUBCHEM_MOLECULAR_FORMULA>
C36H36O17

>  <PUBCHEM_MOLECULAR_WEIGHT>
740.667

>  <PUBCHEM_OPENEYE_CAN_SMILES>
C1C(C(OC2=C1C(=CC(=C2C3C(C(OC4=CC(=C(C(=C34)O)C5C(C(C(C(O5)CO)O)O)O)O)C6=CC(=C(C=C6)O)O)O)O)O)C7=CC(=C(C=C7)O)O)O

>  <PUBCHEM_OPENEYE_ISO_SMILES>
C1[C@H]([C@H](OC2=C1C(=CC(=C2[C@@H]3[C@H]([C@H](OC4=CC(=C(C(=C34)O)C5[C@@H]([C@H]([C@@H]([C@H](O5)CO)O)O)O)O)C6=CC(=C(C=C6)O)O)O)O)O)C7=CC(=C(C=C7)O)O)O

>  <PUBCHEM_CACTVS_TPSA>
311

>  <PUBCHEM_MONOISOTOPIC_WEIGHT>
740.195

>  <PUBCHEM_TOTAL_CHARGE>
0

>  <PUBCHEM_HEAVY_ATOM_COUNT>
53

>  <PUBCHEM_ATOM_DEF_STEREO_COUNT>
9

>  <PUBCHEM_ATOM_UDEF_STEREO_COUNT>
1

>  <PUBCHEM_BOND_DEF_STEREO_COUNT>
0

>  <PUBCHEM_BOND_UDEF_STEREO_COUNT>
0

>  <PUBCHEM_ISOTOPIC_ATOM_COUNT>
0

>  <PUBCHEM_COMPONENT_COUNT>
1

>  <PUBCHEM_CACTVS_TAUTO_COUNT>
986

>  <PUBCHEM_COORDINATE_TYPE>
1
5
255

>  <PUBCHEM_BONDANNOTATIONS>
36  10  5
18  54  5
19  26  3
21  29  8
21  30  8
24  38  5
26  29  8
26  32  8
27  31  8
27  39  8
28  40  5
30  34  8
31  33  8
32  34  8
33  41  8
37  43  5
38  44  8
38  45  8
39  42  8
20  4  5
41  42  8
43  48  8
43  49  8
44  46  8
45  47  8
46  50  8
47  50  8
48  51  8
49  52  8
22  5  6
51  53  8
52  53  8
23  6  5
25  7  6

$$$$
