131752181
 OpenBabel06101807152D

 96104  0  0  1  0  0  0  0  0999 V2000
   12.2010   -0.8128    0.0000 O   0  0  0  0  0  0  0  0  0  0  0  0
    5.9296   -1.0143    0.0000 O   0  0  0  0  0  0  0  0  0  0  0  0
    8.2249    0.5396    0.0000 O   0  0  0  0  0  0  0  0  0  0  0  0
    7.9609   -2.4559    0.0000 O   0  0  0  0  0  0  0  0  0  0  0  0
   12.6717   -0.7354    0.0000 O   0  0  0  0  0  0  0  0  0  0  0  0
   12.1476   -1.5869    0.0000 O   0  0  0  0  0  0  0  0  0  0  0  0
    8.2960    0.0067    0.0000 O   0  0  0  0  0  0  0  0  0  0  0  0
   12.7413    1.0450    0.0000 O   0  0  0  0  0  0  0  0  0  0  0  0
    5.4569   -0.1539    0.0000 O   0  0  0  0  0  0  0  0  0  0  0  0
    4.6912   -0.9592    0.0000 O   0  0  0  0  0  0  0  0  0  0  0  0
   12.2202    1.9713    0.0000 O   0  0  0  0  0  0  0  0  0  0  0  0
    9.7248    1.5342    0.0000 O   0  0  0  0  0  0  0  0  0  0  0  0
   12.9745   -2.5170    0.0000 O   0  0  0  0  0  0  0  0  0  0  0  0
    8.9216   -3.7564    0.0000 O   0  0  0  0  0  0  0  0  0  0  0  0
   11.9247   -4.2016    0.0000 O   0  0  0  0  0  0  0  0  0  0  0  0
    8.6800    1.7387    0.0000 O   0  0  0  0  0  0  0  0  0  0  0  0
    4.1300   -1.2672    0.0000 O   0  0  0  0  0  0  0  0  0  0  0  0
    3.4323    0.0067    0.0000 O   0  0  0  0  0  0  0  0  0  0  0  0
    5.1680    3.3525    0.0000 O   0  0  0  0  0  0  0  0  0  0  0  0
    5.7272    3.5024    0.0000 O   0  0  0  0  0  0  0  0  0  0  0  0
    8.5259    4.1174    0.0000 O   0  0  0  0  0  0  0  0  0  0  0  0
    6.5474    4.6475    0.0000 O   0  0  0  0  0  0  0  0  0  0  0  0
    3.8851    3.9342    0.0000 O   0  0  0  0  0  0  0  0  0  0  0  0
    2.4367    2.4858    0.0000 O   0  0  0  0  0  0  0  0  0  0  0  0
    5.7165   -4.5050    0.0000 O   0  0  0  0  0  0  0  0  0  0  0  0
    2.4612   -3.3202    0.0000 O   0  0  0  0  0  0  0  0  0  0  0  0
    3.7469   -4.8524    0.0000 O   0  0  0  0  0  0  0  0  0  0  0  0
   10.6199   -0.6735    0.0000 C   0  0  3  0  0  0  0  0  0  0  0  0
   11.6721   -0.7072    0.0000 C   0  0  0  0  0  0  0  0  0  0  0  0
   12.2204    0.1914    0.0000 C   0  0  3  0  0  0  0  0  0  0  0  0
    7.3301   -1.6663    0.0000 C   0  0  3  0  0  0  0  0  0  0  0  0
    8.0372   -0.9592    0.0000 C   0  0  3  0  0  0  0  0  0  0  0  0
    7.4657   -0.1275    0.0000 C   0  0  3  0  0  0  0  0  0  0  0  0
   10.5311   -1.6803    0.0000 C   0  0  0  0  0  0  0  0  0  0  0  0
    6.3642   -1.9252    0.0000 C   0  0  3  0  0  0  0  0  0  0  0  0
   10.1291    0.2100    0.0000 C   0  0  0  0  0  0  0  0  0  0  0  0
    6.4569   -0.1539    0.0000 C   0  0  3  0  0  0  0  0  0  0  0  0
   11.5281   -1.5584    0.0000 C   0  0  0  0  0  0  0  0  0  0  0  0
   11.7092    1.1117    0.0000 C   0  0  0  0  0  0  0  0  0  0  0  0
    9.8935   -2.4644    0.0000 C   0  0  0  0  0  0  0  0  0  0  0  0
   10.6565    1.1211    0.0000 C   0  0  0  0  0  0  0  0  0  0  0  0
    9.2275    0.6667    0.0000 C   0  0  0  0  0  0  0  0  0  0  0  0
    5.3982   -1.6663    0.0000 C   0  0  0  0  0  0  0  0  0  0  0  0
    8.9259   -2.7564    0.0000 C   0  0  0  0  0  0  0  0  0  0  0  0
   11.9757   -2.4672    0.0000 C   0  0  0  0  0  0  0  0  0  0  0  0
   10.4269   -3.3256    0.0000 C   0  0  0  0  0  0  0  0  0  0  0  0
   11.4400   -3.3270    0.0000 C   0  0  0  0  0  0  0  0  0  0  0  0
    8.0372    0.9726    0.0000 C   0  0  0  0  0  0  0  0  0  0  0  0
    5.1150   -1.0936    0.0000 C   0  0  0  0  0  0  0  0  0  0  0  0
    7.3301    1.6797    0.0000 C   0  0  0  0  0  0  0  0  0  0  0  0
    4.4323    0.0067    0.0000 C   0  0  0  0  0  0  0  0  0  0  0  0
    6.3642    1.9386    0.0000 C   0  0  0  0  0  0  0  0  0  0  0  0
    4.6912    0.9726    0.0000 C   0  0  0  0  0  0  0  0  0  0  0  0
    5.3982    1.6797    0.0000 C   0  0  0  0  0  0  0  0  0  0  0  0
    4.7730   -2.0333    0.0000 C   0  0  0  0  0  0  0  0  0  0  0  0
    8.0779    2.4048    0.0000 C   0  0  0  0  0  0  0  0  0  0  0  0
    6.0791    2.9404    0.0000 C   0  0  0  0  0  0  0  0  0  0  0  0
    5.1442    2.6899    0.0000 C   0  0  0  0  0  0  0  0  0  0  0  0
    3.6810    1.2267    0.0000 C   0  0  0  0  0  0  0  0  0  0  0  0
    7.8161    3.4130    0.0000 C   0  0  0  0  0  0  0  0  0  0  0  0
    6.8100    3.6826    0.0000 C   0  0  0  0  0  0  0  0  0  0  0  0
    3.7880   -2.2069    0.0000 C   0  0  0  0  0  0  0  0  0  0  0  0
    5.4157   -2.7992    0.0000 C   0  0  0  0  0  0  0  0  0  0  0  0
    4.1402    2.9672    0.0000 C   0  0  0  0  0  0  0  0  0  0  0  0
    3.4036    2.2307    0.0000 C   0  0  0  0  0  0  0  0  0  0  0  0
    5.0737   -3.7390    0.0000 C   0  0  0  0  0  0  0  0  0  0  0  0
    3.4460   -3.1466    0.0000 C   0  0  0  0  0  0  0  0  0  0  0  0
    4.0890   -3.9127    0.0000 C   0  0  0  0  0  0  0  0  0  0  0  0
   10.0134   -0.8025    0.0000 H   0  0  0  0  0  0  0  0  0  0  0  0
    7.1366   -2.2554    0.0000 H   0  0  0  0  0  0  0  0  0  0  0  0
    8.5742   -1.2692    0.0000 H   0  0  0  0  0  0  0  0  0  0  0  0
    7.2394    0.4498    0.0000 H   0  0  0  0  0  0  0  0  0  0  0  0
    6.3642   -2.5452    0.0000 H   0  0  0  0  0  0  0  0  0  0  0  0
    6.4488    0.4661    0.0000 H   0  0  0  0  0  0  0  0  0  0  0  0
   10.3492    1.6595    0.0000 H   0  0  0  0  0  0  0  0  0  0  0  0
    4.8363   -1.9284    0.0000 H   0  0  0  0  0  0  0  0  0  0  0  0
    5.7082   -1.1294    0.0000 H   0  0  0  0  0  0  0  0  0  0  0  0
   12.9966   -0.2074    0.0000 H   0  0  0  0  0  0  0  0  0  0  0  0
   12.7241   -1.8152    0.0000 H   0  0  0  0  0  0  0  0  0  0  0  0
   10.1249   -3.8671    0.0000 H   0  0  0  0  0  0  0  0  0  0  0  0
   13.3611    1.0300    0.0000 H   0  0  0  0  0  0  0  0  0  0  0  0
   13.2574   -3.0687    0.0000 H   0  0  0  0  0  0  0  0  0  0  0  0
   11.6054   -4.7331    0.0000 H   0  0  0  0  0  0  0  0  0  0  0  0
    8.6749    2.2374    0.0000 H   0  0  0  0  0  0  0  0  0  0  0  0
    3.2477    0.7832    0.0000 H   0  0  0  0  0  0  0  0  0  0  0  0
    3.3895   -1.7319    0.0000 H   0  0  0  0  0  0  0  0  0  0  0  0
    6.0263   -2.6916    0.0000 H   0  0  0  0  0  0  0  0  0  0  0  0
    4.8995    3.9114    0.0000 H   0  0  0  0  0  0  0  0  0  0  0  0
    5.6803    4.1206    0.0000 H   0  0  0  0  0  0  0  0  0  0  0  0
    9.1242    3.9546    0.0000 H   0  0  0  0  0  0  0  0  0  0  0  0
    6.9841    5.0876    0.0000 H   0  0  0  0  0  0  0  0  0  0  0  0
    3.2868    4.0969    0.0000 H   0  0  0  0  0  0  0  0  0  0  0  0
    2.0000    2.0457    0.0000 H   0  0  0  0  0  0  0  0  0  0  0  0
    5.5044   -5.0876    0.0000 H   0  0  0  0  0  0  0  0  0  0  0  0
    2.2492   -3.9028    0.0000 H   0  0  0  0  0  0  0  0  0  0  0  0
    3.1363   -4.9600    0.0000 H   0  0  0  0  0  0  0  0  0  0  0  0
  1 30  1  0  0  0  0
  1 38  1  0  0  0  0
  2 35  1  0  0  0  0
  2 37  1  0  0  0  0
  3 33  1  0  0  0  0
  3 42  1  0  0  0  0
  4 31  1  0  0  0  0
  4 44  1  0  0  0  0
  5 29  1  0  0  0  0
  5 78  1  0  0  0  0
  6 29  1  0  0  0  0
  6 79  1  0  0  0  0
  7 32  1  0  0  0  0
  7 48  1  0  0  0  0
  8 30  1  0  0  0  0
  8 81  1  0  0  0  0
  9 37  1  0  0  0  0
  9 49  1  0  0  0  0
 10 43  1  0  0  0  0
 10 51  1  0  0  0  0
 11 39  2  0  0  0  0
 12 42  2  0  0  0  0
 13 45  1  0  0  0  0
 13 82  1  0  0  0  0
 14 44  2  0  0  0  0
 15 47  1  0  0  0  0
 15 83  1  0  0  0  0
 16 48  2  0  0  0  0
 17 49  2  0  0  0  0
 18 51  2  0  0  0  0
 19 57  1  0  0  0  0
 19 88  1  0  0  0  0
 20 58  1  0  0  0  0
 20 89  1  0  0  0  0
 21 60  1  0  0  0  0
 21 90  1  0  0  0  0
 22 61  1  0  0  0  0
 22 91  1  0  0  0  0
 23 64  1  0  0  0  0
 23 92  1  0  0  0  0
 24 65  1  0  0  0  0
 24 93  1  0  0  0  0
 25 66  1  0  0  0  0
 25 94  1  0  0  0  0
 26 67  1  0  0  0  0
 26 95  1  0  0  0  0
 27 68  1  0  0  0  0
 27 96  1  0  0  0  0
 28 29  1  0  0  0  0
 28 34  1  0  0  0  0
 28 36  1  0  0  0  0
 28 69  1  0  0  0  0
 29 30  1  0  0  0  0
 30 39  1  0  0  0  0
 31 32  1  0  0  0  0
 31 35  1  0  0  0  0
 31 70  1  0  0  0  0
 32 33  1  0  0  0  0
 32 71  1  0  0  0  0
 33 37  1  0  0  0  0
 33 72  1  0  0  0  0
 34 38  2  0  0  0  0
 34 40  1  0  0  0  0
 35 43  1  0  0  0  0
 35 73  1  0  0  0  0
 36 41  2  0  0  0  0
 36 42  1  0  0  0  0
 37 74  1  0  0  0  0
 38 45  1  0  0  0  0
 39 41  1  0  0  0  0
 40 44  1  0  0  0  0
 40 46  2  0  0  0  0
 41 75  1  0  0  0  0
 43 76  1  0  0  0  0
 43 77  1  0  0  0  0
 45 47  2  0  0  0  0
 46 47  1  0  0  0  0
 46 80  1  0  0  0  0
 48 50  1  0  0  0  0
 49 55  1  0  0  0  0
 50 52  1  0  0  0  0
 50 56  2  0  0  0  0
 51 53  1  0  0  0  0
 52 54  1  0  0  0  0
 52 57  2  0  0  0  0
 53 54  1  0  0  0  0
 53 59  2  0  0  0  0
 54 58  2  0  0  0  0
 55 62  2  0  0  0  0
 55 63  1  0  0  0  0
 56 60  1  0  0  0  0
 56 84  1  0  0  0  0
 57 61  1  0  0  0  0
 58 64  1  0  0  0  0
 59 65  1  0  0  0  0
 59 85  1  0  0  0  0
 60 61  2  0  0  0  0
 62 67  1  0  0  0  0
 62 86  1  0  0  0  0
 63 66  2  0  0  0  0
 63 87  1  0  0  0  0
 64 65  2  0  0  0  0
 66 68  1  0  0  0  0
 67 68  2  0  0  0  0
M  END
>  <PUBCHEM_COMPOUND_CID>
131752181

>  <PUBCHEM_COMPOUND_CANONICALIZED>
1

>  <PUBCHEM_CACTVS_COMPLEXITY>
2080

>  <PUBCHEM_CACTVS_HBOND_ACCEPTOR>
27

>  <PUBCHEM_CACTVS_HBOND_DONOR>
14

>  <PUBCHEM_CACTVS_ROTATABLE_BOND>
3

>  <PUBCHEM_CACTVS_SUBSKEYS>
AAADceB8PgAAAAAAAAAAAAAAAAAAAAAAAAA0aMGCAAAAAACRVAAAGgAACAAADRSwmAMwDoAABgCIAqDSCAICCAAkIAAAiAFGiMgdJzaGNR6ieSOl4BUPuYfK7PzOoAABCAAYQABAAAIQADCAAAAAAAAAAA==

>  <PUBCHEM_IUPAC_INCHI>
InChI=1S/C41H28O27/c42-13-1-8(2-14(43)24(13)48)34(54)67-39-33-32-30(64-37(57)11-5-17(46)27(51)31-22(11)23-12(38(58)66-33)6-19(47)41(61,68-31)40(23,59)60)18(63-39)7-62-35(55)9-3-15(44)25(49)28(52)20(9)21-10(36(56)65-32)4-16(45)26(50)29(21)53/h1-6,18,23,30,32-33,39,42-46,48-53,59-61H,7H2

>  <PUBCHEM_IUPAC_INCHIKEY>
OYPBFXPEIVEPRY-UHFFFAOYSA-N

>  <PUBCHEM_EXACT_MASS>
952.082

>  <PUBCHEM_MOLECULAR_FORMULA>
C41H28O27

>  <PUBCHEM_MOLECULAR_WEIGHT>
952.648

>  <PUBCHEM_OPENEYE_CAN_SMILES>
C1C2C3C(C(C(O2)OC(=O)C4=CC(=C(C(=C4)O)O)O)OC(=O)C5=CC(=O)C6(C(C5C7=C(O6)C(=C(C=C7C(=O)O3)O)O)(O)O)O)OC(=O)C8=CC(=C(C(=C8C9=C(C(=C(C=C9C(=O)O1)O)O)O)O)O)O

>  <PUBCHEM_OPENEYE_ISO_SMILES>
C1C2C3C(C(C(O2)OC(=O)C4=CC(=C(C(=C4)O)O)O)OC(=O)C5=CC(=O)C6(C(C5C7=C(O6)C(=C(C=C7C(=O)O3)O)O)(O)O)O)OC(=O)C8=CC(=C(C(=C8C9=C(C(=C(C=C9C(=O)O1)O)O)O)O)O)O

>  <PUBCHEM_CACTVS_TPSA>
450

>  <PUBCHEM_MONOISOTOPIC_WEIGHT>
952.082

>  <PUBCHEM_TOTAL_CHARGE>
0

>  <PUBCHEM_HEAVY_ATOM_COUNT>
68

>  <PUBCHEM_ATOM_DEF_STEREO_COUNT>
0

>  <PUBCHEM_ATOM_UDEF_STEREO_COUNT>
7

>  <PUBCHEM_BOND_DEF_STEREO_COUNT>
0

>  <PUBCHEM_BOND_UDEF_STEREO_COUNT>
0

>  <PUBCHEM_ISOTOPIC_ATOM_COUNT>
0

>  <PUBCHEM_COMPONENT_COUNT>
1

>  <PUBCHEM_CACTVS_TAUTO_COUNT>
994

>  <PUBCHEM_COORDINATE_TYPE>
1
5
255

>  <PUBCHEM_BONDANNOTATIONS>
28  29  3
33  3  3
34  38  8
34  40  8
35  43  3
38  45  8
31  4  3
40  46  8
45  47  8
46  47  8
50  52  8
50  56  8
52  57  8
53  54  8
53  59  8
54  58  8
55  62  8
55  63  8
56  60  8
57  61  8
58  64  8
59  65  8
60  61  8
62  67  8
63  66  8
64  65  8
66  68  8
67  68  8
32  7  3
30  8  3
37  9  3

$$$$
