131752190
 OpenBabel06101807152D

 63 66  0  0  1  0  0  0  0  0999 V2000
    8.5991   -1.6796    0.0000 O   0  0  0  0  0  0  0  0  0  0  0  0
    6.8671   -3.6796    0.0000 O   0  0  0  0  0  0  0  0  0  0  0  0
   10.3312   -1.6796    0.0000 O   0  0  0  0  0  0  0  0  0  0  0  0
    8.5991   -4.6796    0.0000 O   0  0  0  0  0  0  0  0  0  0  0  0
   10.3312   -3.6796    0.0000 O   0  0  0  0  0  0  0  0  0  0  0  0
    6.0010   -2.1796    0.0000 O   0  0  0  0  0  0  0  0  0  0  0  0
   12.0871    1.3829    0.0000 O   0  0  0  0  0  0  0  0  0  0  0  0
    8.5849    1.3996    0.0000 O   0  0  0  0  0  0  0  0  0  0  0  0
    5.1350   -0.6796    0.0000 O   0  0  0  0  0  0  0  0  0  0  0  0
    9.4948    2.8930    0.0000 O   0  0  0  0  0  0  0  0  0  0  0  0
    2.5369   -2.1796    0.0000 O   0  0  0  0  0  0  0  0  0  0  0  0
    3.4030   -0.6796    0.0000 O   0  0  0  0  0  0  0  0  0  0  0  0
   15.5551    2.3696    0.0000 O   0  0  0  0  0  0  0  0  0  0  0  0
   15.5628    4.3696    0.0000 O   0  0  0  0  0  0  0  0  0  0  0  0
    7.7331   -3.1796    0.0000 C   0  0  1  0  0  0  0  0  0  0  0  0
    8.5991   -3.6796    0.0000 C   0  0  1  0  0  0  0  0  0  0  0  0
    7.7331   -2.1796    0.0000 C   0  0  1  0  0  0  0  0  0  0  0  0
    9.4651   -3.1796    0.0000 C   0  0  2  0  0  0  0  0  0  0  0  0
    9.4651   -2.1796    0.0000 C   0  0  1  0  0  0  0  0  0  0  0  0
    6.8671   -1.6796    0.0000 C   0  0  0  0  0  0  0  0  0  0  0  0
   10.3312   -0.6796    0.0000 C   0  0  0  0  0  0  0  0  0  0  0  0
   11.2312   -0.1553    0.0000 C   0  0  0  0  0  0  0  0  0  0  0  0
    9.4311   -0.1553    0.0000 C   0  0  0  0  0  0  0  0  0  0  0  0
    5.1350   -1.6796    0.0000 C   0  0  0  0  0  0  0  0  0  0  0  0
   11.2192    0.8863    0.0000 C   0  0  0  0  0  0  0  0  0  0  0  0
   10.3551    1.3896    0.0000 C   0  0  0  0  0  0  0  0  0  0  0  0
    9.4431    0.8863    0.0000 C   0  0  0  0  0  0  0  0  0  0  0  0
    4.2690   -2.1796    0.0000 C   0  0  0  0  0  0  0  0  0  0  0  0
   10.3589    2.3896    0.0000 C   0  0  0  0  0  0  0  0  0  0  0  0
   12.0910    2.3829    0.0000 C   0  0  0  0  0  0  0  0  0  0  0  0
   11.2269    2.8863    0.0000 C   0  0  0  0  0  0  0  0  0  0  0  0
   12.9589    2.8796    0.0000 C   0  0  0  0  0  0  0  0  0  0  0  0
    3.4030   -1.6796    0.0000 C   0  0  0  0  0  0  0  0  0  0  0  0
   13.8230    2.3763    0.0000 C   0  0  0  0  0  0  0  0  0  0  0  0
   12.9628    3.8796    0.0000 C   0  0  0  0  0  0  0  0  0  0  0  0
   14.6910    2.8729    0.0000 C   0  0  0  0  0  0  0  0  0  0  0  0
   13.8307    4.3762    0.0000 C   0  0  0  0  0  0  0  0  0  0  0  0
   14.6948    3.8729    0.0000 C   0  0  0  0  0  0  0  0  0  0  0  0
   16.4230    2.8662    0.0000 C   0  0  0  0  0  0  0  0  0  0  0  0
    7.7331   -3.7996    0.0000 H   0  0  0  0  0  0  0  0  0  0  0  0
    9.1360   -3.9896    0.0000 H   0  0  0  0  0  0  0  0  0  0  0  0
    7.7331   -1.5596    0.0000 H   0  0  0  0  0  0  0  0  0  0  0  0
    9.4651   -3.7996    0.0000 H   0  0  0  0  0  0  0  0  0  0  0  0
   10.0021   -2.4896    0.0000 H   0  0  0  0  0  0  0  0  0  0  0  0
    7.2656   -1.2046    0.0000 H   0  0  0  0  0  0  0  0  0  0  0  0
    6.4685   -1.2046    0.0000 H   0  0  0  0  0  0  0  0  0  0  0  0
    6.8671   -4.2996    0.0000 H   0  0  0  0  0  0  0  0  0  0  0  0
    8.0622   -4.9896    0.0000 H   0  0  0  0  0  0  0  0  0  0  0  0
   10.3312   -4.2996    0.0000 H   0  0  0  0  0  0  0  0  0  0  0  0
   11.7705   -0.4611    0.0000 H   0  0  0  0  0  0  0  0  0  0  0  0
    8.8918   -0.4611    0.0000 H   0  0  0  0  0  0  0  0  0  0  0  0
    3.8705   -2.6545    0.0000 H   0  0  0  0  0  0  0  0  0  0  0  0
    4.6675   -2.6545    0.0000 H   0  0  0  0  0  0  0  0  0  0  0  0
   11.2293    3.5063    0.0000 H   0  0  0  0  0  0  0  0  0  0  0  0
    8.0433    1.0979    0.0000 H   0  0  0  0  0  0  0  0  0  0  0  0
   13.8206    1.7563    0.0000 H   0  0  0  0  0  0  0  0  0  0  0  0
   12.4270    4.1916    0.0000 H   0  0  0  0  0  0  0  0  0  0  0  0
   13.8331    4.9962    0.0000 H   0  0  0  0  0  0  0  0  0  0  0  0
    2.0000   -1.8696    0.0000 H   0  0  0  0  0  0  0  0  0  0  0  0
   15.5652    4.9896    0.0000 H   0  0  0  0  0  0  0  0  0  0  0  0
   16.7309    2.3281    0.0000 H   0  0  0  0  0  0  0  0  0  0  0  0
   16.9611    3.1742    0.0000 H   0  0  0  0  0  0  0  0  0  0  0  0
   16.1151    3.4044    0.0000 H   0  0  0  0  0  0  0  0  0  0  0  0
  1 17  1  0  0  0  0
  1 19  1  0  0  0  0
  2 47  1  0  0  0  0
  3 21  1  0  0  0  0
  4 48  1  0  0  0  0
  5 49  1  0  0  0  0
  6 20  1  0  0  0  0
  6 24  1  0  0  0  0
  7 25  1  0  0  0  0
  7 30  1  0  0  0  0
  8 27  1  0  0  0  0
  8 55  1  0  0  0  0
  9 24  2  0  0  0  0
 10 29  2  0  0  0  0
 11 33  1  0  0  0  0
 11 59  1  0  0  0  0
 12 33  2  0  0  0  0
 13 36  1  0  0  0  0
 13 39  1  0  0  0  0
 14 38  1  0  0  0  0
 14 60  1  0  0  0  0
 15  2  1  0  0  0  0
 15 16  1  6  0  0  0
 15 40  1  0  0  0  0
 16  4  1  0  0  0  0
 16 18  1  1  0  0  0
 16 41  1  0  0  0  0
 17 15  1  6  0  0  0
 17 20  1  0  0  0  0
 17 42  1  0  0  0  0
 18  5  1  0  0  0  0
 18 19  1  1  0  0  0
 18 43  1  0  0  0  0
 19  3  1  0  0  0  0
 19 44  1  6  0  0  0
 20 45  1  0  0  0  0
 20 46  1  0  0  0  0
 21 22  1  0  0  0  0
 21 23  2  0  0  0  0
 22 25  2  0  0  0  0
 22 50  1  0  0  0  0
 23 27  1  0  0  0  0
 23 51  1  0  0  0  0
 24 28  1  0  0  0  0
 25 26  1  0  0  0  0
 26 27  2  0  0  0  0
 26 29  1  0  0  0  0
 28 33  1  0  0  0  0
 28 52  1  0  0  0  0
 28 53  1  0  0  0  0
 29 31  1  0  0  0  0
 30 31  2  0  0  0  0
 30 32  1  0  0  0  0
 31 54  1  0  0  0  0
 32 34  2  0  0  0  0
 32 35  1  0  0  0  0
 34 36  1  0  0  0  0
 34 56  1  0  0  0  0
 35 37  2  0  0  0  0
 35 57  1  0  0  0  0
 36 38  2  0  0  0  0
 37 38  1  0  0  0  0
 37 58  1  0  0  0  0
 39 61  1  0  0  0  0
 39 62  1  0  0  0  0
 39 63  1  0  0  0  0
M  END
>  <PUBCHEM_COMPOUND_CID>
131752190

>  <PUBCHEM_COMPOUND_CANONICALIZED>
1

>  <PUBCHEM_CACTVS_COMPLEXITY>
938

>  <PUBCHEM_CACTVS_HBOND_ACCEPTOR>
14

>  <PUBCHEM_CACTVS_HBOND_DONOR>
6

>  <PUBCHEM_CACTVS_ROTATABLE_BOND>
9

>  <PUBCHEM_CACTVS_SUBSKEYS>
AAADceB4PAAAAAAAAAAAAAAAAAAAAAAAAAA0YIEAAAAAAACBQAAAGgAACAAADBSwmAMyDoAABgCIAqDSCAACCAAkIAAIiAEGiMgdNzaONRqieWOl4BUPuQfI7LzOIAABCAAIQABAAAIQABCAAAAAAAAAAA==

>  <PUBCHEM_IUPAC_OPENEYE_NAME>
3-oxo-3-[[(2R,3S,4S,5R,6S)-3,4,5-trihydroxy-6-[5-hydroxy-2-(4-hydroxy-3-methoxy-phenyl)-4-oxo-chromen-7-yl]oxy-tetrahydropyran-2-yl]methoxy]propanoic acid

>  <PUBCHEM_IUPAC_CAS_NAME>
3-oxo-3-[[(2R,3S,4S,5R,6S)-3,4,5-trihydroxy-6-[[5-hydroxy-2-(4-hydroxy-3-methoxyphenyl)-4-oxo-1-benzopyran-7-yl]oxy]-2-oxanyl]methoxy]propanoic acid

>  <PUBCHEM_IUPAC_NAME>
3-oxo-3-[[(2R,3S,4S,5R,6S)-3,4,5-trihydroxy-6-[5-hydroxy-2-(4-hydroxy-3-methoxyphenyl)-4-oxochromen-7-yl]oxyoxan-2-yl]methoxy]propanoic acid

>  <PUBCHEM_IUPAC_SYSTEMATIC_NAME>
3-[[(2R,3S,4S,5R,6S)-6-[2-(3-methoxy-4-oxidanyl-phenyl)-5-oxidanyl-4-oxidanylidene-chromen-7-yl]oxy-3,4,5-tris(oxidanyl)oxan-2-yl]methoxy]-3-oxidanylidene-propanoic acid

>  <PUBCHEM_IUPAC_TRADITIONAL_NAME>
3-keto-3-[[(2R,3S,4S,5R,6S)-3,4,5-trihydroxy-6-[5-hydroxy-2-(4-hydroxy-3-methoxy-phenyl)-4-keto-chromen-7-yl]oxy-tetrahydropyran-2-yl]methoxy]propionic acid

>  <PUBCHEM_IUPAC_INCHI>
InChI=1S/C25H24O14/c1-35-16-4-10(2-3-12(16)26)15-7-14(28)21-13(27)5-11(6-17(21)38-15)37-25-24(34)23(33)22(32)18(39-25)9-36-20(31)8-19(29)30/h2-7,18,22-27,32-34H,8-9H2,1H3,(H,29,30)/t18-,22-,23+,24-,25-/m1/s1

>  <PUBCHEM_IUPAC_INCHIKEY>
PLQBKZOSLQNLOX-GOZZSVHWSA-N

>  <PUBCHEM_EXACT_MASS>
548.117

>  <PUBCHEM_MOLECULAR_FORMULA>
C25H24O14

>  <PUBCHEM_MOLECULAR_WEIGHT>
548.453

>  <PUBCHEM_OPENEYE_CAN_SMILES>
COC1=C(C=CC(=C1)C2=CC(=O)C3=C(C=C(C=C3O2)OC4C(C(C(C(O4)COC(=O)CC(=O)O)O)O)O)O)O

>  <PUBCHEM_OPENEYE_ISO_SMILES>
COC1=C(C=CC(=C1)C2=CC(=O)C3=C(C=C(C=C3O2)O[C@H]4[C@@H]([C@H]([C@@H]([C@H](O4)COC(=O)CC(=O)O)O)O)O)O)O

>  <PUBCHEM_CACTVS_TPSA>
219

>  <PUBCHEM_MONOISOTOPIC_WEIGHT>
548.117

>  <PUBCHEM_TOTAL_CHARGE>
0

>  <PUBCHEM_HEAVY_ATOM_COUNT>
39

>  <PUBCHEM_ATOM_DEF_STEREO_COUNT>
5

>  <PUBCHEM_ATOM_UDEF_STEREO_COUNT>
0

>  <PUBCHEM_BOND_DEF_STEREO_COUNT>
0

>  <PUBCHEM_BOND_UDEF_STEREO_COUNT>
0

>  <PUBCHEM_ISOTOPIC_ATOM_COUNT>
0

>  <PUBCHEM_COMPONENT_COUNT>
1

>  <PUBCHEM_CACTVS_TAUTO_COUNT>
29

>  <PUBCHEM_COORDINATE_TYPE>
1
5
255

>  <PUBCHEM_BONDANNOTATIONS>
17  20  5
15  2  6
21  22  8
21  23  8
22  25  8
23  27  8
25  26  8
26  27  8
26  29  8
29  31  8
19  3  5
30  31  8
32  34  8
32  35  8
34  36  8
35  37  8
36  38  8
37  38  8
16  4  5
18  5  6
7  25  8
7  30  8

$$$$
