131752760
 OpenBabel06101807152D

 95100  0  0  1  0  0  0  0  0999 V2000
    6.8671   -2.1796    0.0000 O   0  0  0  0  0  0  0  0  0  0  0  0
    6.0010   -3.6796    0.0000 O   0  0  0  0  0  0  0  0  0  0  0  0
    5.1350   -0.1796    0.0000 O   0  0  0  0  0  0  0  0  0  0  0  0
    8.5991   -3.1796    0.0000 O   0  0  0  0  0  0  0  0  0  0  0  0
    5.1350   -3.1796    0.0000 O   0  0  0  0  0  0  0  0  0  0  0  0
    6.8671   -0.1796    0.0000 O   0  0  0  0  0  0  0  0  0  0  0  0
    8.5991   -5.1796    0.0000 O   0  0  0  0  0  0  0  0  0  0  0  0
    3.4030   -2.1796    0.0000 O   0  0  0  0  0  0  0  0  0  0  0  0
    6.8671   -6.1796    0.0000 O   0  0  0  0  0  0  0  0  0  0  0  0
    2.5369   -0.6796    0.0000 O   0  0  0  0  0  0  0  0  0  0  0  0
    4.2690   -4.6796    0.0000 O   0  0  0  0  0  0  0  0  0  0  0  0
    3.4030    0.8204    0.0000 O   0  0  0  0  0  0  0  0  0  0  0  0
    5.1350   -6.1796    0.0000 O   0  0  0  0  0  0  0  0  0  0  0  0
    9.4651   -4.6796    0.0000 O   0  0  0  0  0  0  0  0  0  0  0  0
    8.6230    2.8829    0.0000 O   0  0  0  0  0  0  0  0  0  0  0  0
    5.1208    2.8996    0.0000 O   0  0  0  0  0  0  0  0  0  0  0  0
    6.0308    4.3930    0.0000 O   0  0  0  0  0  0  0  0  0  0  0  0
   13.7953   -2.1796    0.0000 O   0  0  0  0  0  0  0  0  0  0  0  0
   12.0910    3.8696    0.0000 O   0  0  0  0  0  0  0  0  0  0  0  0
   13.7953   -0.1796    0.0000 O   0  0  0  0  0  0  0  0  0  0  0  0
   12.0987    5.8696    0.0000 O   0  0  0  0  0  0  0  0  0  0  0  0
    6.0010   -1.6796    0.0000 C   0  0  3  0  0  0  0  0  0  0  0  0
    5.1350   -2.1796    0.0000 C   0  0  3  0  0  0  0  0  0  0  0  0
    6.8671   -3.1796    0.0000 C   0  0  3  0  0  0  0  0  0  0  0  0
    7.7331   -3.6796    0.0000 C   0  0  3  0  0  0  0  0  0  0  0  0
    7.7331   -4.6796    0.0000 C   0  0  3  0  0  0  0  0  0  0  0  0
    4.2690   -1.6796    0.0000 C   0  0  3  0  0  0  0  0  0  0  0  0
    6.0010   -0.6796    0.0000 C   0  0  3  0  0  0  0  0  0  0  0  0
    6.8671   -5.1796    0.0000 C   0  0  3  0  0  0  0  0  0  0  0  0
    4.2690   -0.6796    0.0000 C   0  0  3  0  0  0  0  0  0  0  0  0
    6.0010   -4.6796    0.0000 C   0  0  3  0  0  0  0  0  0  0  0  0
    3.4030   -0.1796    0.0000 C   0  0  0  0  0  0  0  0  0  0  0  0
    5.1350   -5.1796    0.0000 C   0  0  0  0  0  0  0  0  0  0  0  0
    6.8671    0.8204    0.0000 C   0  0  0  0  0  0  0  0  0  0  0  0
    9.4651   -3.6796    0.0000 C   0  0  0  0  0  0  0  0  0  0  0  0
    7.7671    1.3447    0.0000 C   0  0  0  0  0  0  0  0  0  0  0  0
    5.9670    1.3447    0.0000 C   0  0  0  0  0  0  0  0  0  0  0  0
   10.3312   -3.1796    0.0000 C   0  0  0  0  0  0  0  0  0  0  0  0
    7.7551    2.3863    0.0000 C   0  0  0  0  0  0  0  0  0  0  0  0
    5.9790    2.3863    0.0000 C   0  0  0  0  0  0  0  0  0  0  0  0
    6.8910    2.8896    0.0000 C   0  0  0  0  0  0  0  0  0  0  0  0
   10.3312   -2.1796    0.0000 C   0  0  0  0  0  0  0  0  0  0  0  0
    6.8948    3.8896    0.0000 C   0  0  0  0  0  0  0  0  0  0  0  0
    8.6269    3.8829    0.0000 C   0  0  0  0  0  0  0  0  0  0  0  0
    7.7628    4.3863    0.0000 C   0  0  0  0  0  0  0  0  0  0  0  0
   11.1972   -1.6796    0.0000 C   0  0  0  0  0  0  0  0  0  0  0  0
    9.4948    4.3796    0.0000 C   0  0  0  0  0  0  0  0  0  0  0  0
   12.0632   -2.1796    0.0000 C   0  0  0  0  0  0  0  0  0  0  0  0
   11.1972   -0.6796    0.0000 C   0  0  0  0  0  0  0  0  0  0  0  0
   10.3589    3.8763    0.0000 C   0  0  0  0  0  0  0  0  0  0  0  0
    9.4987    5.3796    0.0000 C   0  0  0  0  0  0  0  0  0  0  0  0
   12.9292   -1.6796    0.0000 C   0  0  0  0  0  0  0  0  0  0  0  0
   12.0632   -0.1796    0.0000 C   0  0  0  0  0  0  0  0  0  0  0  0
   11.2269    4.3729    0.0000 C   0  0  0  0  0  0  0  0  0  0  0  0
   12.9292   -0.6796    0.0000 C   0  0  0  0  0  0  0  0  0  0  0  0
   10.3666    5.8762    0.0000 C   0  0  0  0  0  0  0  0  0  0  0  0
   11.2307    5.3729    0.0000 C   0  0  0  0  0  0  0  0  0  0  0  0
   14.6613   -1.6796    0.0000 C   0  0  0  0  0  0  0  0  0  0  0  0
   12.9589    4.3662    0.0000 C   0  0  0  0  0  0  0  0  0  0  0  0
    6.5380   -1.3696    0.0000 H   0  0  0  0  0  0  0  0  0  0  0  0
    4.5981   -2.4896    0.0000 H   0  0  0  0  0  0  0  0  0  0  0  0
    7.4040   -2.8696    0.0000 H   0  0  0  0  0  0  0  0  0  0  0  0
    8.2700   -3.9896    0.0000 H   0  0  0  0  0  0  0  0  0  0  0  0
    7.7331   -5.2996    0.0000 H   0  0  0  0  0  0  0  0  0  0  0  0
    3.7320   -1.3696    0.0000 H   0  0  0  0  0  0  0  0  0  0  0  0
    6.0010   -0.0596    0.0000 H   0  0  0  0  0  0  0  0  0  0  0  0
    6.3301   -5.4896    0.0000 H   0  0  0  0  0  0  0  0  0  0  0  0
    4.2690   -0.0596    0.0000 H   0  0  0  0  0  0  0  0  0  0  0  0
    5.4641   -4.3696    0.0000 H   0  0  0  0  0  0  0  0  0  0  0  0
    4.5981   -3.4896    0.0000 H   0  0  0  0  0  0  0  0  0  0  0  0
    8.5991   -5.7996    0.0000 H   0  0  0  0  0  0  0  0  0  0  0  0
    3.4030   -2.7996    0.0000 H   0  0  0  0  0  0  0  0  0  0  0  0
    6.3301   -6.4896    0.0000 H   0  0  0  0  0  0  0  0  0  0  0  0
    2.0000   -0.3696    0.0000 H   0  0  0  0  0  0  0  0  0  0  0  0
    3.7320   -4.9896    0.0000 H   0  0  0  0  0  0  0  0  0  0  0  0
    8.3064    1.0389    0.0000 H   0  0  0  0  0  0  0  0  0  0  0  0
    5.4277    1.0389    0.0000 H   0  0  0  0  0  0  0  0  0  0  0  0
   10.8681   -3.4896    0.0000 H   0  0  0  0  0  0  0  0  0  0  0  0
    9.7942   -1.8696    0.0000 H   0  0  0  0  0  0  0  0  0  0  0  0
    7.7652    5.0063    0.0000 H   0  0  0  0  0  0  0  0  0  0  0  0
    4.5792    2.5979    0.0000 H   0  0  0  0  0  0  0  0  0  0  0  0
   12.0632   -2.7996    0.0000 H   0  0  0  0  0  0  0  0  0  0  0  0
   10.6603   -0.3696    0.0000 H   0  0  0  0  0  0  0  0  0  0  0  0
   10.3565    3.2563    0.0000 H   0  0  0  0  0  0  0  0  0  0  0  0
    8.9630    5.6916    0.0000 H   0  0  0  0  0  0  0  0  0  0  0  0
   12.0632    0.4404    0.0000 H   0  0  0  0  0  0  0  0  0  0  0  0
   10.3690    6.4962    0.0000 H   0  0  0  0  0  0  0  0  0  0  0  0
   13.7953    0.4404    0.0000 H   0  0  0  0  0  0  0  0  0  0  0  0
   12.1011    6.4896    0.0000 H   0  0  0  0  0  0  0  0  0  0  0  0
   14.9713   -2.2165    0.0000 H   0  0  0  0  0  0  0  0  0  0  0  0
   15.1982   -1.3696    0.0000 H   0  0  0  0  0  0  0  0  0  0  0  0
   14.3513   -1.1426    0.0000 H   0  0  0  0  0  0  0  0  0  0  0  0
   13.2668    3.8281    0.0000 H   0  0  0  0  0  0  0  0  0  0  0  0
   13.4970    4.6742    0.0000 H   0  0  0  0  0  0  0  0  0  0  0  0
   12.6510    4.9044    0.0000 H   0  0  0  0  0  0  0  0  0  0  0  0
  1 22  1  0  0  0  0
  1 24  1  0  0  0  0
  2 24  1  0  0  0  0
  2 31  1  0  0  0  0
  3 28  1  0  0  0  0
  3 30  1  0  0  0  0
  4 25  1  0  0  0  0
  4 35  1  0  0  0  0
  5 23  1  0  0  0  0
  5 70  1  0  0  0  0
  6 28  1  0  0  0  0
  6 34  1  0  0  0  0
  7 26  1  0  0  0  0
  7 71  1  0  0  0  0
  8 27  1  0  0  0  0
  8 72  1  0  0  0  0
  9 29  1  0  0  0  0
  9 73  1  0  0  0  0
 10 32  1  0  0  0  0
 10 74  1  0  0  0  0
 11 33  1  0  0  0  0
 11 75  1  0  0  0  0
 12 32  2  0  0  0  0
 13 33  2  0  0  0  0
 14 35  2  0  0  0  0
 15 39  1  0  0  0  0
 15 44  1  0  0  0  0
 16 40  1  0  0  0  0
 16 81  1  0  0  0  0
 17 43  2  0  0  0  0
 18 52  1  0  0  0  0
 18 58  1  0  0  0  0
 19 54  1  0  0  0  0
 19 59  1  0  0  0  0
 20 55  1  0  0  0  0
 20 88  1  0  0  0  0
 21 57  1  0  0  0  0
 21 89  1  0  0  0  0
 22 23  1  0  0  0  0
 22 28  1  0  0  0  0
 22 60  1  0  0  0  0
 23 27  1  0  0  0  0
 23 61  1  0  0  0  0
 24 25  1  0  0  0  0
 24 62  1  0  0  0  0
 25 26  1  0  0  0  0
 25 63  1  0  0  0  0
 26 29  1  0  0  0  0
 26 64  1  0  0  0  0
 27 30  1  0  0  0  0
 27 65  1  0  0  0  0
 28 66  1  0  0  0  0
 29 31  1  0  0  0  0
 29 67  1  0  0  0  0
 30 32  1  0  0  0  0
 30 68  1  0  0  0  0
 31 33  1  0  0  0  0
 31 69  1  0  0  0  0
 34 36  1  0  0  0  0
 34 37  2  0  0  0  0
 35 38  1  0  0  0  0
 36 39  2  0  0  0  0
 36 76  1  0  0  0  0
 37 40  1  0  0  0  0
 37 77  1  0  0  0  0
 38 42  2  0  0  0  0
 38 78  1  0  0  0  0
 39 41  1  0  0  0  0
 40 41  2  0  0  0  0
 41 43  1  0  0  0  0
 42 46  1  0  0  0  0
 42 79  1  0  0  0  0
 43 45  1  0  0  0  0
 44 45  2  0  0  0  0
 44 47  1  0  0  0  0
 45 80  1  0  0  0  0
 46 48  2  0  0  0  0
 46 49  1  0  0  0  0
 47 50  2  0  0  0  0
 47 51  1  0  0  0  0
 48 52  1  0  0  0  0
 48 82  1  0  0  0  0
 49 53  2  0  0  0  0
 49 83  1  0  0  0  0
 50 54  1  0  0  0  0
 50 84  1  0  0  0  0
 51 56  2  0  0  0  0
 51 85  1  0  0  0  0
 52 55  2  0  0  0  0
 53 55  1  0  0  0  0
 53 86  1  0  0  0  0
 54 57  2  0  0  0  0
 56 57  1  0  0  0  0
 56 87  1  0  0  0  0
 58 90  1  0  0  0  0
 58 91  1  0  0  0  0
 58 92  1  0  0  0  0
 59 93  1  0  0  0  0
 59 94  1  0  0  0  0
 59 95  1  0  0  0  0
M  END
>  <PUBCHEM_COMPOUND_CID>
131752760

>  <PUBCHEM_COMPOUND_CANONICALIZED>
1

>  <PUBCHEM_CACTVS_COMPLEXITY>
1570

>  <PUBCHEM_CACTVS_HBOND_ACCEPTOR>
21

>  <PUBCHEM_CACTVS_HBOND_DONOR>
9

>  <PUBCHEM_CACTVS_ROTATABLE_BOND>
13

>  <PUBCHEM_CACTVS_SUBSKEYS>
AAADcfB8PgAAAAAAAAAAAAAAAAAAAAAAAAA0aMECAAAAAACBUAAAGgAACAAADBSwmAMyDoAABgCIAqDSCAICCAAkIAAIiAFGiMgdNzaGNR6ieWOl4BUPuYfK7LzOIAABCAAIQABAAAIQABCAAAAAAAAAAA==

>  <PUBCHEM_IUPAC_OPENEYE_NAME>
5-[6-carboxy-4,5-dihydroxy-3-[(E)-3-(4-hydroxy-3-methoxy-phenyl)prop-2-enoyl]oxy-tetrahydropyran-2-yl]oxy-3,4-dihydroxy-6-[5-hydroxy-2-(4-hydroxy-3-methoxy-phenyl)-4-oxo-chromen-7-yl]oxy-tetrahydropyran-2-carboxylic acid

>  <PUBCHEM_IUPAC_CAS_NAME>
5-[[6-carboxy-4,5-dihydroxy-3-[(E)-3-(4-hydroxy-3-methoxyphenyl)-1-oxoprop-2-enoxy]-2-oxanyl]oxy]-3,4-dihydroxy-6-[[5-hydroxy-2-(4-hydroxy-3-methoxyphenyl)-4-oxo-1-benzopyran-7-yl]oxy]-2-oxanecarboxylic acid

>  <PUBCHEM_IUPAC_NAME>
5-[6-carboxy-4,5-dihydroxy-3-[(E)-3-(4-hydroxy-3-methoxyphenyl)prop-2-enoyl]oxyoxan-2-yl]oxy-3,4-dihydroxy-6-[5-hydroxy-2-(4-hydroxy-3-methoxyphenyl)-4-oxochromen-7-yl]oxyoxane-2-carboxylic acid

>  <PUBCHEM_IUPAC_SYSTEMATIC_NAME>
5-[6-carboxy-3-[(E)-3-(3-methoxy-4-oxidanyl-phenyl)prop-2-enoyl]oxy-4,5-bis(oxidanyl)oxan-2-yl]oxy-6-[2-(3-methoxy-4-oxidanyl-phenyl)-5-oxidanyl-4-oxidanylidene-chromen-7-yl]oxy-3,4-bis(oxidanyl)oxane-2-carboxylic acid

>  <PUBCHEM_IUPAC_TRADITIONAL_NAME>
5-[6-carboxy-4,5-dihydroxy-3-[(E)-3-(4-hydroxy-3-methoxy-phenyl)acryloyl]oxy-tetrahydropyran-2-yl]oxy-3,4-dihydroxy-6-[5-hydroxy-2-(4-hydroxy-3-methoxy-phenyl)-4-keto-chromen-7-yl]oxy-tetrahydropyran-2-carboxylic acid

>  <PUBCHEM_IUPAC_INCHI>
InChI=1S/C38H36O21/c1-52-22-9-14(3-6-17(22)39)4-8-25(43)56-33-29(46)27(44)32(36(50)51)58-38(33)59-34-30(47)28(45)31(35(48)49)57-37(34)54-16-11-19(41)26-20(42)13-21(55-24(26)12-16)15-5-7-18(40)23(10-15)53-2/h3-13,27-34,37-41,44-47H,1-2H3,(H,48,49)(H,50,51)/b8-4+

>  <PUBCHEM_IUPAC_INCHIKEY>
CQSOKHCNRZFEOH-XBXARRHUSA-N

>  <PUBCHEM_EXACT_MASS>
828.175

>  <PUBCHEM_MOLECULAR_FORMULA>
C38H36O21

>  <PUBCHEM_MOLECULAR_WEIGHT>
828.685

>  <PUBCHEM_OPENEYE_CAN_SMILES>
COC1=C(C=CC(=C1)C=CC(=O)OC2C(C(C(OC2OC3C(C(C(OC3OC4=CC(=C5C(=C4)OC(=CC5=O)C6=CC(=C(C=C6)O)OC)O)C(=O)O)O)O)C(=O)O)O)O)O

>  <PUBCHEM_OPENEYE_ISO_SMILES>
COC1=C(C=CC(=C1)/C=C/C(=O)OC2C(C(C(OC2OC3C(C(C(OC3OC4=CC(=C5C(=C4)OC(=CC5=O)C6=CC(=C(C=C6)O)OC)O)C(=O)O)O)O)C(=O)O)O)O)O

>  <PUBCHEM_CACTVS_TPSA>
324

>  <PUBCHEM_MONOISOTOPIC_WEIGHT>
828.175

>  <PUBCHEM_TOTAL_CHARGE>
0

>  <PUBCHEM_HEAVY_ATOM_COUNT>
59

>  <PUBCHEM_ATOM_DEF_STEREO_COUNT>
0

>  <PUBCHEM_ATOM_UDEF_STEREO_COUNT>
10

>  <PUBCHEM_BOND_DEF_STEREO_COUNT>
1

>  <PUBCHEM_BOND_UDEF_STEREO_COUNT>
0

>  <PUBCHEM_ISOTOPIC_ATOM_COUNT>
0

>  <PUBCHEM_COMPONENT_COUNT>
1

>  <PUBCHEM_CACTVS_TAUTO_COUNT>
145

>  <PUBCHEM_COORDINATE_TYPE>
1
5
255

>  <PUBCHEM_BONDANNOTATIONS>
22  1  3
24  1  3
15  39  8
15  44  8
30  32  3
31  33  3
34  36  8
34  37  8
36  39  8
37  40  8
39  41  8
25  4  3
40  41  8
41  43  8
43  45  8
44  45  8
46  48  8
46  49  8
47  50  8
47  51  8
48  52  8
49  53  8
23  5  3
50  54  8
51  56  8
52  55  8
53  55  8
54  57  8
56  57  8
28  6  3
26  7  3
27  8  3
29  9  3

$$$$
