131752092
 OpenBabel06101807152D

 98 97  0  0  0  0  0  0  0  0999 V2000
    2.5369    4.0000    0.0000 O   0  0  0  0  0  0  0  0  0  0  0  0
   26.7856   -4.0000    0.0000 O   0  0  0  0  0  0  0  0  0  0  0  0
    6.8671    3.5000    0.0000 C   0  0  0  0  0  0  0  0  0  0  0  0
   22.4555   -3.5000    0.0000 C   0  0  0  0  0  0  0  0  0  0  0  0
    6.0010    4.0000    0.0000 C   0  0  0  0  0  0  0  0  0  0  0  0
   23.3215   -4.0000    0.0000 C   0  0  0  0  0  0  0  0  0  0  0  0
    7.7331    4.0000    0.0000 C   0  0  0  0  0  0  0  0  0  0  0  0
   21.5895   -4.0000    0.0000 C   0  0  0  0  0  0  0  0  0  0  0  0
    5.1350    3.5000    0.0000 C   0  0  0  0  0  0  0  0  0  0  0  0
   24.1876   -3.5000    0.0000 C   0  0  0  0  0  0  0  0  0  0  0  0
    4.2690    4.0000    0.0000 C   0  0  0  0  0  0  0  0  0  0  0  0
   25.0536   -4.0000    0.0000 C   0  0  0  0  0  0  0  0  0  0  0  0
    7.7331    5.0000    0.0000 C   0  0  0  0  0  0  0  0  0  0  0  0
   21.5895   -5.0000    0.0000 C   0  0  0  0  0  0  0  0  0  0  0  0
    8.5991    3.5000    0.0000 C   0  0  0  0  0  0  0  0  0  0  0  0
   20.7235   -3.5000    0.0000 C   0  0  0  0  0  0  0  0  0  0  0  0
    3.4030    3.5000    0.0000 C   0  0  0  0  0  0  0  0  0  0  0  0
   25.9196   -3.5000    0.0000 C   0  0  0  0  0  0  0  0  0  0  0  0
    4.2690    5.0000    0.0000 C   0  0  0  0  0  0  0  0  0  0  0  0
   25.0536   -5.0000    0.0000 C   0  0  0  0  0  0  0  0  0  0  0  0
    9.4651    4.0000    0.0000 C   0  0  0  0  0  0  0  0  0  0  0  0
   19.8574   -4.0000    0.0000 C   0  0  0  0  0  0  0  0  0  0  0  0
   10.3312    3.5000    0.0000 C   0  0  0  0  0  0  0  0  0  0  0  0
   18.9914   -3.5000    0.0000 C   0  0  0  0  0  0  0  0  0  0  0  0
   10.3312    2.5000    0.0000 C   0  0  0  0  0  0  0  0  0  0  0  0
   18.1254   -4.0000    0.0000 C   0  0  0  0  0  0  0  0  0  0  0  0
    9.4651    2.0000    0.0000 C   0  0  0  0  0  0  0  0  0  0  0  0
   18.1254   -5.0000    0.0000 C   0  0  0  0  0  0  0  0  0  0  0  0
   11.1972    2.0000    0.0000 C   0  0  0  0  0  0  0  0  0  0  0  0
   17.2594   -3.5000    0.0000 C   0  0  0  0  0  0  0  0  0  0  0  0
   12.0632    2.5000    0.0000 C   0  0  0  0  0  0  0  0  0  0  0  0
   17.2594   -2.5000    0.0000 C   0  0  0  0  0  0  0  0  0  0  0  0
   12.9292    2.0000    0.0000 C   0  0  0  0  0  0  0  0  0  0  0  0
   16.3933   -2.0000    0.0000 C   0  0  0  0  0  0  0  0  0  0  0  0
   12.9292    1.0000    0.0000 C   0  0  0  0  0  0  0  0  0  0  0  0
   16.3933   -1.0000    0.0000 C   0  0  0  0  0  0  0  0  0  0  0  0
   13.7953    0.5000    0.0000 C   0  0  0  0  0  0  0  0  0  0  0  0
   15.5273   -0.5000    0.0000 C   0  0  0  0  0  0  0  0  0  0  0  0
   12.0632    0.5000    0.0000 C   0  0  0  0  0  0  0  0  0  0  0  0
   17.2594   -0.5000    0.0000 C   0  0  0  0  0  0  0  0  0  0  0  0
   14.6613    1.0000    0.0000 C   0  0  0  0  0  0  0  0  0  0  0  0
   15.5273    0.5000    0.0000 C   0  0  0  0  0  0  0  0  0  0  0  0
    6.4685    3.0250    0.0000 H   0  0  0  0  0  0  0  0  0  0  0  0
    7.2656    3.0250    0.0000 H   0  0  0  0  0  0  0  0  0  0  0  0
   22.8540   -3.0250    0.0000 H   0  0  0  0  0  0  0  0  0  0  0  0
   22.0570   -3.0250    0.0000 H   0  0  0  0  0  0  0  0  0  0  0  0
    6.3996    4.4750    0.0000 H   0  0  0  0  0  0  0  0  0  0  0  0
    5.6025    4.4750    0.0000 H   0  0  0  0  0  0  0  0  0  0  0  0
   22.9230   -4.4750    0.0000 H   0  0  0  0  0  0  0  0  0  0  0  0
   23.7201   -4.4750    0.0000 H   0  0  0  0  0  0  0  0  0  0  0  0
    5.1350    2.8800    0.0000 H   0  0  0  0  0  0  0  0  0  0  0  0
   24.1876   -2.8800    0.0000 H   0  0  0  0  0  0  0  0  0  0  0  0
    8.3531    5.0000    0.0000 H   0  0  0  0  0  0  0  0  0  0  0  0
    7.7331    5.6200    0.0000 H   0  0  0  0  0  0  0  0  0  0  0  0
    7.1131    5.0000    0.0000 H   0  0  0  0  0  0  0  0  0  0  0  0
   20.9695   -5.0000    0.0000 H   0  0  0  0  0  0  0  0  0  0  0  0
   21.5895   -5.6200    0.0000 H   0  0  0  0  0  0  0  0  0  0  0  0
   22.2095   -5.0000    0.0000 H   0  0  0  0  0  0  0  0  0  0  0  0
    8.5991    2.8800    0.0000 H   0  0  0  0  0  0  0  0  0  0  0  0
   20.7235   -2.8800    0.0000 H   0  0  0  0  0  0  0  0  0  0  0  0
    3.0044    3.0250    0.0000 H   0  0  0  0  0  0  0  0  0  0  0  0
    3.8015    3.0250    0.0000 H   0  0  0  0  0  0  0  0  0  0  0  0
   26.3182   -3.0250    0.0000 H   0  0  0  0  0  0  0  0  0  0  0  0
   25.5211   -3.0250    0.0000 H   0  0  0  0  0  0  0  0  0  0  0  0
    4.8890    5.0000    0.0000 H   0  0  0  0  0  0  0  0  0  0  0  0
    4.2690    5.6200    0.0000 H   0  0  0  0  0  0  0  0  0  0  0  0
    3.6490    5.0000    0.0000 H   0  0  0  0  0  0  0  0  0  0  0  0
   24.4336   -5.0000    0.0000 H   0  0  0  0  0  0  0  0  0  0  0  0
   25.0536   -5.6200    0.0000 H   0  0  0  0  0  0  0  0  0  0  0  0
   25.6736   -5.0000    0.0000 H   0  0  0  0  0  0  0  0  0  0  0  0
    9.4651    4.6200    0.0000 H   0  0  0  0  0  0  0  0  0  0  0  0
   19.8574   -4.6200    0.0000 H   0  0  0  0  0  0  0  0  0  0  0  0
   10.8681    3.8100    0.0000 H   0  0  0  0  0  0  0  0  0  0  0  0
   18.9914   -2.8800    0.0000 H   0  0  0  0  0  0  0  0  0  0  0  0
    2.0000    3.6900    0.0000 H   0  0  0  0  0  0  0  0  0  0  0  0
   27.3226   -3.6900    0.0000 H   0  0  0  0  0  0  0  0  0  0  0  0
    9.1551    2.5369    0.0000 H   0  0  0  0  0  0  0  0  0  0  0  0
    8.9282    1.6900    0.0000 H   0  0  0  0  0  0  0  0  0  0  0  0
    9.7751    1.4631    0.0000 H   0  0  0  0  0  0  0  0  0  0  0  0
   17.5054   -5.0000    0.0000 H   0  0  0  0  0  0  0  0  0  0  0  0
   18.1254   -5.6200    0.0000 H   0  0  0  0  0  0  0  0  0  0  0  0
   18.7454   -5.0000    0.0000 H   0  0  0  0  0  0  0  0  0  0  0  0
   11.1972    1.3800    0.0000 H   0  0  0  0  0  0  0  0  0  0  0  0
   16.7224   -3.8100    0.0000 H   0  0  0  0  0  0  0  0  0  0  0  0
   12.0632    3.1200    0.0000 H   0  0  0  0  0  0  0  0  0  0  0  0
   17.7963   -2.1900    0.0000 H   0  0  0  0  0  0  0  0  0  0  0  0
   13.4662    2.3100    0.0000 H   0  0  0  0  0  0  0  0  0  0  0  0
   15.8564   -2.3100    0.0000 H   0  0  0  0  0  0  0  0  0  0  0  0
   13.7953   -0.1200    0.0000 H   0  0  0  0  0  0  0  0  0  0  0  0
   14.9904   -0.8100    0.0000 H   0  0  0  0  0  0  0  0  0  0  0  0
   11.7532    1.0369    0.0000 H   0  0  0  0  0  0  0  0  0  0  0  0
   11.5263    0.1900    0.0000 H   0  0  0  0  0  0  0  0  0  0  0  0
   12.3732   -0.0369    0.0000 H   0  0  0  0  0  0  0  0  0  0  0  0
   17.5694   -1.0369    0.0000 H   0  0  0  0  0  0  0  0  0  0  0  0
   17.7963   -0.1900    0.0000 H   0  0  0  0  0  0  0  0  0  0  0  0
   16.9494    0.0369    0.0000 H   0  0  0  0  0  0  0  0  0  0  0  0
   14.6613    1.6200    0.0000 H   0  0  0  0  0  0  0  0  0  0  0  0
   16.0643    0.8100    0.0000 H   0  0  0  0  0  0  0  0  0  0  0  0
  1 17  1  0  0  0  0
  1 75  1  0  0  0  0
  2 18  1  0  0  0  0
  2 76  1  0  0  0  0
  3  5  1  0  0  0  0
  3  7  1  0  0  0  0
  3 43  1  0  0  0  0
  3 44  1  0  0  0  0
  4  6  1  0  0  0  0
  4  8  1  0  0  0  0
  4 45  1  0  0  0  0
  4 46  1  0  0  0  0
  5  9  1  0  0  0  0
  5 47  1  0  0  0  0
  5 48  1  0  0  0  0
  6 10  1  0  0  0  0
  6 49  1  0  0  0  0
  6 50  1  0  0  0  0
  7 13  1  0  0  0  0
  7 15  2  0  0  0  0
  8 14  1  0  0  0  0
  8 16  2  0  0  0  0
  9 11  2  0  0  0  0
  9 51  1  0  0  0  0
 10 12  2  0  0  0  0
 10 52  1  0  0  0  0
 11 17  1  0  0  0  0
 11 19  1  0  0  0  0
 12 18  1  0  0  0  0
 12 20  1  0  0  0  0
 13 53  1  0  0  0  0
 13 54  1  0  0  0  0
 13 55  1  0  0  0  0
 14 56  1  0  0  0  0
 14 57  1  0  0  0  0
 14 58  1  0  0  0  0
 15 21  1  0  0  0  0
 15 59  1  0  0  0  0
 16 22  1  0  0  0  0
 16 60  1  0  0  0  0
 17 61  1  0  0  0  0
 17 62  1  0  0  0  0
 18 63  1  0  0  0  0
 18 64  1  0  0  0  0
 19 65  1  0  0  0  0
 19 66  1  0  0  0  0
 19 67  1  0  0  0  0
 20 68  1  0  0  0  0
 20 69  1  0  0  0  0
 20 70  1  0  0  0  0
 21 23  2  0  0  0  0
 21 71  1  0  0  0  0
 22 24  2  0  0  0  0
 22 72  1  0  0  0  0
 23 25  1  0  0  0  0
 23 73  1  0  0  0  0
 24 26  1  0  0  0  0
 24 74  1  0  0  0  0
 25 27  1  0  0  0  0
 25 29  2  0  0  0  0
 26 28  1  0  0  0  0
 26 30  2  0  0  0  0
 27 77  1  0  0  0  0
 27 78  1  0  0  0  0
 27 79  1  0  0  0  0
 28 80  1  0  0  0  0
 28 81  1  0  0  0  0
 28 82  1  0  0  0  0
 29 31  1  0  0  0  0
 29 83  1  0  0  0  0
 30 32  1  0  0  0  0
 30 84  1  0  0  0  0
 31 33  2  0  0  0  0
 31 85  1  0  0  0  0
 32 34  2  0  0  0  0
 32 86  1  0  0  0  0
 33 35  1  0  0  0  0
 33 87  1  0  0  0  0
 34 36  1  0  0  0  0
 34 88  1  0  0  0  0
 35 37  2  0  0  0  0
 35 39  1  0  0  0  0
 36 38  2  0  0  0  0
 36 40  1  0  0  0  0
 37 41  1  0  0  0  0
 37 89  1  0  0  0  0
 38 42  1  0  0  0  0
 38 90  1  0  0  0  0
 39 91  1  0  0  0  0
 39 92  1  0  0  0  0
 39 93  1  0  0  0  0
 40 94  1  0  0  0  0
 40 95  1  0  0  0  0
 40 96  1  0  0  0  0
 41 42  2  0  0  0  0
 41 97  1  0  0  0  0
 42 98  1  0  0  0  0
M  END
>  <PUBCHEM_COMPOUND_CID>
131752092

>  <PUBCHEM_COMPOUND_CANONICALIZED>
1

>  <PUBCHEM_CACTVS_COMPLEXITY>
1100

>  <PUBCHEM_CACTVS_HBOND_ACCEPTOR>
2

>  <PUBCHEM_CACTVS_HBOND_DONOR>
2

>  <PUBCHEM_CACTVS_ROTATABLE_BOND>
18

>  <PUBCHEM_CACTVS_SUBSKEYS>
AAADcfB8MAAAAAAAAAAAAAAAAAAAAAAAAAAAAAAAAAAAAAAAAAAAGgAACAAADACggAICAAAAAgCAAiBCAAAAAAAgAAAICAAAAAgIFAIAAQAAUAAAgAAIkAIAAAAAAAAAAAAAAAAAAAAAAAAAAAAAAAAAAA==

>  <PUBCHEM_IUPAC_OPENEYE_NAME>
(2E,6E,8Z,10Z,12Z,14Z,16Z,18E,20E,22Z,24E,26E,30E)-2,6,10,14,19,23,27,31-octamethyldotriaconta-2,6,8,10,12,14,16,18,20,22,24,26,30-tridecaene-1,32-diol

>  <PUBCHEM_IUPAC_CAS_NAME>
(2E,6E,8Z,10Z,12Z,14Z,16Z,18E,20E,22Z,24E,26E,30E)-2,6,10,14,19,23,27,31-octamethyldotriaconta-2,6,8,10,12,14,16,18,20,22,24,26,30-tridecaene-1,32-diol

>  <PUBCHEM_IUPAC_NAME>
(2E,6E,8Z,10Z,12Z,14Z,16Z,18E,20E,22Z,24E,26E,30E)-2,6,10,14,19,23,27,31-octamethyldotriaconta-2,6,8,10,12,14,16,18,20,22,24,26,30-tridecaene-1,32-diol

>  <PUBCHEM_IUPAC_SYSTEMATIC_NAME>
(2E,6E,8Z,10Z,12Z,14Z,16Z,18E,20E,22Z,24E,26E,30E)-2,6,10,14,19,23,27,31-octamethyldotriaconta-2,6,8,10,12,14,16,18,20,22,24,26,30-tridecaene-1,32-diol

>  <PUBCHEM_IUPAC_TRADITIONAL_NAME>
(2E,6E,8Z,10Z,12Z,14Z,16Z,18E,20E,22Z,24E,26E,30E)-2,6,10,14,19,23,27,31-octamethyldotriaconta-2,6,8,10,12,14,16,18,20,22,24,26,30-tridecaene-1,32-diol

>  <PUBCHEM_IUPAC_INCHI>
InChI=1S/C40H56O2/c1-33(19-11-21-35(3)23-13-25-37(5)27-15-29-39(7)31-41)17-9-10-18-34(2)20-12-22-36(4)24-14-26-38(6)28-16-30-40(8)32-42/h9-14,17-26,29-30,41-42H,15-16,27-28,31-32H2,1-8H3/b10-9-,19-11-,20-12+,23-13-,24-14+,33-17-,34-18+,35-21-,36-22-,37-25+,38-26+,39-29+,40-30+

>  <PUBCHEM_IUPAC_INCHIKEY>
JEVVKJMRZMXFBT-BONGSULASA-N

>  <PUBCHEM_EXACT_MASS>
568.428

>  <PUBCHEM_MOLECULAR_FORMULA>
C40H56O2

>  <PUBCHEM_MOLECULAR_WEIGHT>
568.886

>  <PUBCHEM_OPENEYE_CAN_SMILES>
CC(=CC=CC(=CC=CC(=CC=CC=C(C)C=CC=C(C)C=CC=C(C)CCC=C(C)CO)C)C)CCC=C(C)CO

>  <PUBCHEM_OPENEYE_ISO_SMILES>
C/C(=C\C=C\C(=C/C=C/C(=C/C=C\C=C(\C)/C=C\C=C(\C)/C=C\C=C(/C)\CC/C=C(\C)/CO)/C)\C)/CC/C=C(\C)/CO

>  <PUBCHEM_CACTVS_TPSA>
40.5

>  <PUBCHEM_MONOISOTOPIC_WEIGHT>
568.428

>  <PUBCHEM_TOTAL_CHARGE>
0

>  <PUBCHEM_HEAVY_ATOM_COUNT>
42

>  <PUBCHEM_ATOM_DEF_STEREO_COUNT>
0

>  <PUBCHEM_ATOM_UDEF_STEREO_COUNT>
0

>  <PUBCHEM_BOND_DEF_STEREO_COUNT>
13

>  <PUBCHEM_BOND_UDEF_STEREO_COUNT>
0

>  <PUBCHEM_ISOTOPIC_ATOM_COUNT>
0

>  <PUBCHEM_COMPONENT_COUNT>
1

>  <PUBCHEM_CACTVS_TAUTO_COUNT>
1001

>  <PUBCHEM_COORDINATE_TYPE>
1
5
255

$$$$
