131751409
 OpenBabel06101807152D

 40 42  0  0  1  0  0  0  0  0999 V2000
    7.2699   -0.2500    0.0000 O   0  0  0  0  0  0  0  0  0  0  0  0
    7.2699    1.7500    0.0000 O   0  0  0  0  0  0  0  0  0  0  0  0
    9.0019    2.7500    0.0000 O   0  0  0  0  0  0  0  0  0  0  0  0
    9.8680   -2.7500    0.0000 O   0  0  0  0  0  0  0  0  0  0  0  0
   11.6000   -1.7500    0.0000 O   0  0  0  0  0  0  0  0  0  0  0  0
    2.0000    1.7192    0.0000 O   0  0  0  0  0  0  0  0  0  0  0  0
    8.1359    0.2500    0.0000 C   0  0  3  0  0  0  0  0  0  0  0  0
    8.1359    1.2500    0.0000 C   0  0  3  0  0  0  0  0  0  0  0  0
    9.0019   -0.2500    0.0000 C   0  0  0  0  0  0  0  0  0  0  0  0
    9.0019    1.7500    0.0000 C   0  0  0  0  0  0  0  0  0  0  0  0
    6.4038    0.2500    0.0000 C   0  0  0  0  0  0  0  0  0  0  0  0
    6.4038    1.2500    0.0000 C   0  0  0  0  0  0  0  0  0  0  0  0
    9.0019   -1.2500    0.0000 C   0  0  0  0  0  0  0  0  0  0  0  0
    9.8680    0.2500    0.0000 C   0  0  0  0  0  0  0  0  0  0  0  0
    5.5099   -0.2847    0.0000 C   0  0  0  0  0  0  0  0  0  0  0  0
    5.5099    1.7847    0.0000 C   0  0  0  0  0  0  0  0  0  0  0  0
    4.6038    0.2292    0.0000 C   0  0  0  0  0  0  0  0  0  0  0  0
    9.8680   -1.7500    0.0000 C   0  0  0  0  0  0  0  0  0  0  0  0
    4.6038    1.2708    0.0000 C   0  0  0  0  0  0  0  0  0  0  0  0
   10.7340   -0.2500    0.0000 C   0  0  0  0  0  0  0  0  0  0  0  0
   10.7340   -1.2500    0.0000 C   0  0  0  0  0  0  0  0  0  0  0  0
    3.7398   -0.2742    0.0000 C   0  0  0  0  0  0  0  0  0  0  0  0
    2.8718    0.2225    0.0000 C   0  0  0  0  0  0  0  0  0  0  0  0
    2.8680    1.2225    0.0000 C   0  0  0  0  0  0  0  0  0  0  0  0
    8.6728    0.5600    0.0000 H   0  0  0  0  0  0  0  0  0  0  0  0
    8.1359    1.8700    0.0000 H   0  0  0  0  0  0  0  0  0  0  0  0
    9.2140    1.1674    0.0000 H   0  0  0  0  0  0  0  0  0  0  0  0
    9.6125    1.8577    0.0000 H   0  0  0  0  0  0  0  0  0  0  0  0
    8.4650   -1.5600    0.0000 H   0  0  0  0  0  0  0  0  0  0  0  0
    9.8680    0.8700    0.0000 H   0  0  0  0  0  0  0  0  0  0  0  0
    5.5171   -0.9046    0.0000 H   0  0  0  0  0  0  0  0  0  0  0  0
    5.5171    2.4046    0.0000 H   0  0  0  0  0  0  0  0  0  0  0  0
    4.0681    1.5829    0.0000 H   0  0  0  0  0  0  0  0  0  0  0  0
   11.2709    0.0600    0.0000 H   0  0  0  0  0  0  0  0  0  0  0  0
    9.5389    3.0600    0.0000 H   0  0  0  0  0  0  0  0  0  0  0  0
    3.7421   -0.8941    0.0000 H   0  0  0  0  0  0  0  0  0  0  0  0
   10.4049   -3.0600    0.0000 H   0  0  0  0  0  0  0  0  0  0  0  0
   12.1369   -1.4400    0.0000 H   0  0  0  0  0  0  0  0  0  0  0  0
    2.3361   -0.0896    0.0000 H   0  0  0  0  0  0  0  0  0  0  0  0
    3.4037    1.5346    0.0000 H   0  0  0  0  0  0  0  0  0  0  0  0
  1  7  1  0  0  0  0
  1 11  1  0  0  0  0
  2  8  1  0  0  0  0
  2 12  1  0  0  0  0
  3 10  1  0  0  0  0
  3 35  1  0  0  0  0
  4 18  1  0  0  0  0
  4 37  1  0  0  0  0
  5 21  1  0  0  0  0
  5 38  1  0  0  0  0
  6 24  2  0  0  0  0
  7  8  1  0  0  0  0
  7  9  1  0  0  0  0
  7 25  1  0  0  0  0
  8 10  1  0  0  0  0
  8 26  1  0  0  0  0
  9 13  2  0  0  0  0
  9 14  1  0  0  0  0
 10 27  1  0  0  0  0
 10 28  1  0  0  0  0
 11 12  2  0  0  0  0
 11 15  1  0  0  0  0
 12 16  1  0  0  0  0
 13 18  1  0  0  0  0
 13 29  1  0  0  0  0
 14 20  2  0  0  0  0
 14 30  1  0  0  0  0
 15 17  2  0  0  0  0
 15 31  1  0  0  0  0
 16 19  2  0  0  0  0
 16 32  1  0  0  0  0
 17 19  1  0  0  0  0
 17 22  1  0  0  0  0
 18 21  2  0  0  0  0
 19 33  1  0  0  0  0
 20 21  1  0  0  0  0
 20 34  1  0  0  0  0
 22 23  2  0  0  0  0
 22 36  1  0  0  0  0
 23 24  1  0  0  0  0
 23 39  1  0  0  0  0
 24 40  1  0  0  0  0
M  END
>  <PUBCHEM_COMPOUND_CID>
131751409

>  <PUBCHEM_COMPOUND_CANONICALIZED>
1

>  <PUBCHEM_CACTVS_COMPLEXITY>
453

>  <PUBCHEM_CACTVS_HBOND_ACCEPTOR>
6

>  <PUBCHEM_CACTVS_HBOND_DONOR>
3

>  <PUBCHEM_CACTVS_ROTATABLE_BOND>
4

>  <PUBCHEM_CACTVS_SUBSKEYS>
AAADceB4OAAAAAAAAAAAAAAAAAAAAAAAAAA0YIAAAAAAAACRQAAAGgAACAAADBSgmAIwBoAABgCIAihSgAACCAAgIAAIiAAGiMgNNiKGMRqCeCOlwBELuYfA4LwOIAABAAAAQABAAAIAAACAAAAAAAAAAA==

>  <PUBCHEM_IUPAC_OPENEYE_NAME>
(Z)-3-[3-(3,4-dihydroxyphenyl)-2-(hydroxymethyl)-2,3-dihydro-1,4-benzodioxin-6-yl]prop-2-enal

>  <PUBCHEM_IUPAC_CAS_NAME>
(Z)-3-[3-(3,4-dihydroxyphenyl)-2-(hydroxymethyl)-2,3-dihydro-1,4-benzodioxin-6-yl]-2-propenal

>  <PUBCHEM_IUPAC_NAME>
(Z)-3-[3-(3,4-dihydroxyphenyl)-2-(hydroxymethyl)-2,3-dihydro-1,4-benzodioxin-6-yl]prop-2-enal

>  <PUBCHEM_IUPAC_SYSTEMATIC_NAME>
(Z)-3-[3-[3,4-bis(oxidanyl)phenyl]-2-(hydroxymethyl)-2,3-dihydro-1,4-benzodioxin-6-yl]prop-2-enal

>  <PUBCHEM_IUPAC_TRADITIONAL_NAME>
(Z)-3-[3-(3,4-dihydroxyphenyl)-2-methylol-2,3-dihydro-1,4-benzodioxin-6-yl]acrolein

>  <PUBCHEM_IUPAC_INCHI>
InChI=1S/C18H16O6/c19-7-1-2-11-3-6-15-16(8-11)24-18(17(10-20)23-15)12-4-5-13(21)14(22)9-12/h1-9,17-18,20-22H,10H2/b2-1-

>  <PUBCHEM_IUPAC_INCHIKEY>
SDDXIQONGFZHJH-UPHRSURJSA-N

>  <PUBCHEM_EXACT_MASS>
328.095

>  <PUBCHEM_MOLECULAR_FORMULA>
C18H16O6

>  <PUBCHEM_MOLECULAR_WEIGHT>
328.32

>  <PUBCHEM_OPENEYE_CAN_SMILES>
C1=CC2=C(C=C1C=CC=O)OC(C(O2)CO)C3=CC(=C(C=C3)O)O

>  <PUBCHEM_OPENEYE_ISO_SMILES>
C1=CC2=C(C=C1/C=C\C=O)OC(C(O2)CO)C3=CC(=C(C=C3)O)O

>  <PUBCHEM_CACTVS_TPSA>
96.2

>  <PUBCHEM_MONOISOTOPIC_WEIGHT>
328.095

>  <PUBCHEM_TOTAL_CHARGE>
0

>  <PUBCHEM_HEAVY_ATOM_COUNT>
24

>  <PUBCHEM_ATOM_DEF_STEREO_COUNT>
0

>  <PUBCHEM_ATOM_UDEF_STEREO_COUNT>
2

>  <PUBCHEM_BOND_DEF_STEREO_COUNT>
1

>  <PUBCHEM_BOND_UDEF_STEREO_COUNT>
0

>  <PUBCHEM_ISOTOPIC_ATOM_COUNT>
0

>  <PUBCHEM_COMPONENT_COUNT>
1

>  <PUBCHEM_CACTVS_TAUTO_COUNT>
10

>  <PUBCHEM_COORDINATE_TYPE>
1
5
255

>  <PUBCHEM_BONDANNOTATIONS>
11  12  8
11  15  8
12  16  8
13  18  8
14  20  8
15  17  8
16  19  8
17  19  8
18  21  8
20  21  8
7  9  3
8  10  3
9  13  8
9  14  8

$$$$
