131752258
 OpenBabel06101807152D

133140  0  0  1  0  0  0  0  0999 V2000
   11.1972   -1.2715    0.0000 O   0  0  0  0  0  0  0  0  0  0  0  0
    9.4651   -1.2715    0.0000 O   0  0  0  0  0  0  0  0  0  0  0  0
   11.1972   -3.2715    0.0000 O   0  0  0  0  0  0  0  0  0  0  0  0
   10.3312   -4.7715    0.0000 O   0  0  0  0  0  0  0  0  0  0  0  0
   12.0632    1.2285    0.0000 O   0  0  0  0  0  0  0  0  0  0  0  0
    9.4651   -4.2715    0.0000 O   0  0  0  0  0  0  0  0  0  0  0  0
    7.7331   -3.2715    0.0000 O   0  0  0  0  0  0  0  0  0  0  0  0
    9.4651   -0.2715    0.0000 O   0  0  0  0  0  0  0  0  0  0  0  0
   12.9292   -0.2715    0.0000 O   0  0  0  0  0  0  0  0  0  0  0  0
    9.4651    1.7285    0.0000 O   0  0  0  0  0  0  0  0  0  0  0  0
   12.9292   -4.2715    0.0000 O   0  0  0  0  0  0  0  0  0  0  0  0
   12.9292   -6.2715    0.0000 O   0  0  0  0  0  0  0  0  0  0  0  0
   11.1972   -7.2715    0.0000 O   0  0  0  0  0  0  0  0  0  0  0  0
    7.7331   -0.2715    0.0000 O   0  0  0  0  0  0  0  0  0  0  0  0
    8.5991   -5.7715    0.0000 O   0  0  0  0  0  0  0  0  0  0  0  0
   10.3312    3.2285    0.0000 O   0  0  0  0  0  0  0  0  0  0  0  0
   18.1851    4.7702    0.0000 O   0  0  0  0  0  0  0  0  0  0  0  0
   15.5273    0.2285    0.0000 O   0  0  0  0  0  0  0  0  0  0  0  0
   17.3133    3.2736    0.0000 O   0  0  0  0  0  0  0  0  0  0  0  0
   15.5928    6.2803    0.0000 O   0  0  0  0  0  0  0  0  0  0  0  0
   17.3287    7.2736    0.0000 O   0  0  0  0  0  0  0  0  0  0  0  0
   15.5851    4.2803    0.0000 O   0  0  0  0  0  0  0  0  0  0  0  0
   12.9292    1.7285    0.0000 O   0  0  0  0  0  0  0  0  0  0  0  0
   19.9210    5.7636    0.0000 O   0  0  0  0  0  0  0  0  0  0  0  0
    7.7331   -7.2715    0.0000 O   0  0  0  0  0  0  0  0  0  0  0  0
   13.7735    3.2600    0.0000 O   0  0  0  0  0  0  0  0  0  0  0  0
   16.3933   -3.2715    0.0000 O   0  0  0  0  0  0  0  0  0  0  0  0
   14.6613   -4.2715    0.0000 O   0  0  0  0  0  0  0  0  0  0  0  0
    2.5369   -4.2715    0.0000 O   0  0  0  0  0  0  0  0  0  0  0  0
   10.3312   -2.7715    0.0000 C   0  0  3  0  0  0  0  0  0  0  0  0
   10.3312   -1.7715    0.0000 C   0  0  3  0  0  0  0  0  0  0  0  0
    9.4651   -3.2715    0.0000 C   0  0  3  0  0  0  0  0  0  0  0  0
    8.5991   -2.7715    0.0000 C   0  0  3  0  0  0  0  0  0  0  0  0
   11.1972   -0.2715    0.0000 C   0  0  3  0  0  0  0  0  0  0  0  0
    8.5991   -1.7715    0.0000 C   0  0  3  0  0  0  0  0  0  0  0  0
   10.3312    0.2285    0.0000 C   0  0  3  0  0  0  0  0  0  0  0  0
   11.1972   -4.2715    0.0000 C   0  0  3  0  0  0  0  0  0  0  0  0
   10.3312    1.2285    0.0000 C   0  0  3  0  0  0  0  0  0  0  0  0
   12.0632   -4.7715    0.0000 C   0  0  3  0  0  0  0  0  0  0  0  0
   12.0632    0.2285    0.0000 C   0  0  3  0  0  0  0  0  0  0  0  0
   12.0632   -5.7715    0.0000 C   0  0  3  0  0  0  0  0  0  0  0  0
   11.1972    1.7285    0.0000 C   0  0  3  0  0  0  0  0  0  0  0  0
   11.1972   -6.2715    0.0000 C   0  0  3  0  0  0  0  0  0  0  0  0
   10.3312   -5.7715    0.0000 C   0  0  3  0  0  0  0  0  0  0  0  0
    7.7331   -1.2715    0.0000 C   0  0  0  0  0  0  0  0  0  0  0  0
   11.1972    2.7285    0.0000 C   0  0  0  0  0  0  0  0  0  0  0  0
    9.4651   -6.2715    0.0000 C   0  0  0  0  0  0  0  0  0  0  0  0
   13.7953    0.2285    0.0000 C   0  0  0  0  0  0  0  0  0  0  0  0
   16.4569    5.7769    0.0000 C   0  0  3  0  0  0  0  0  0  0  0  0
   17.3249    6.2736    0.0000 C   0  0  3  0  0  0  0  0  0  0  0  0
   16.4531    4.7769    0.0000 C   0  0  3  0  0  0  0  0  0  0  0  0
   18.1889    5.7702    0.0000 C   0  0  3  0  0  0  0  0  0  0  0  0
   17.3171    4.2736    0.0000 C   0  0  3  0  0  0  0  0  0  0  0  0
   14.6613   -0.2715    0.0000 C   0  0  0  0  0  0  0  0  0  0  0  0
   13.7953    1.2285    0.0000 C   0  0  0  0  0  0  0  0  0  0  0  0
   14.6613    1.7285    0.0000 C   0  0  0  0  0  0  0  0  0  0  0  0
   15.5273    1.2285    0.0000 C   0  0  0  0  0  0  0  0  0  0  0  0
   19.0569    6.2669    0.0000 C   0  0  0  0  0  0  0  0  0  0  0  0
    7.7331   -6.2715    0.0000 C   0  0  0  0  0  0  0  0  0  0  0  0
   14.6613   -1.2715    0.0000 C   0  0  0  0  0  0  0  0  0  0  0  0
   16.4453    2.7769    0.0000 C   0  0  0  0  0  0  0  0  0  0  0  0
   14.6452    2.7700    0.0000 C   0  0  0  0  0  0  0  0  0  0  0  0
   16.4373    1.7353    0.0000 C   0  0  0  0  0  0  0  0  0  0  0  0
   15.5433    3.2978    0.0000 C   0  0  0  0  0  0  0  0  0  0  0  0
    6.8671   -5.7715    0.0000 C   0  0  0  0  0  0  0  0  0  0  0  0
   15.5273   -1.7715    0.0000 C   0  0  0  0  0  0  0  0  0  0  0  0
   13.7953   -1.7715    0.0000 C   0  0  0  0  0  0  0  0  0  0  0  0
   15.5273   -2.7715    0.0000 C   0  0  0  0  0  0  0  0  0  0  0  0
   13.7953   -2.7715    0.0000 C   0  0  0  0  0  0  0  0  0  0  0  0
    6.0010   -6.2715    0.0000 C   0  0  0  0  0  0  0  0  0  0  0  0
   14.6613   -3.2715    0.0000 C   0  0  0  0  0  0  0  0  0  0  0  0
    5.1350   -5.7715    0.0000 C   0  0  0  0  0  0  0  0  0  0  0  0
    4.2690   -6.2715    0.0000 C   0  0  0  0  0  0  0  0  0  0  0  0
    5.1350   -4.7715    0.0000 C   0  0  0  0  0  0  0  0  0  0  0  0
    3.4030   -5.7715    0.0000 C   0  0  0  0  0  0  0  0  0  0  0  0
    4.2690   -4.2715    0.0000 C   0  0  0  0  0  0  0  0  0  0  0  0
    3.4030   -4.7715    0.0000 C   0  0  0  0  0  0  0  0  0  0  0  0
   10.3312   -3.3915    0.0000 H   0  0  0  0  0  0  0  0  0  0  0  0
   10.8681   -2.0815    0.0000 H   0  0  0  0  0  0  0  0  0  0  0  0
    8.9282   -3.5815    0.0000 H   0  0  0  0  0  0  0  0  0  0  0  0
    8.5991   -3.3915    0.0000 H   0  0  0  0  0  0  0  0  0  0  0  0
   10.6603   -0.5815    0.0000 H   0  0  0  0  0  0  0  0  0  0  0  0
    8.5991   -1.1515    0.0000 H   0  0  0  0  0  0  0  0  0  0  0  0
   10.8681    0.5385    0.0000 H   0  0  0  0  0  0  0  0  0  0  0  0
   10.6603   -3.9615    0.0000 H   0  0  0  0  0  0  0  0  0  0  0  0
    9.7942    0.9185    0.0000 H   0  0  0  0  0  0  0  0  0  0  0  0
   12.6002   -5.0815    0.0000 H   0  0  0  0  0  0  0  0  0  0  0  0
   12.0632   -0.3915    0.0000 H   0  0  0  0  0  0  0  0  0  0  0  0
   12.0632   -6.3915    0.0000 H   0  0  0  0  0  0  0  0  0  0  0  0
   11.7341    2.0385    0.0000 H   0  0  0  0  0  0  0  0  0  0  0  0
   10.6603   -6.5815    0.0000 H   0  0  0  0  0  0  0  0  0  0  0  0
    9.7942   -5.4615    0.0000 H   0  0  0  0  0  0  0  0  0  0  0  0
    7.1225   -1.1638    0.0000 H   0  0  0  0  0  0  0  0  0  0  0  0
    7.5210   -1.8541    0.0000 H   0  0  0  0  0  0  0  0  0  0  0  0
    8.9282   -4.5815    0.0000 H   0  0  0  0  0  0  0  0  0  0  0  0
   11.8078    2.6208    0.0000 H   0  0  0  0  0  0  0  0  0  0  0  0
   11.4092    3.3111    0.0000 H   0  0  0  0  0  0  0  0  0  0  0  0
    9.0666   -6.7464    0.0000 H   0  0  0  0  0  0  0  0  0  0  0  0
    9.8637   -6.7464    0.0000 H   0  0  0  0  0  0  0  0  0  0  0  0
    7.1962   -2.9615    0.0000 H   0  0  0  0  0  0  0  0  0  0  0  0
    8.9282    0.0385    0.0000 H   0  0  0  0  0  0  0  0  0  0  0  0
    9.4651    2.3485    0.0000 H   0  0  0  0  0  0  0  0  0  0  0  0
   13.4662   -4.5815    0.0000 H   0  0  0  0  0  0  0  0  0  0  0  0
   12.9292   -6.8915    0.0000 H   0  0  0  0  0  0  0  0  0  0  0  0
   10.6603   -7.5815    0.0000 H   0  0  0  0  0  0  0  0  0  0  0  0
    7.1962    0.0385    0.0000 H   0  0  0  0  0  0  0  0  0  0  0  0
   10.3312    3.8485    0.0000 H   0  0  0  0  0  0  0  0  0  0  0  0
   16.9926    5.4648    0.0000 H   0  0  0  0  0  0  0  0  0  0  0  0
   16.7891    6.5856    0.0000 H   0  0  0  0  0  0  0  0  0  0  0  0
   15.9173    5.0890    0.0000 H   0  0  0  0  0  0  0  0  0  0  0  0
   18.7247    5.4582    0.0000 H   0  0  0  0  0  0  0  0  0  0  0  0
   16.7790    3.9657    0.0000 H   0  0  0  0  0  0  0  0  0  0  0  0
   19.4573    6.7403    0.0000 H   0  0  0  0  0  0  0  0  0  0  0  0
   18.6602    6.7434    0.0000 H   0  0  0  0  0  0  0  0  0  0  0  0
   16.9706    1.4192    0.0000 H   0  0  0  0  0  0  0  0  0  0  0  0
   15.5952    6.9002    0.0000 H   0  0  0  0  0  0  0  0  0  0  0  0
   17.8668    7.5815    0.0000 H   0  0  0  0  0  0  0  0  0  0  0  0
   15.0494    4.5923    0.0000 H   0  0  0  0  0  0  0  0  0  0  0  0
   15.5409    3.9178    0.0000 H   0  0  0  0  0  0  0  0  0  0  0  0
    6.8671   -5.1515    0.0000 H   0  0  0  0  0  0  0  0  0  0  0  0
   16.0643   -1.4615    0.0000 H   0  0  0  0  0  0  0  0  0  0  0  0
   13.2583   -1.4615    0.0000 H   0  0  0  0  0  0  0  0  0  0  0  0
   20.4591    6.0715    0.0000 H   0  0  0  0  0  0  0  0  0  0  0  0
   13.7663    3.8799    0.0000 H   0  0  0  0  0  0  0  0  0  0  0  0
   13.2583   -3.0815    0.0000 H   0  0  0  0  0  0  0  0  0  0  0  0
    6.0010   -6.8915    0.0000 H   0  0  0  0  0  0  0  0  0  0  0  0
   16.9303   -2.9615    0.0000 H   0  0  0  0  0  0  0  0  0  0  0  0
   15.1982   -4.5815    0.0000 H   0  0  0  0  0  0  0  0  0  0  0  0
    4.2690   -6.8915    0.0000 H   0  0  0  0  0  0  0  0  0  0  0  0
    5.6720   -4.4615    0.0000 H   0  0  0  0  0  0  0  0  0  0  0  0
    2.8660   -6.0815    0.0000 H   0  0  0  0  0  0  0  0  0  0  0  0
    4.2690   -3.6515    0.0000 H   0  0  0  0  0  0  0  0  0  0  0  0
    2.0000   -4.5815    0.0000 H   0  0  0  0  0  0  0  0  0  0  0  0
  1 31  1  0  0  0  0
  1 34  1  0  0  0  0
  2 31  1  0  0  0  0
  2 35  1  0  0  0  0
  3 30  1  0  0  0  0
  3 37  1  0  0  0  0
  4 37  1  0  0  0  0
  4 44  1  0  0  0  0
  5 40  1  0  0  0  0
  5 42  1  0  0  0  0
  6 32  1  0  0  0  0
  6 95  1  0  0  0  0
  7 33  1  0  0  0  0
  7100  1  0  0  0  0
  8 36  1  0  0  0  0
  8101  1  0  0  0  0
  9 40  1  0  0  0  0
  9 48  1  0  0  0  0
 10 38  1  0  0  0  0
 10102  1  0  0  0  0
 11 39  1  0  0  0  0
 11103  1  0  0  0  0
 12 41  1  0  0  0  0
 12104  1  0  0  0  0
 13 43  1  0  0  0  0
 13105  1  0  0  0  0
 14 45  1  0  0  0  0
 14106  1  0  0  0  0
 15 47  1  0  0  0  0
 15 59  1  0  0  0  0
 16 46  1  0  0  0  0
 16107  1  0  0  0  0
 17 52  1  0  0  0  0
 17 53  1  0  0  0  0
 18 54  1  0  0  0  0
 18 57  1  0  0  0  0
 19 53  1  0  0  0  0
 19 61  1  0  0  0  0
 20 49  1  0  0  0  0
 20116  1  0  0  0  0
 21 50  1  0  0  0  0
 21117  1  0  0  0  0
 22 51  1  0  0  0  0
 22118  1  0  0  0  0
 23 55  2  0  0  0  0
 24 58  1  0  0  0  0
 24123  1  0  0  0  0
 25 59  2  0  0  0  0
 26 62  1  0  0  0  0
 26124  1  0  0  0  0
 27 68  1  0  0  0  0
 27127  1  0  0  0  0
 28 71  1  0  0  0  0
 28128  1  0  0  0  0
 29 77  1  0  0  0  0
 29133  1  0  0  0  0
 30 31  1  0  0  0  0
 30 32  1  0  0  0  0
 30 78  1  0  0  0  0
 31 79  1  0  0  0  0
 32 33  1  0  0  0  0
 32 80  1  0  0  0  0
 33 35  1  0  0  0  0
 33 81  1  0  0  0  0
 34 36  1  0  0  0  0
 34 40  1  0  0  0  0
 34 82  1  0  0  0  0
 35 45  1  0  0  0  0
 35 83  1  0  0  0  0
 36 38  1  0  0  0  0
 36 84  1  0  0  0  0
 37 39  1  0  0  0  0
 37 85  1  0  0  0  0
 38 42  1  0  0  0  0
 38 86  1  0  0  0  0
 39 41  1  0  0  0  0
 39 87  1  0  0  0  0
 40 88  1  0  0  0  0
 41 43  1  0  0  0  0
 41 89  1  0  0  0  0
 42 46  1  0  0  0  0
 42 90  1  0  0  0  0
 43 44  1  0  0  0  0
 43 91  1  0  0  0  0
 44 47  1  0  0  0  0
 44 92  1  0  0  0  0
 45 93  1  0  0  0  0
 45 94  1  0  0  0  0
 46 96  1  0  0  0  0
 46 97  1  0  0  0  0
 47 98  1  0  0  0  0
 47 99  1  0  0  0  0
 48 54  2  0  0  0  0
 48 55  1  0  0  0  0
 49 50  1  0  0  0  0
 49 51  1  0  0  0  0
 49108  1  0  0  0  0
 50 52  1  0  0  0  0
 50109  1  0  0  0  0
 51 53  1  0  0  0  0
 51110  1  0  0  0  0
 52 58  1  0  0  0  0
 52111  1  0  0  0  0
 53112  1  0  0  0  0
 54 60  1  0  0  0  0
 55 56  1  0  0  0  0
 56 57  1  0  0  0  0
 56 62  2  0  0  0  0
 57 63  2  0  0  0  0
 58113  1  0  0  0  0
 58114  1  0  0  0  0
 59 65  1  0  0  0  0
 60 66  2  0  0  0  0
 60 67  1  0  0  0  0
 61 63  1  0  0  0  0
 61 64  2  0  0  0  0
 62 64  1  0  0  0  0
 63115  1  0  0  0  0
 64119  1  0  0  0  0
 65 70  2  0  0  0  0
 65120  1  0  0  0  0
 66 68  1  0  0  0  0
 66121  1  0  0  0  0
 67 69  2  0  0  0  0
 67122  1  0  0  0  0
 68 71  2  0  0  0  0
 69 71  1  0  0  0  0
 69125  1  0  0  0  0
 70 72  1  0  0  0  0
 70126  1  0  0  0  0
 72 73  2  0  0  0  0
 72 74  1  0  0  0  0
 73 75  1  0  0  0  0
 73129  1  0  0  0  0
 74 76  2  0  0  0  0
 74130  1  0  0  0  0
 75 77  2  0  0  0  0
 75131  1  0  0  0  0
 76 77  1  0  0  0  0
 76132  1  0  0  0  0
M  END
>  <PUBCHEM_COMPOUND_CID>
131752258

>  <PUBCHEM_COMPOUND_CANONICALIZED>
1

>  <PUBCHEM_CACTVS_COMPLEXITY>
2010

>  <PUBCHEM_CACTVS_HBOND_ACCEPTOR>
29

>  <PUBCHEM_CACTVS_HBOND_DONOR>
17

>  <PUBCHEM_CACTVS_ROTATABLE_BOND>
17

>  <PUBCHEM_CACTVS_SUBSKEYS>
AAADcfB8PgAAAAAAAAAAAAAAAAAAAAAAAAA0aNEiAAAAAACBUAAAGgAACAAADBSwmAMwDoAABgCIAqDSCAICCAAkIAAIiAFGiMgdNzaGNR6ieWGl4BUPuYfI7LzOIAABCAAIQABAAAIQABCAAAAAAAAAAA==

>  <PUBCHEM_IUPAC_OPENEYE_NAME>
[6-[2-[2-[2-(3,4-dihydroxyphenyl)-5-hydroxy-4-oxo-7-[3,4,5-trihydroxy-6-(hydroxymethyl)tetrahydropyran-2-yl]oxy-chromen-3-yl]oxy-4,5-dihydroxy-6-(hydroxymethyl)tetrahydropyran-3-yl]oxy-4,5-dihydroxy-6-(hydroxymethyl)tetrahydropyran-3-yl]oxy-3,4,5-trihydroxy-tetrahydropyran-2-yl]methyl (E)-3-(4-hydroxyphenyl)prop-2-enoate

>  <PUBCHEM_IUPAC_CAS_NAME>
(E)-3-(4-hydroxyphenyl)-2-propenoic acid [6-[[2-[[2-[[2-(3,4-dihydroxyphenyl)-5-hydroxy-4-oxo-7-[[3,4,5-trihydroxy-6-(hydroxymethyl)-2-oxanyl]oxy]-1-benzopyran-3-yl]oxy]-4,5-dihydroxy-6-(hydroxymethyl)-3-oxanyl]oxy]-4,5-dihydroxy-6-(hydroxymethyl)-3-oxanyl]oxy]-3,4,5-trihydroxy-2-oxanyl]methyl ester

>  <PUBCHEM_IUPAC_NAME>
[6-[2-[2-[2-(3,4-dihydroxyphenyl)-5-hydroxy-4-oxo-7-[3,4,5-trihydroxy-6-(hydroxymethyl)oxan-2-yl]oxychromen-3-yl]oxy-4,5-dihydroxy-6-(hydroxymethyl)oxan-3-yl]oxy-4,5-dihydroxy-6-(hydroxymethyl)oxan-3-yl]oxy-3,4,5-trihydroxyoxan-2-yl]methyl (E)-3-(4-hydroxyphenyl)prop-2-enoate

>  <PUBCHEM_IUPAC_SYSTEMATIC_NAME>
[6-[2-[2-[2-[3,4-bis(oxidanyl)phenyl]-7-[6-(hydroxymethyl)-3,4,5-tris(oxidanyl)oxan-2-yl]oxy-5-oxidanyl-4-oxidanylidene-chromen-3-yl]oxy-6-(hydroxymethyl)-4,5-bis(oxidanyl)oxan-3-yl]oxy-6-(hydroxymethyl)-4,5-bis(oxidanyl)oxan-3-yl]oxy-3,4,5-tris(oxidanyl)oxan-2-yl]methyl (E)-3-(4-hydroxyphenyl)prop-2-enoate

>  <PUBCHEM_IUPAC_TRADITIONAL_NAME>
(E)-3-(4-hydroxyphenyl)acrylic acid [6-[2-[2-[2-(3,4-dihydroxyphenyl)-5-hydroxy-4-keto-7-(3,4,5-trihydroxy-6-methylol-tetrahydropyran-2-yl)oxy-chromen-3-yl]oxy-4,5-dihydroxy-6-methylol-tetrahydropyran-3-yl]oxy-4,5-dihydroxy-6-methylol-tetrahydropyran-3-yl]oxy-3,4,5-trihydroxy-tetrahydropyran-2-yl]methyl ester

>  <PUBCHEM_IUPAC_INCHI>
InChI=1S/C48H56O29/c49-12-24-30(57)35(62)39(66)45(71-24)69-19-10-22(55)29-23(11-19)70-41(17-4-7-20(53)21(54)9-17)42(34(29)61)75-47-44(38(65)32(59)25(13-50)72-47)77-48-43(37(64)31(58)26(14-51)73-48)76-46-40(67)36(63)33(60)27(74-46)15-68-28(56)8-3-16-1-5-18(52)6-2-16/h1-11,24-27,30-33,35-40,43-55,57-60,62-67H,12-15H2/b8-3+

>  <PUBCHEM_IUPAC_INCHIKEY>
CSCMWYBIYIPMJK-FPYGCLRLSA-N

>  <PUBCHEM_EXACT_MASS>
1096.291

>  <PUBCHEM_MOLECULAR_FORMULA>
C48H56O29

>  <PUBCHEM_MOLECULAR_WEIGHT>
1096.947

>  <PUBCHEM_OPENEYE_CAN_SMILES>
C1=CC(=CC=C1C=CC(=O)OCC2C(C(C(C(O2)OC3C(C(C(OC3OC4C(C(C(OC4OC5=C(OC6=CC(=CC(=C6C5=O)O)OC7C(C(C(C(O7)CO)O)O)O)C8=CC(=C(C=C8)O)O)CO)O)O)CO)O)O)O)O)O)O

>  <PUBCHEM_OPENEYE_ISO_SMILES>
C1=CC(=CC=C1/C=C/C(=O)OCC2C(C(C(C(O2)OC3C(C(C(OC3OC4C(C(C(OC4OC5=C(OC6=CC(=CC(=C6C5=O)O)OC7C(C(C(C(O7)CO)O)O)O)C8=CC(=C(C=C8)O)O)CO)O)O)CO)O)O)O)O)O)O

>  <PUBCHEM_CACTVS_TPSA>
470

>  <PUBCHEM_MONOISOTOPIC_WEIGHT>
1096.291

>  <PUBCHEM_TOTAL_CHARGE>
0

>  <PUBCHEM_HEAVY_ATOM_COUNT>
77

>  <PUBCHEM_ATOM_DEF_STEREO_COUNT>
0

>  <PUBCHEM_ATOM_UDEF_STEREO_COUNT>
20

>  <PUBCHEM_BOND_DEF_STEREO_COUNT>
1

>  <PUBCHEM_BOND_UDEF_STEREO_COUNT>
0

>  <PUBCHEM_ISOTOPIC_ATOM_COUNT>
0

>  <PUBCHEM_COMPONENT_COUNT>
1

>  <PUBCHEM_CACTVS_TAUTO_COUNT>
272

>  <PUBCHEM_COORDINATE_TYPE>
1
5
255

>  <PUBCHEM_BONDANNOTATIONS>
31  1  3
34  1  3
38  10  3
39  11  3
41  12  3
43  13  3
18  54  8
18  57  8
53  19  3
49  20  3
50  21  3
51  22  3
30  3  3
37  3  3
35  45  3
42  46  3
44  47  3
48  54  8
48  55  8
52  58  3
55  56  8
56  57  8
56  62  8
57  63  8
32  6  3
60  66  8
60  67  8
61  63  8
61  64  8
62  64  8
66  68  8
67  69  8
68  71  8
69  71  8
33  7  3
72  73  8
72  74  8
73  75  8
74  76  8
75  77  8
76  77  8
36  8  3
40  9  3

$$$$
