131752544
 OpenBabel06101807152D

 98 97  0  0  0  0  0  0  0  0999 V2000
   18.4545   -5.0000    0.0000 C   0  0  0  0  0  0  0  0  0  0  0  0
   18.4545   -4.0000    0.0000 C   0  0  0  0  0  0  0  0  0  0  0  0
   16.7224   -4.0000    0.0000 C   0  0  0  0  0  0  0  0  0  0  0  0
   15.8564   -3.5000    0.0000 C   0  0  0  0  0  0  0  0  0  0  0  0
   19.3205   -5.5000    0.0000 C   0  0  0  0  0  0  0  0  0  0  0  0
   17.5885   -3.5000    0.0000 C   0  0  0  0  0  0  0  0  0  0  0  0
   14.9904   -4.0000    0.0000 C   0  0  0  0  0  0  0  0  0  0  0  0
   19.3205   -3.5000    0.0000 C   0  0  0  0  0  0  0  0  0  0  0  0
   19.3205   -6.5000    0.0000 C   0  0  0  0  0  0  0  0  0  0  0  0
   20.1865   -7.0000    0.0000 C   0  0  0  0  0  0  0  0  0  0  0  0
   14.9904   -5.0000    0.0000 C   0  0  0  0  0  0  0  0  0  0  0  0
   14.1244   -3.5000    0.0000 C   0  0  0  0  0  0  0  0  0  0  0  0
    4.5981    5.0000    0.0000 C   0  0  0  0  0  0  0  0  0  0  0  0
    3.7320    5.5000    0.0000 C   0  0  0  0  0  0  0  0  0  0  0  0
    4.5981    4.0000    0.0000 C   0  0  0  0  0  0  0  0  0  0  0  0
   20.1865   -8.0000    0.0000 C   0  0  0  0  0  0  0  0  0  0  0  0
   21.0526   -6.5000    0.0000 C   0  0  0  0  0  0  0  0  0  0  0  0
    3.7320    6.5000    0.0000 C   0  0  0  0  0  0  0  0  0  0  0  0
   14.1244   -2.5000    0.0000 C   0  0  0  0  0  0  0  0  0  0  0  0
    2.8660    7.0000    0.0000 C   0  0  0  0  0  0  0  0  0  0  0  0
    3.7320    3.5000    0.0000 C   0  0  0  0  0  0  0  0  0  0  0  0
    5.4641    3.5000    0.0000 C   0  0  0  0  0  0  0  0  0  0  0  0
   13.2583   -2.0000    0.0000 C   0  0  0  0  0  0  0  0  0  0  0  0
    2.8660    8.0000    0.0000 C   0  0  0  0  0  0  0  0  0  0  0  0
    2.0000    6.5000    0.0000 C   0  0  0  0  0  0  0  0  0  0  0  0
   13.2583   -1.0000    0.0000 C   0  0  0  0  0  0  0  0  0  0  0  0
    6.3301    4.0000    0.0000 C   0  0  0  0  0  0  0  0  0  0  0  0
    7.1962    3.5000    0.0000 C   0  0  0  0  0  0  0  0  0  0  0  0
   14.1244   -0.5000    0.0000 C   0  0  0  0  0  0  0  0  0  0  0  0
    8.0622    4.0000    0.0000 C   0  0  0  0  0  0  0  0  0  0  0  0
   12.3923   -0.5000    0.0000 C   0  0  0  0  0  0  0  0  0  0  0  0
    8.9282    3.5000    0.0000 C   0  0  0  0  0  0  0  0  0  0  0  0
    8.0622    5.0000    0.0000 C   0  0  0  0  0  0  0  0  0  0  0  0
   12.3923    0.5000    0.0000 C   0  0  0  0  0  0  0  0  0  0  0  0
    9.7942    4.0000    0.0000 C   0  0  0  0  0  0  0  0  0  0  0  0
   10.6603    2.5000    0.0000 C   0  0  0  0  0  0  0  0  0  0  0  0
   11.5263    1.0000    0.0000 C   0  0  0  0  0  0  0  0  0  0  0  0
   10.6603    3.5000    0.0000 C   0  0  0  0  0  0  0  0  0  0  0  0
   11.5263    2.0000    0.0000 C   0  0  0  0  0  0  0  0  0  0  0  0
    9.7942    2.0000    0.0000 C   0  0  0  0  0  0  0  0  0  0  0  0
   17.8439   -4.8923    0.0000 H   0  0  0  0  0  0  0  0  0  0  0  0
   18.2424   -5.5826    0.0000 H   0  0  0  0  0  0  0  0  0  0  0  0
   16.3239   -4.4750    0.0000 H   0  0  0  0  0  0  0  0  0  0  0  0
   17.1210   -4.4750    0.0000 H   0  0  0  0  0  0  0  0  0  0  0  0
   16.2549   -3.0250    0.0000 H   0  0  0  0  0  0  0  0  0  0  0  0
   15.4579   -3.0250    0.0000 H   0  0  0  0  0  0  0  0  0  0  0  0
   19.9311   -5.6077    0.0000 H   0  0  0  0  0  0  0  0  0  0  0  0
   19.5326   -4.9174    0.0000 H   0  0  0  0  0  0  0  0  0  0  0  0
   17.5885   -2.8800    0.0000 H   0  0  0  0  0  0  0  0  0  0  0  0
   19.6305   -4.0369    0.0000 H   0  0  0  0  0  0  0  0  0  0  0  0
   19.8574   -3.1900    0.0000 H   0  0  0  0  0  0  0  0  0  0  0  0
   19.0105   -2.9631    0.0000 H   0  0  0  0  0  0  0  0  0  0  0  0
   18.7836   -6.8100    0.0000 H   0  0  0  0  0  0  0  0  0  0  0  0
   14.3704   -5.0000    0.0000 H   0  0  0  0  0  0  0  0  0  0  0  0
   14.9904   -5.6200    0.0000 H   0  0  0  0  0  0  0  0  0  0  0  0
   15.6104   -5.0000    0.0000 H   0  0  0  0  0  0  0  0  0  0  0  0
   13.5874   -3.8100    0.0000 H   0  0  0  0  0  0  0  0  0  0  0  0
    5.2087    4.8923    0.0000 H   0  0  0  0  0  0  0  0  0  0  0  0
    4.8101    5.5826    0.0000 H   0  0  0  0  0  0  0  0  0  0  0  0
    3.1215    5.6077    0.0000 H   0  0  0  0  0  0  0  0  0  0  0  0
    3.5200    4.9174    0.0000 H   0  0  0  0  0  0  0  0  0  0  0  0
   21.3626   -7.0369    0.0000 H   0  0  0  0  0  0  0  0  0  0  0  0
   21.5895   -6.1900    0.0000 H   0  0  0  0  0  0  0  0  0  0  0  0
   20.7426   -5.9631    0.0000 H   0  0  0  0  0  0  0  0  0  0  0  0
   19.5665   -8.0000    0.0000 H   0  0  0  0  0  0  0  0  0  0  0  0
   20.1865   -8.6200    0.0000 H   0  0  0  0  0  0  0  0  0  0  0  0
   20.8065   -8.0000    0.0000 H   0  0  0  0  0  0  0  0  0  0  0  0
    4.2690    6.8100    0.0000 H   0  0  0  0  0  0  0  0  0  0  0  0
   14.6613   -2.1900    0.0000 H   0  0  0  0  0  0  0  0  0  0  0  0
    3.4220    4.0369    0.0000 H   0  0  0  0  0  0  0  0  0  0  0  0
    3.1951    3.1900    0.0000 H   0  0  0  0  0  0  0  0  0  0  0  0
    4.0420    2.9631    0.0000 H   0  0  0  0  0  0  0  0  0  0  0  0
    5.4641    2.8800    0.0000 H   0  0  0  0  0  0  0  0  0  0  0  0
   12.7214   -2.3100    0.0000 H   0  0  0  0  0  0  0  0  0  0  0  0
    1.6900    7.0369    0.0000 H   0  0  0  0  0  0  0  0  0  0  0  0
    1.4631    6.1900    0.0000 H   0  0  0  0  0  0  0  0  0  0  0  0
    3.4860    8.0000    0.0000 H   0  0  0  0  0  0  0  0  0  0  0  0
    2.3100    5.9631    0.0000 H   0  0  0  0  0  0  0  0  0  0  0  0
    2.8660    8.6200    0.0000 H   0  0  0  0  0  0  0  0  0  0  0  0
    2.2460    8.0000    0.0000 H   0  0  0  0  0  0  0  0  0  0  0  0
    6.3301    4.6200    0.0000 H   0  0  0  0  0  0  0  0  0  0  0  0
    7.1962    2.8800    0.0000 H   0  0  0  0  0  0  0  0  0  0  0  0
   14.4344   -1.0369    0.0000 H   0  0  0  0  0  0  0  0  0  0  0  0
   14.6613   -0.1900    0.0000 H   0  0  0  0  0  0  0  0  0  0  0  0
   13.8144    0.0369    0.0000 H   0  0  0  0  0  0  0  0  0  0  0  0
   11.8554   -0.8100    0.0000 H   0  0  0  0  0  0  0  0  0  0  0  0
    8.9282    2.8800    0.0000 H   0  0  0  0  0  0  0  0  0  0  0  0
    8.6822    5.0000    0.0000 H   0  0  0  0  0  0  0  0  0  0  0  0
    8.0622    5.6200    0.0000 H   0  0  0  0  0  0  0  0  0  0  0  0
    7.4422    5.0000    0.0000 H   0  0  0  0  0  0  0  0  0  0  0  0
   12.9292    0.8100    0.0000 H   0  0  0  0  0  0  0  0  0  0  0  0
    9.7942    4.6200    0.0000 H   0  0  0  0  0  0  0  0  0  0  0  0
   10.9893    0.6900    0.0000 H   0  0  0  0  0  0  0  0  0  0  0  0
   11.1972    3.8100    0.0000 H   0  0  0  0  0  0  0  0  0  0  0  0
   12.0632    2.3100    0.0000 H   0  0  0  0  0  0  0  0  0  0  0  0
    9.4842    2.5369    0.0000 H   0  0  0  0  0  0  0  0  0  0  0  0
    9.2573    1.6900    0.0000 H   0  0  0  0  0  0  0  0  0  0  0  0
   10.1042    1.4631    0.0000 H   0  0  0  0  0  0  0  0  0  0  0  0
  1  2  1  0  0  0  0
  1  5  1  0  0  0  0
  1 41  1  0  0  0  0
  1 42  1  0  0  0  0
  2  6  2  0  0  0  0
  2  8  1  0  0  0  0
  3  4  1  0  0  0  0
  3  6  1  0  0  0  0
  3 43  1  0  0  0  0
  3 44  1  0  0  0  0
  4  7  1  0  0  0  0
  4 45  1  0  0  0  0
  4 46  1  0  0  0  0
  5  9  1  0  0  0  0
  5 47  1  0  0  0  0
  5 48  1  0  0  0  0
  6 49  1  0  0  0  0
  7 11  1  0  0  0  0
  7 12  2  0  0  0  0
  8 50  1  0  0  0  0
  8 51  1  0  0  0  0
  8 52  1  0  0  0  0
  9 10  2  0  0  0  0
  9 53  1  0  0  0  0
 10 16  1  0  0  0  0
 10 17  1  0  0  0  0
 11 54  1  0  0  0  0
 11 55  1  0  0  0  0
 11 56  1  0  0  0  0
 12 19  1  0  0  0  0
 12 57  1  0  0  0  0
 13 14  1  0  0  0  0
 13 15  1  0  0  0  0
 13 58  1  0  0  0  0
 13 59  1  0  0  0  0
 14 18  1  0  0  0  0
 14 60  1  0  0  0  0
 14 61  1  0  0  0  0
 15 21  1  0  0  0  0
 15 22  2  0  0  0  0
 16 65  1  0  0  0  0
 16 66  1  0  0  0  0
 16 67  1  0  0  0  0
 17 62  1  0  0  0  0
 17 63  1  0  0  0  0
 17 64  1  0  0  0  0
 18 20  2  0  0  0  0
 18 68  1  0  0  0  0
 19 23  2  0  0  0  0
 19 69  1  0  0  0  0
 20 24  1  0  0  0  0
 20 25  1  0  0  0  0
 21 70  1  0  0  0  0
 21 71  1  0  0  0  0
 21 72  1  0  0  0  0
 22 27  1  0  0  0  0
 22 73  1  0  0  0  0
 23 26  1  0  0  0  0
 23 74  1  0  0  0  0
 24 77  1  0  0  0  0
 24 79  1  0  0  0  0
 24 80  1  0  0  0  0
 25 75  1  0  0  0  0
 25 76  1  0  0  0  0
 25 78  1  0  0  0  0
 26 29  1  0  0  0  0
 26 31  2  0  0  0  0
 27 28  2  0  0  0  0
 27 81  1  0  0  0  0
 28 30  1  0  0  0  0
 28 82  1  0  0  0  0
 29 83  1  0  0  0  0
 29 84  1  0  0  0  0
 29 85  1  0  0  0  0
 30 32  2  0  0  0  0
 30 33  1  0  0  0  0
 31 34  1  0  0  0  0
 31 86  1  0  0  0  0
 32 35  1  0  0  0  0
 32 87  1  0  0  0  0
 33 88  1  0  0  0  0
 33 89  1  0  0  0  0
 33 90  1  0  0  0  0
 34 37  2  0  0  0  0
 34 91  1  0  0  0  0
 35 38  2  0  0  0  0
 35 92  1  0  0  0  0
 36 38  1  0  0  0  0
 36 39  2  0  0  0  0
 36 40  1  0  0  0  0
 37 39  1  0  0  0  0
 37 93  1  0  0  0  0
 38 94  1  0  0  0  0
 39 95  1  0  0  0  0
 40 96  1  0  0  0  0
 40 97  1  0  0  0  0
 40 98  1  0  0  0  0
M  END
>  <PUBCHEM_COMPOUND_CID>
131752544

>  <PUBCHEM_COMPOUND_CANONICALIZED>
1

>  <PUBCHEM_CACTVS_COMPLEXITY>
1100

>  <PUBCHEM_CACTVS_HBOND_ACCEPTOR>
0

>  <PUBCHEM_CACTVS_HBOND_DONOR>
0

>  <PUBCHEM_CACTVS_ROTATABLE_BOND>
17

>  <PUBCHEM_CACTVS_SUBSKEYS>
AAADcfB8AAAAAAAAAAAAAAAAAAAAAAAAAAAAAAAAAAAAAAAAAAAAGAAAAAAADACAAAACAAAAAACAAiBCAAAAAAAgAAAICAAAAAgIAAIAAQAAAAAAgAAIgAIAAAAAAAAAAAAAAAAAAAAAAAAAAAAAAAAAAA==

>  <PUBCHEM_IUPAC_OPENEYE_NAME>
(6Z,8E,10E,12Z,14E,16E,18E,20E,22Z,26Z)-2,6,10,14,19,23,27,31-octamethyldotriaconta-2,6,8,10,12,14,16,18,20,22,26,30-dodecaene

>  <PUBCHEM_IUPAC_CAS_NAME>
(6Z,8E,10E,12Z,14E,16E,18E,20E,22Z,26Z)-2,6,10,14,19,23,27,31-octamethyldotriaconta-2,6,8,10,12,14,16,18,20,22,26,30-dodecaene

>  <PUBCHEM_IUPAC_NAME>
(6Z,8E,10E,12Z,14E,16E,18E,20E,22Z,26Z)-2,6,10,14,19,23,27,31-octamethyldotriaconta-2,6,8,10,12,14,16,18,20,22,26,30-dodecaene

>  <PUBCHEM_IUPAC_SYSTEMATIC_NAME>
(6Z,8E,10E,12Z,14E,16E,18E,20E,22Z,26Z)-2,6,10,14,19,23,27,31-octamethyldotriaconta-2,6,8,10,12,14,16,18,20,22,26,30-dodecaene

>  <PUBCHEM_IUPAC_TRADITIONAL_NAME>
(6Z,8E,10E,12Z,14E,16E,18E,20E,22Z,26Z)-2,6,10,14,19,23,27,31-octamethyldotriaconta-2,6,8,10,12,14,16,18,20,22,26,30-dodecaene

>  <PUBCHEM_IUPAC_INCHI>
InChI=1S/C40H58/c1-33(2)19-13-23-37(7)27-17-31-39(9)29-15-25-35(5)21-11-12-22-36(6)26-16-30-40(10)32-18-28-38(8)24-14-20-34(3)4/h11-12,15-17,19-22,25-31H,13-14,18,23-24,32H2,1-10H3/b12-11+,25-15-,26-16+,31-17+,35-21+,36-22+,37-27-,38-28-,39-29+,40-30-

>  <PUBCHEM_IUPAC_INCHIKEY>
ATCICVFRSJQYDV-WFFXTUDTSA-N

>  <PUBCHEM_EXACT_MASS>
538.454

>  <PUBCHEM_MOLECULAR_FORMULA>
C40H58

>  <PUBCHEM_MOLECULAR_WEIGHT>
538.904

>  <PUBCHEM_OPENEYE_CAN_SMILES>
CC(=CCCC(=CCCC(=CC=CC(=CC=CC=C(C)C=CC=C(C)C=CC=C(C)CCC=C(C)C)C)C)C)C

>  <PUBCHEM_OPENEYE_ISO_SMILES>
CC(=CCC/C(=C\CC/C(=C\C=C\C(=C\C=C\C=C(/C)\C=C/C=C(\C)/C=C/C=C(/C)\CCC=C(C)C)\C)/C)/C)C

>  <PUBCHEM_CACTVS_TPSA>
0

>  <PUBCHEM_MONOISOTOPIC_WEIGHT>
538.454

>  <PUBCHEM_TOTAL_CHARGE>
0

>  <PUBCHEM_HEAVY_ATOM_COUNT>
40

>  <PUBCHEM_ATOM_DEF_STEREO_COUNT>
0

>  <PUBCHEM_ATOM_UDEF_STEREO_COUNT>
0

>  <PUBCHEM_BOND_DEF_STEREO_COUNT>
10

>  <PUBCHEM_BOND_UDEF_STEREO_COUNT>
0

>  <PUBCHEM_ISOTOPIC_ATOM_COUNT>
0

>  <PUBCHEM_COMPONENT_COUNT>
1

>  <PUBCHEM_CACTVS_TAUTO_COUNT>
1001

>  <PUBCHEM_COORDINATE_TYPE>
1
5
255

$$$$
