131752226
 OpenBabel06101807152D

 47 50  0  0  1  0  0  0  0  0999 V2000
    9.8984    0.6453    0.0000 O   0  0  0  0  0  0  0  0  0  0  0  0
    6.3624    0.6731    0.0000 O   0  0  0  0  0  0  0  0  0  0  0  0
    9.0005    3.2077    0.0000 O   0  0  0  0  0  0  0  0  0  0  0  0
    8.1224   -2.3615    0.0000 O   0  0  0  0  0  0  0  0  0  0  0  0
    6.3740   -2.3961    0.0000 O   0  0  0  0  0  0  0  0  0  0  0  0
    3.7205    0.1110    0.0000 O   0  0  0  0  0  0  0  0  0  0  0  0
    2.0000   -2.8957    0.0000 O   0  0  0  0  0  0  0  0  0  0  0  0
    9.9065    1.6869    0.0000 C   0  0  0  0  0  0  0  0  0  0  0  0
    9.0044    2.2077    0.0000 C   0  0  3  0  0  0  0  0  0  0  0  0
    8.1063    1.6800    0.0000 C   0  0  0  0  0  0  0  0  0  0  0  0
    8.1224    0.6385    0.0000 C   0  0  0  0  0  0  0  0  0  0  0  0
    8.9884    0.1385    0.0000 C   0  0  0  0  0  0  0  0  0  0  0  0
    7.2564    0.1385    0.0000 C   0  0  0  0  0  0  0  0  0  0  0  0
   10.4098    2.5510    0.0000 C   0  0  0  0  0  0  0  0  0  0  0  0
   10.9065    1.6831    0.0000 C   0  0  0  0  0  0  0  0  0  0  0  0
    7.2564   -0.8615    0.0000 C   0  0  0  0  0  0  0  0  0  0  0  0
    5.4564   -0.8823    0.0000 C   0  0  3  0  0  0  0  0  0  0  0  0
    5.4564    0.1593    0.0000 C   0  0  0  0  0  0  0  0  0  0  0  0
    6.3624   -1.3962    0.0000 C   0  0  0  0  0  0  0  0  0  0  0  0
    8.9884   -0.8615    0.0000 C   0  0  0  0  0  0  0  0  0  0  0  0
    8.1224   -1.3615    0.0000 C   0  0  0  0  0  0  0  0  0  0  0  0
    4.5923   -1.3857    0.0000 C   0  0  0  0  0  0  0  0  0  0  0  0
    3.7243   -0.8890    0.0000 C   0  0  0  0  0  0  0  0  0  0  0  0
    4.5961   -2.3857    0.0000 C   0  0  0  0  0  0  0  0  0  0  0  0
    2.8602   -1.3923    0.0000 C   0  0  0  0  0  0  0  0  0  0  0  0
    3.7320   -2.8890    0.0000 C   0  0  0  0  0  0  0  0  0  0  0  0
    2.8641   -2.3923    0.0000 C   0  0  0  0  0  0  0  0  0  0  0  0
    9.5407    2.5188    0.0000 H   0  0  0  0  0  0  0  0  0  0  0  0
    7.8883    2.2604    0.0000 H   0  0  0  0  0  0  0  0  0  0  0  0
    7.4972    1.5645    0.0000 H   0  0  0  0  0  0  0  0  0  0  0  0
   10.9041    1.0631    0.0000 H   0  0  0  0  0  0  0  0  0  0  0  0
   11.5264    1.6807    0.0000 H   0  0  0  0  0  0  0  0  0  0  0  0
   10.9455    2.2390    0.0000 H   0  0  0  0  0  0  0  0  0  0  0  0
   10.7219    3.0868    0.0000 H   0  0  0  0  0  0  0  0  0  0  0  0
    9.8740    2.8631    0.0000 H   0  0  0  0  0  0  0  0  0  0  0  0
   10.9088    2.3031    0.0000 H   0  0  0  0  0  0  0  0  0  0  0  0
    5.4600   -1.5023    0.0000 H   0  0  0  0  0  0  0  0  0  0  0  0
    5.2473    0.7430    0.0000 H   0  0  0  0  0  0  0  0  0  0  0  0
    4.8455    0.0532    0.0000 H   0  0  0  0  0  0  0  0  0  0  0  0
    9.5254   -1.1715    0.0000 H   0  0  0  0  0  0  0  0  0  0  0  0
    8.4624    3.5157    0.0000 H   0  0  0  0  0  0  0  0  0  0  0  0
    5.1343   -2.6936    0.0000 H   0  0  0  0  0  0  0  0  0  0  0  0
    8.6593   -2.6715    0.0000 H   0  0  0  0  0  0  0  0  0  0  0  0
    2.3221   -1.0844    0.0000 H   0  0  0  0  0  0  0  0  0  0  0  0
    3.7344   -3.5090    0.0000 H   0  0  0  0  0  0  0  0  0  0  0  0
    3.1824    0.4189    0.0000 H   0  0  0  0  0  0  0  0  0  0  0  0
    2.0024   -3.5157    0.0000 H   0  0  0  0  0  0  0  0  0  0  0  0
  1  8  1  0  0  0  0
  1 12  1  0  0  0  0
  2 13  1  0  0  0  0
  2 18  1  0  0  0  0
  3  9  1  0  0  0  0
  3 41  1  0  0  0  0
  4 21  1  0  0  0  0
  4 43  1  0  0  0  0
  5 19  2  0  0  0  0
  6 23  1  0  0  0  0
  6 46  1  0  0  0  0
  7 27  1  0  0  0  0
  7 47  1  0  0  0  0
  8  9  1  0  0  0  0
  8 14  1  0  0  0  0
  8 15  1  0  0  0  0
  9 10  1  0  0  0  0
  9 28  1  0  0  0  0
 10 11  1  0  0  0  0
 10 29  1  0  0  0  0
 10 30  1  0  0  0  0
 11 12  2  0  0  0  0
 11 13  1  0  0  0  0
 12 20  1  0  0  0  0
 13 16  2  0  0  0  0
 14 33  1  0  0  0  0
 14 34  1  0  0  0  0
 14 35  1  0  0  0  0
 15 31  1  0  0  0  0
 15 32  1  0  0  0  0
 15 36  1  0  0  0  0
 16 19  1  0  0  0  0
 16 21  1  0  0  0  0
 17 18  1  0  0  0  0
 17 19  1  0  0  0  0
 17 22  1  0  0  0  0
 17 37  1  0  0  0  0
 18 38  1  0  0  0  0
 18 39  1  0  0  0  0
 20 21  2  0  0  0  0
 20 40  1  0  0  0  0
 22 23  2  0  0  0  0
 22 24  1  0  0  0  0
 23 25  1  0  0  0  0
 24 26  2  0  0  0  0
 24 42  1  0  0  0  0
 25 27  2  0  0  0  0
 25 44  1  0  0  0  0
 26 27  1  0  0  0  0
 26 45  1  0  0  0  0
M  END
>  <PUBCHEM_COMPOUND_CID>
131752226

>  <PUBCHEM_COMPOUND_CANONICALIZED>
1

>  <PUBCHEM_CACTVS_COMPLEXITY>
579

>  <PUBCHEM_CACTVS_HBOND_ACCEPTOR>
7

>  <PUBCHEM_CACTVS_HBOND_DONOR>
4

>  <PUBCHEM_CACTVS_ROTATABLE_BOND>
1

>  <PUBCHEM_CACTVS_SUBSKEYS>
AAADceB4OAAAAAAAAAAAAAAAAAAAAAAAAAA0aIEAAAAAAACRQAAAGgAACAAADVSgmAIyBoAABgCIAqBSAAACCAAkIAAIiAEGCMgNNzaGNRqCeWCl4BULuQfK7PzOoAACCAAIAABAAAQQABAAAAAAAAAAAA==

>  <PUBCHEM_IUPAC_OPENEYE_NAME>
3-(2,4-dihydroxyphenyl)-5,9-dihydroxy-8,8-dimethyl-2,3,9,10-tetrahydropyrano[2,3-h]chromen-4-one

>  <PUBCHEM_IUPAC_CAS_NAME>
3-(2,4-dihydroxyphenyl)-5,9-dihydroxy-8,8-dimethyl-2,3,9,10-tetrahydropyrano[2,3-h][1]benzopyran-4-one

>  <PUBCHEM_IUPAC_NAME>
3-(2,4-dihydroxyphenyl)-5,9-dihydroxy-8,8-dimethyl-2,3,9,10-tetrahydropyrano[2,3-h]chromen-4-one

>  <PUBCHEM_IUPAC_SYSTEMATIC_NAME>
3-[2,4-bis(oxidanyl)phenyl]-8,8-dimethyl-5,9-bis(oxidanyl)-2,3,9,10-tetrahydropyrano[2,3-h]chromen-4-one

>  <PUBCHEM_IUPAC_TRADITIONAL_NAME>
3-(2,4-dihydroxyphenyl)-5,9-dihydroxy-8,8-dimethyl-2,3,9,10-tetrahydropyrano[2,3-h]chromen-4-one

>  <PUBCHEM_IUPAC_INCHI>
InChI=1S/C20H20O7/c1-20(2)16(24)6-11-15(27-20)7-14(23)17-18(25)12(8-26-19(11)17)10-4-3-9(21)5-13(10)22/h3-5,7,12,16,21-24H,6,8H2,1-2H3

>  <PUBCHEM_IUPAC_INCHIKEY>
YBSZKJGFDYIZGI-UHFFFAOYSA-N

>  <PUBCHEM_EXACT_MASS>
372.121

>  <PUBCHEM_MOLECULAR_FORMULA>
C20H20O7

>  <PUBCHEM_MOLECULAR_WEIGHT>
372.373

>  <PUBCHEM_OPENEYE_CAN_SMILES>
CC1(C(CC2=C3C(=C(C=C2O1)O)C(=O)C(CO3)C4=C(C=C(C=C4)O)O)O)C

>  <PUBCHEM_OPENEYE_ISO_SMILES>
CC1(C(CC2=C3C(=C(C=C2O1)O)C(=O)C(CO3)C4=C(C=C(C=C4)O)O)O)C

>  <PUBCHEM_CACTVS_TPSA>
116

>  <PUBCHEM_MONOISOTOPIC_WEIGHT>
372.121

>  <PUBCHEM_TOTAL_CHARGE>
0

>  <PUBCHEM_HEAVY_ATOM_COUNT>
27

>  <PUBCHEM_ATOM_DEF_STEREO_COUNT>
0

>  <PUBCHEM_ATOM_UDEF_STEREO_COUNT>
2

>  <PUBCHEM_BOND_DEF_STEREO_COUNT>
0

>  <PUBCHEM_BOND_UDEF_STEREO_COUNT>
0

>  <PUBCHEM_ISOTOPIC_ATOM_COUNT>
0

>  <PUBCHEM_COMPONENT_COUNT>
1

>  <PUBCHEM_CACTVS_TAUTO_COUNT>
122

>  <PUBCHEM_COORDINATE_TYPE>
1
5
255

>  <PUBCHEM_BONDANNOTATIONS>
11  12  8
11  13  8
12  20  8
13  16  8
16  21  8
17  22  3
20  21  8
22  23  8
22  24  8
23  25  8
24  26  8
25  27  8
26  27  8
9  3  3

$$$$
