131752608
 OpenBabel06101807152D

186195  0  0  1  0  0  0  0  0999 V2000
    7.7331    0.0251    0.0000 O   0  0  0  0  0  0  0  0  0  0  0  0
   16.7220    3.1649    0.0000 O   0  0  0  0  0  0  0  0  0  0  0  0
    9.5542   -1.7457    0.0000 O   0  0  0  0  0  0  0  0  0  0  0  0
    6.8671    1.5251    0.0000 O   0  0  0  0  0  0  0  0  0  0  0  0
   17.5881    4.6649    0.0000 O   0  0  0  0  0  0  0  0  0  0  0  0
    6.0010   -0.9749    0.0000 O   0  0  0  0  0  0  0  0  0  0  0  0
   18.4541    2.1649    0.0000 O   0  0  0  0  0  0  0  0  0  0  0  0
    4.2690    0.0251    0.0000 O   0  0  0  0  0  0  0  0  0  0  0  0
   20.1861    3.1649    0.0000 O   0  0  0  0  0  0  0  0  0  0  0  0
    4.2690    2.0251    0.0000 O   0  0  0  0  0  0  0  0  0  0  0  0
   20.1861    5.1649    0.0000 O   0  0  0  0  0  0  0  0  0  0  0  0
    4.2690   -0.9749    0.0000 O   0  0  0  0  0  0  0  0  0  0  0  0
   20.1861    2.1649    0.0000 O   0  0  0  0  0  0  0  0  0  0  0  0
   17.5881    6.6649    0.0000 O   0  0  0  0  0  0  0  0  0  0  0  0
    5.1350    3.5251    0.0000 O   0  0  0  0  0  0  0  0  0  0  0  0
    6.8671    3.5251    0.0000 O   0  0  0  0  0  0  0  0  0  0  0  0
    6.0010   -2.9749    0.0000 O   0  0  0  0  0  0  0  0  0  0  0  0
   18.4541    0.1649    0.0000 O   0  0  0  0  0  0  0  0  0  0  0  0
    4.2690   -3.9749    0.0000 O   0  0  0  0  0  0  0  0  0  0  0  0
   20.1861   -0.8351    0.0000 O   0  0  0  0  0  0  0  0  0  0  0  0
    2.5369   -2.9749    0.0000 O   0  0  0  0  0  0  0  0  0  0  0  0
   21.9182    0.1649    0.0000 O   0  0  0  0  0  0  0  0  0  0  0  0
    5.1350   -4.4749    0.0000 O   0  0  0  0  0  0  0  0  0  0  0  0
    2.5369    0.0251    0.0000 O   0  0  0  0  0  0  0  0  0  0  0  0
   22.7842    1.6649    0.0000 O   0  0  0  0  0  0  0  0  0  0  0  0
    7.7331   -3.9749    0.0000 O   0  0  0  0  0  0  0  0  0  0  0  0
    7.7331   -5.9749    0.0000 O   0  0  0  0  0  0  0  0  0  0  0  0
    6.0010   -6.9749    0.0000 O   0  0  0  0  0  0  0  0  0  0  0  0
   12.2541    1.5949    0.0000 C   0  0  3  0  0  0  0  0  0  0  0  0
   11.3862    2.0916    0.0000 C   0  0  3  0  0  0  0  0  0  0  0  0
   10.4781    1.5812    0.0000 C   0  0  3  0  0  0  0  0  0  0  0  0
   13.1182    2.0982    0.0000 C   0  0  3  0  0  0  0  0  0  0  0  0
   10.4741    0.5396    0.0000 C   0  0  3  0  0  0  0  0  0  0  0  0
   12.2742    0.5535    0.0000 C   0  0  0  0  0  0  0  0  0  0  0  0
   13.1144    3.0982    0.0000 C   0  0  0  0  0  0  0  0  0  0  0  0
    9.5408   -0.0137    0.0000 C   0  0  3  0  0  0  0  0  0  0  0  0
   11.3782    0.0223    0.0000 C   0  0  0  0  0  0  0  0  0  0  0  0
   14.0062    3.6363    0.0000 C   0  0  3  0  0  0  0  0  0  0  0  0
   14.9143    3.1260    0.0000 C   0  0  3  0  0  0  0  0  0  0  0  0
   14.0142    1.5670    0.0000 C   0  0  0  0  0  0  0  0  0  0  0  0
   11.3823    3.0916    0.0000 C   0  0  0  0  0  0  0  0  0  0  0  0
    9.5491    2.1417    0.0000 C   0  0  0  0  0  0  0  0  0  0  0  0
   14.9183    2.0844    0.0000 C   0  0  0  0  0  0  0  0  0  0  0  0
   12.8999    0.8313    0.0000 C   0  0  0  0  0  0  0  0  0  0  0  0
    8.5991    0.5251    0.0000 C   0  0  3  0  0  0  0  0  0  0  0  0
   12.2464    3.5949    0.0000 C   0  0  0  0  0  0  0  0  0  0  0  0
   10.4820    2.5812    0.0000 C   0  0  0  0  0  0  0  0  0  0  0  0
    8.6033    1.6101    0.0000 C   0  0  0  0  0  0  0  0  0  0  0  0
   13.4639    1.1599    0.0000 C   0  0  0  0  0  0  0  0  0  0  0  0
   13.9770    4.7209    0.0000 C   0  0  0  0  0  0  0  0  0  0  0  0
   15.8560    3.6649    0.0000 C   0  0  3  0  0  0  0  0  0  0  0  0
   14.9060    5.2814    0.0000 C   0  0  0  0  0  0  0  0  0  0  0  0
   15.8518    4.7498    0.0000 C   0  0  0  0  0  0  0  0  0  0  0  0
   10.0475   -0.8759    0.0000 C   0  0  0  0  0  0  0  0  0  0  0  0
    9.0475   -0.8836    0.0000 C   0  0  0  0  0  0  0  0  0  0  0  0
   15.7860    2.6360    0.0000 C   0  0  0  0  0  0  0  0  0  0  0  0
   15.3926    6.1551    0.0000 C   0  0  0  0  0  0  0  0  0  0  0  0
   14.3927    6.1397    0.0000 C   0  0  0  0  0  0  0  0  0  0  0  0
    6.8671    0.5251    0.0000 C   0  0  3  0  0  0  0  0  0  0  0  0
   17.5881    3.6649    0.0000 C   0  0  3  0  0  0  0  0  0  0  0  0
    6.0010    0.0251    0.0000 C   0  0  3  0  0  0  0  0  0  0  0  0
   18.4541    3.1649    0.0000 C   0  0  3  0  0  0  0  0  0  0  0  0
    5.1350    0.5251    0.0000 C   0  0  3  0  0  0  0  0  0  0  0  0
   19.3201    3.6649    0.0000 C   0  0  3  0  0  0  0  0  0  0  0  0
    6.0010    2.0251    0.0000 C   0  0  3  0  0  0  0  0  0  0  0  0
    5.1350    1.5251    0.0000 C   0  0  3  0  0  0  0  0  0  0  0  0
   18.4541    5.1649    0.0000 C   0  0  3  0  0  0  0  0  0  0  0  0
   19.3201    4.6649    0.0000 C   0  0  3  0  0  0  0  0  0  0  0  0
   18.4541    6.1649    0.0000 C   0  0  0  0  0  0  0  0  0  0  0  0
    5.1350   -1.4749    0.0000 C   0  0  3  0  0  0  0  0  0  0  0  0
    6.0010    3.0251    0.0000 C   0  0  0  0  0  0  0  0  0  0  0  0
   19.3201    1.6649    0.0000 C   0  0  3  0  0  0  0  0  0  0  0  0
    5.1350   -2.4749    0.0000 C   0  0  3  0  0  0  0  0  0  0  0  0
   19.3201    0.6649    0.0000 C   0  0  3  0  0  0  0  0  0  0  0  0
    4.2690   -2.9749    0.0000 C   0  0  3  0  0  0  0  0  0  0  0  0
    3.4030   -1.4749    0.0000 C   0  0  3  0  0  0  0  0  0  0  0  0
   20.1861    0.1649    0.0000 C   0  0  3  0  0  0  0  0  0  0  0  0
    3.4030   -2.4749    0.0000 C   0  0  3  0  0  0  0  0  0  0  0  0
   21.0522    1.6649    0.0000 C   0  0  3  0  0  0  0  0  0  0  0  0
   21.0522    0.6649    0.0000 C   0  0  3  0  0  0  0  0  0  0  0  0
    2.5369   -0.9749    0.0000 C   0  0  0  0  0  0  0  0  0  0  0  0
   21.9182    2.1649    0.0000 C   0  0  0  0  0  0  0  0  0  0  0  0
    6.0010   -3.9749    0.0000 C   0  0  3  0  0  0  0  0  0  0  0  0
    6.8671   -4.4749    0.0000 C   0  0  3  0  0  0  0  0  0  0  0  0
    6.8671   -5.4749    0.0000 C   0  0  3  0  0  0  0  0  0  0  0  0
    5.1350   -5.4749    0.0000 C   0  0  3  0  0  0  0  0  0  0  0  0
    6.0010   -5.9749    0.0000 C   0  0  3  0  0  0  0  0  0  0  0  0
    4.2690   -5.9749    0.0000 C   0  0  0  0  0  0  0  0  0  0  0  0
   11.9219    2.4036    0.0000 H   0  0  0  0  0  0  0  0  0  0  0  0
   10.4789   -0.0804    0.0000 H   0  0  0  0  0  0  0  0  0  0  0  0
   12.4945   -0.0261    0.0000 H   0  0  0  0  0  0  0  0  0  0  0  0
   12.8829    0.6713    0.0000 H   0  0  0  0  0  0  0  0  0  0  0  0
   10.9827   -0.4552    0.0000 H   0  0  0  0  0  0  0  0  0  0  0  0
   11.7810   -0.4491    0.0000 H   0  0  0  0  0  0  0  0  0  0  0  0
   14.5371    3.9566    0.0000 H   0  0  0  0  0  0  0  0  0  0  0  0
   13.6114    1.0957    0.0000 H   0  0  0  0  0  0  0  0  0  0  0  0
   14.4097    1.0895    0.0000 H   0  0  0  0  0  0  0  0  0  0  0  0
   11.1680    3.6734    0.0000 H   0  0  0  0  0  0  0  0  0  0  0  0
   10.7722    2.9815    0.0000 H   0  0  0  0  0  0  0  0  0  0  0  0
    9.9555    2.6100    0.0000 H   0  0  0  0  0  0  0  0  0  0  0  0
    9.1574    2.6223    0.0000 H   0  0  0  0  0  0  0  0  0  0  0  0
   15.1296    1.5015    0.0000 H   0  0  0  0  0  0  0  0  0  0  0  0
   15.5287    2.1928    0.0000 H   0  0  0  0  0  0  0  0  0  0  0  0
   12.4265    0.4310    0.0000 H   0  0  0  0  0  0  0  0  0  0  0  0
   13.3002    0.3579    0.0000 H   0  0  0  0  0  0  0  0  0  0  0  0
   13.3733    1.2317    0.0000 H   0  0  0  0  0  0  0  0  0  0  0  0
    8.0628    0.8362    0.0000 H   0  0  0  0  0  0  0  0  0  0  0  0
   12.2440    4.2149    0.0000 H   0  0  0  0  0  0  0  0  0  0  0  0
   11.1020    2.5788    0.0000 H   0  0  0  0  0  0  0  0  0  0  0  0
   10.4844    3.2012    0.0000 H   0  0  0  0  0  0  0  0  0  0  0  0
    9.8620    2.5836    0.0000 H   0  0  0  0  0  0  0  0  0  0  0  0
    8.3965    2.1946    0.0000 H   0  0  0  0  0  0  0  0  0  0  0  0
    7.9920    1.5064    0.0000 H   0  0  0  0  0  0  0  0  0  0  0  0
   12.8821    0.9456    0.0000 H   0  0  0  0  0  0  0  0  0  0  0  0
   13.6782    0.5781    0.0000 H   0  0  0  0  0  0  0  0  0  0  0  0
   14.0456    1.3742    0.0000 H   0  0  0  0  0  0  0  0  0  0  0  0
   13.7522    5.2988    0.0000 H   0  0  0  0  0  0  0  0  0  0  0  0
   13.3692    4.5984    0.0000 H   0  0  0  0  0  0  0  0  0  0  0  0
   16.3923    3.9759    0.0000 H   0  0  0  0  0  0  0  0  0  0  0  0
   16.4631    4.6461    0.0000 H   0  0  0  0  0  0  0  0  0  0  0  0
   16.0586    5.3343    0.0000 H   0  0  0  0  0  0  0  0  0  0  0  0
   10.5255   -1.2707    0.0000 H   0  0  0  0  0  0  0  0  0  0  0  0
   10.5194   -0.4737    0.0000 H   0  0  0  0  0  0  0  0  0  0  0  0
    8.5082   -0.5777    0.0000 H   0  0  0  0  0  0  0  0  0  0  0  0
    8.7417   -1.4229    0.0000 H   0  0  0  0  0  0  0  0  0  0  0  0
    9.5868   -1.1894    0.0000 H   0  0  0  0  0  0  0  0  0  0  0  0
   15.4823    2.0955    0.0000 H   0  0  0  0  0  0  0  0  0  0  0  0
   16.3265    2.3323    0.0000 H   0  0  0  0  0  0  0  0  0  0  0  0
   16.0898    3.1765    0.0000 H   0  0  0  0  0  0  0  0  0  0  0  0
   15.9342    5.8534    0.0000 H   0  0  0  0  0  0  0  0  0  0  0  0
   15.6942    6.6967    0.0000 H   0  0  0  0  0  0  0  0  0  0  0  0
   14.8509    6.4568    0.0000 H   0  0  0  0  0  0  0  0  0  0  0  0
   14.9248    6.4579    0.0000 H   0  0  0  0  0  0  0  0  0  0  0  0
   14.0744    6.6718    0.0000 H   0  0  0  0  0  0  0  0  0  0  0  0
   13.8606    5.8214    0.0000 H   0  0  0  0  0  0  0  0  0  0  0  0
    6.8671   -0.0949    0.0000 H   0  0  0  0  0  0  0  0  0  0  0  0
    9.8683   -2.2803    0.0000 H   0  0  0  0  0  0  0  0  0  0  0  0
   17.0511    3.9749    0.0000 H   0  0  0  0  0  0  0  0  0  0  0  0
    5.4641   -0.2849    0.0000 H   0  0  0  0  0  0  0  0  0  0  0  0
   17.9171    2.8549    0.0000 H   0  0  0  0  0  0  0  0  0  0  0  0
    4.5981    0.8351    0.0000 H   0  0  0  0  0  0  0  0  0  0  0  0
   19.3201    3.0449    0.0000 H   0  0  0  0  0  0  0  0  0  0  0  0
    6.5380    2.3351    0.0000 H   0  0  0  0  0  0  0  0  0  0  0  0
    5.1350    2.1451    0.0000 H   0  0  0  0  0  0  0  0  0  0  0  0
   17.9171    5.4749    0.0000 H   0  0  0  0  0  0  0  0  0  0  0  0
   19.3201    5.2849    0.0000 H   0  0  0  0  0  0  0  0  0  0  0  0
   19.0647    6.0572    0.0000 H   0  0  0  0  0  0  0  0  0  0  0  0
   18.6661    6.7475    0.0000 H   0  0  0  0  0  0  0  0  0  0  0  0
    5.1350   -0.8549    0.0000 H   0  0  0  0  0  0  0  0  0  0  0  0
    3.7320    0.3351    0.0000 H   0  0  0  0  0  0  0  0  0  0  0  0
   19.3201    2.2849    0.0000 H   0  0  0  0  0  0  0  0  0  0  0  0
   20.7231    3.4749    0.0000 H   0  0  0  0  0  0  0  0  0  0  0  0
    4.2690    2.6451    0.0000 H   0  0  0  0  0  0  0  0  0  0  0  0
   20.1861    5.7849    0.0000 H   0  0  0  0  0  0  0  0  0  0  0  0
    5.1350   -3.0949    0.0000 H   0  0  0  0  0  0  0  0  0  0  0  0
   19.3201    0.0449    0.0000 H   0  0  0  0  0  0  0  0  0  0  0  0
    3.7320   -3.2849    0.0000 H   0  0  0  0  0  0  0  0  0  0  0  0
   17.5881    7.2849    0.0000 H   0  0  0  0  0  0  0  0  0  0  0  0
    3.4030   -0.8549    0.0000 H   0  0  0  0  0  0  0  0  0  0  0  0
   20.7231   -0.1451    0.0000 H   0  0  0  0  0  0  0  0  0  0  0  0
    5.1350    4.1451    0.0000 H   0  0  0  0  0  0  0  0  0  0  0  0
    3.4030   -3.0949    0.0000 H   0  0  0  0  0  0  0  0  0  0  0  0
   21.0522    2.2849    0.0000 H   0  0  0  0  0  0  0  0  0  0  0  0
   21.5891    0.9749    0.0000 H   0  0  0  0  0  0  0  0  0  0  0  0
   18.4541   -0.4551    0.0000 H   0  0  0  0  0  0  0  0  0  0  0  0
    1.9264   -0.8672    0.0000 H   0  0  0  0  0  0  0  0  0  0  0  0
    2.3249   -1.5575    0.0000 H   0  0  0  0  0  0  0  0  0  0  0  0
   22.3167    2.6398    0.0000 H   0  0  0  0  0  0  0  0  0  0  0  0
   21.5196    2.6398    0.0000 H   0  0  0  0  0  0  0  0  0  0  0  0
    6.5380   -3.6649    0.0000 H   0  0  0  0  0  0  0  0  0  0  0  0
    3.7320   -4.2849    0.0000 H   0  0  0  0  0  0  0  0  0  0  0  0
   20.7231   -1.1451    0.0000 H   0  0  0  0  0  0  0  0  0  0  0  0
    2.0000   -2.6649    0.0000 H   0  0  0  0  0  0  0  0  0  0  0  0
   21.9182   -0.4551    0.0000 H   0  0  0  0  0  0  0  0  0  0  0  0
    7.4040   -4.7849    0.0000 H   0  0  0  0  0  0  0  0  0  0  0  0
    2.0000    0.3351    0.0000 H   0  0  0  0  0  0  0  0  0  0  0  0
    6.8671   -6.0949    0.0000 H   0  0  0  0  0  0  0  0  0  0  0  0
   23.3211    1.9749    0.0000 H   0  0  0  0  0  0  0  0  0  0  0  0
    4.5981   -5.1649    0.0000 H   0  0  0  0  0  0  0  0  0  0  0  0
    6.5380   -6.2849    0.0000 H   0  0  0  0  0  0  0  0  0  0  0  0
    8.2700   -4.2849    0.0000 H   0  0  0  0  0  0  0  0  0  0  0  0
    3.9590   -5.4379    0.0000 H   0  0  0  0  0  0  0  0  0  0  0  0
    3.7320   -6.2849    0.0000 H   0  0  0  0  0  0  0  0  0  0  0  0
    4.5790   -6.5118    0.0000 H   0  0  0  0  0  0  0  0  0  0  0  0
    7.7331   -6.5949    0.0000 H   0  0  0  0  0  0  0  0  0  0  0  0
    5.4641   -7.2849    0.0000 H   0  0  0  0  0  0  0  0  0  0  0  0
  1 45  1  0  0  0  0
  1 59  1  0  0  0  0
  2 51  1  0  0  0  0
  2 60  1  0  0  0  0
  3 54  1  0  0  0  0
  3137  1  0  0  0  0
  4 59  1  0  0  0  0
  4 65  1  0  0  0  0
  5 60  1  0  0  0  0
  5 67  1  0  0  0  0
  6 61  1  0  0  0  0
  6 70  1  0  0  0  0
  7 62  1  0  0  0  0
  7 72  1  0  0  0  0
  8 63  1  0  0  0  0
  8150  1  0  0  0  0
  9 64  1  0  0  0  0
  9152  1  0  0  0  0
 10 66  1  0  0  0  0
 10153  1  0  0  0  0
 11 68  1  0  0  0  0
 11154  1  0  0  0  0
 12 70  1  0  0  0  0
 12 76  1  0  0  0  0
 13 72  1  0  0  0  0
 13 79  1  0  0  0  0
 14 69  1  0  0  0  0
 14158  1  0  0  0  0
 15 71  1  0  0  0  0
 15161  1  0  0  0  0
 16 71  2  0  0  0  0
 17 73  1  0  0  0  0
 17 83  1  0  0  0  0
 18 74  1  0  0  0  0
 18165  1  0  0  0  0
 19 75  1  0  0  0  0
 19171  1  0  0  0  0
 20 77  1  0  0  0  0
 20172  1  0  0  0  0
 21 78  1  0  0  0  0
 21173  1  0  0  0  0
 22 80  1  0  0  0  0
 22174  1  0  0  0  0
 23 83  1  0  0  0  0
 23 86  1  0  0  0  0
 24 81  1  0  0  0  0
 24176  1  0  0  0  0
 25 82  1  0  0  0  0
 25178  1  0  0  0  0
 26 84  1  0  0  0  0
 26181  1  0  0  0  0
 27 85  1  0  0  0  0
 27185  1  0  0  0  0
 28 87  1  0  0  0  0
 28186  1  0  0  0  0
 29 30  1  0  0  0  0
 29 32  1  0  0  0  0
 29 34  1  0  0  0  0
 29 44  1  0  0  0  0
 30 31  1  0  0  0  0
 30 41  1  0  0  0  0
 30 89  1  0  0  0  0
 31 33  1  0  0  0  0
 31 42  1  0  0  0  0
 31 47  1  0  0  0  0
 32 35  1  0  0  0  0
 32 40  1  0  0  0  0
 32 49  1  0  0  0  0
 33 36  1  0  0  0  0
 33 37  1  0  0  0  0
 33 90  1  0  0  0  0
 34 37  1  0  0  0  0
 34 91  1  0  0  0  0
 34 92  1  0  0  0  0
 35 38  1  0  0  0  0
 35 46  2  0  0  0  0
 36 45  1  0  0  0  0
 36 54  1  0  0  0  0
 36 55  1  0  0  0  0
 37 93  1  0  0  0  0
 37 94  1  0  0  0  0
 38 39  1  0  0  0  0
 38 50  1  0  0  0  0
 38 95  1  0  0  0  0
 39 43  1  0  0  0  0
 39 51  1  0  0  0  0
 39 56  1  0  0  0  0
 40 43  1  0  0  0  0
 40 96  1  0  0  0  0
 40 97  1  0  0  0  0
 41 46  1  0  0  0  0
 41 98  1  0  0  0  0
 41 99  1  0  0  0  0
 42 48  1  0  0  0  0
 42100  1  0  0  0  0
 42101  1  0  0  0  0
 43102  1  0  0  0  0
 43103  1  0  0  0  0
 44104  1  0  0  0  0
 44105  1  0  0  0  0
 44106  1  0  0  0  0
 45 48  1  0  0  0  0
 45107  1  0  0  0  0
 46108  1  0  0  0  0
 47109  1  0  0  0  0
 47110  1  0  0  0  0
 47111  1  0  0  0  0
 48112  1  0  0  0  0
 48113  1  0  0  0  0
 49114  1  0  0  0  0
 49115  1  0  0  0  0
 49116  1  0  0  0  0
 50 52  1  0  0  0  0
 50117  1  0  0  0  0
 50118  1  0  0  0  0
 51 53  1  0  0  0  0
 51119  1  0  0  0  0
 52 53  1  0  0  0  0
 52 57  1  0  0  0  0
 52 58  1  0  0  0  0
 53120  1  0  0  0  0
 53121  1  0  0  0  0
 54122  1  0  0  0  0
 54123  1  0  0  0  0
 55124  1  0  0  0  0
 55125  1  0  0  0  0
 55126  1  0  0  0  0
 56127  1  0  0  0  0
 56128  1  0  0  0  0
 56129  1  0  0  0  0
 57130  1  0  0  0  0
 57131  1  0  0  0  0
 57132  1  0  0  0  0
 58133  1  0  0  0  0
 58134  1  0  0  0  0
 58135  1  0  0  0  0
 59 61  1  0  0  0  0
 59136  1  0  0  0  0
 60 62  1  0  0  0  0
 60138  1  0  0  0  0
 61 63  1  0  0  0  0
 61139  1  0  0  0  0
 62 64  1  0  0  0  0
 62140  1  0  0  0  0
 63 66  1  0  0  0  0
 63141  1  0  0  0  0
 64 68  1  0  0  0  0
 64142  1  0  0  0  0
 65 66  1  0  0  0  0
 65 71  1  0  0  0  0
 65143  1  0  0  0  0
 66144  1  0  0  0  0
 67 68  1  0  0  0  0
 67 69  1  0  0  0  0
 67145  1  0  0  0  0
 68146  1  0  0  0  0
 69147  1  0  0  0  0
 69148  1  0  0  0  0
 70 73  1  0  0  0  0
 70149  1  0  0  0  0
 72 74  1  0  0  0  0
 72151  1  0  0  0  0
 73 75  1  0  0  0  0
 73155  1  0  0  0  0
 74 77  1  0  0  0  0
 74156  1  0  0  0  0
 75 78  1  0  0  0  0
 75157  1  0  0  0  0
 76 78  1  0  0  0  0
 76 81  1  0  0  0  0
 76159  1  0  0  0  0
 77 80  1  0  0  0  0
 77160  1  0  0  0  0
 78162  1  0  0  0  0
 79 80  1  0  0  0  0
 79 82  1  0  0  0  0
 79163  1  0  0  0  0
 80164  1  0  0  0  0
 81166  1  0  0  0  0
 81167  1  0  0  0  0
 82168  1  0  0  0  0
 82169  1  0  0  0  0
 83 84  1  0  0  0  0
 83170  1  0  0  0  0
 84 85  1  0  0  0  0
 84175  1  0  0  0  0
 85 87  1  0  0  0  0
 85177  1  0  0  0  0
 86 87  1  0  0  0  0
 86 88  1  0  0  0  0
 86179  1  0  0  0  0
 87180  1  0  0  0  0
 88182  1  0  0  0  0
 88183  1  0  0  0  0
 88184  1  0  0  0  0
M  END
>  <PUBCHEM_COMPOUND_CID>
131752608

>  <PUBCHEM_COMPOUND_CANONICALIZED>
1

>  <PUBCHEM_CACTVS_COMPLEXITY>
2460

>  <PUBCHEM_CACTVS_HBOND_ACCEPTOR>
28

>  <PUBCHEM_CACTVS_HBOND_DONOR>
17

>  <PUBCHEM_CACTVS_ROTATABLE_BOND>
15

>  <PUBCHEM_CACTVS_SUBSKEYS>
AAADcfB8PgAAAAAAAAAAAAAAAAAAAAAAAAA0aNGiQAAAAADAAAAAGgAACAAADxSwgAMCCAAABgCIAiDSCAIAAAAgAAAACAFAAAgREBYAAQQiQAAFoAAPAAPK7PxPgAAAAAAAAADAAAYAADAAAAAAAAAAAA==

>  <PUBCHEM_IUPAC_OPENEYE_NAME>
6-[[9-[4,5-dihydroxy-6-(hydroxymethyl)-3-[3,4,5-trihydroxy-6-(hydroxymethyl)tetrahydropyran-2-yl]oxy-tetrahydropyran-2-yl]oxy-4-(hydroxymethyl)-4,6a,6b,8a,11,11,14b-heptamethyl-1,2,3,4a,5,6,7,8,9,10,12,12a,14,14a-tetradecahydropicen-3-yl]oxy]-5-[4,5-dihydroxy-6-(hydroxymethyl)-3-(3,4,5-trihydroxy-6-methyl-tetrahydropyran-2-yl)oxy-tetrahydropyran-2-yl]oxy-3,4-dihydroxy-tetrahydropyran-2-carboxylic acid

>  <PUBCHEM_IUPAC_CAS_NAME>
6-[[9-[[4,5-dihydroxy-6-(hydroxymethyl)-3-[[3,4,5-trihydroxy-6-(hydroxymethyl)-2-oxanyl]oxy]-2-oxanyl]oxy]-4-(hydroxymethyl)-4,6a,6b,8a,11,11,14b-heptamethyl-1,2,3,4a,5,6,7,8,9,10,12,12a,14,14a-tetradecahydropicen-3-yl]oxy]-5-[[4,5-dihydroxy-6-(hydroxymethyl)-3-[(3,4,5-trihydroxy-6-methyl-2-oxanyl)oxy]-2-oxanyl]oxy]-3,4-dihydroxy-2-oxanecarboxylic acid

>  <PUBCHEM_IUPAC_NAME>
6-[[9-[4,5-dihydroxy-6-(hydroxymethyl)-3-[3,4,5-trihydroxy-6-(hydroxymethyl)oxan-2-yl]oxyoxan-2-yl]oxy-4-(hydroxymethyl)-4,6a,6b,8a,11,11,14b-heptamethyl-1,2,3,4a,5,6,7,8,9,10,12,12a,14,14a-tetradecahydropicen-3-yl]oxy]-5-[4,5-dihydroxy-6-(hydroxymethyl)-3-(3,4,5-trihydroxy-6-methyloxan-2-yl)oxyoxan-2-yl]oxy-3,4-dihydroxyoxane-2-carboxylic acid

>  <PUBCHEM_IUPAC_SYSTEMATIC_NAME>
6-[[4-(hydroxymethyl)-9-[6-(hydroxymethyl)-3-[6-(hydroxymethyl)-3,4,5-tris(oxidanyl)oxan-2-yl]oxy-4,5-bis(oxidanyl)oxan-2-yl]oxy-4,6a,6b,8a,11,11,14b-heptamethyl-1,2,3,4a,5,6,7,8,9,10,12,12a,14,14a-tetradecahydropicen-3-yl]oxy]-5-[6-(hydroxymethyl)-3-[6-methyl-3,4,5-tris(oxidanyl)oxan-2-yl]oxy-4,5-bis(oxidanyl)oxan-2-yl]oxy-3,4-bis(oxidanyl)oxane-2-carboxylic acid

>  <PUBCHEM_IUPAC_TRADITIONAL_NAME>
6-[[9-[4,5-dihydroxy-6-methylol-3-(3,4,5-trihydroxy-6-methylol-tetrahydropyran-2-yl)oxy-tetrahydropyran-2-yl]oxy-4,6a,6b,8a,11,11,14b-heptamethyl-4-methylol-1,2,3,4a,5,6,7,8,9,10,12,12a,14,14a-tetradecahydropicen-3-yl]oxy]-5-[4,5-dihydroxy-6-methylol-3-(3,4,5-trihydroxy-6-methyl-tetrahydropyran-2-yl)oxy-tetrahydropyran-2-yl]oxy-3,4-dihydroxy-tetrahydropyran-2-carboxylic acid

>  <PUBCHEM_IUPAC_INCHI>
InChI=1S/C60H98O28/c1-23-33(65)37(69)43(75)50(79-23)86-47-40(72)36(68)28(21-63)82-53(47)88-48-42(74)41(73)45(49(77)78)85-54(48)83-31-12-13-57(5)29(58(31,6)22-64)11-14-60(8)30(57)10-9-24-25-17-55(2,3)18-32(56(25,4)15-16-59(24,60)7)84-52-46(39(71)35(67)27(20-62)81-52)87-51-44(76)38(70)34(66)26(19-61)80-51/h9,23,25-48,50-54,61-76H,10-22H2,1-8H3,(H,77,78)

>  <PUBCHEM_IUPAC_INCHIKEY>
OGJALRFDUFLIDX-UHFFFAOYSA-N

>  <PUBCHEM_EXACT_MASS>
1266.624

>  <PUBCHEM_MOLECULAR_FORMULA>
C60H98O28

>  <PUBCHEM_MOLECULAR_WEIGHT>
1267.416

>  <PUBCHEM_OPENEYE_CAN_SMILES>
CC1C(C(C(C(O1)OC2C(C(C(OC2OC3C(C(C(OC3OC4CCC5(C(C4(C)CO)CCC6(C5CC=C7C6(CCC8(C7CC(CC8OC9C(C(C(C(O9)CO)O)O)OC1C(C(C(C(O1)CO)O)O)O)(C)C)C)C)C)C)C(=O)O)O)O)CO)O)O)O)O)O

>  <PUBCHEM_OPENEYE_ISO_SMILES>
CC1C(C(C(C(O1)OC2C(C(C(OC2OC3C(C(C(OC3OC4CCC5(C(C4(C)CO)CCC6(C5CC=C7C6(CCC8(C7CC(CC8OC9C(C(C(C(O9)CO)O)O)OC1C(C(C(C(O1)CO)O)O)O)(C)C)C)C)C)C)C(=O)O)O)O)CO)O)O)O)O)O

>  <PUBCHEM_CACTVS_TPSA>
453

>  <PUBCHEM_MONOISOTOPIC_WEIGHT>
1266.624

>  <PUBCHEM_TOTAL_CHARGE>
0

>  <PUBCHEM_HEAVY_ATOM_COUNT>
88

>  <PUBCHEM_ATOM_DEF_STEREO_COUNT>
0

>  <PUBCHEM_ATOM_UDEF_STEREO_COUNT>
35

>  <PUBCHEM_BOND_DEF_STEREO_COUNT>
0

>  <PUBCHEM_BOND_UDEF_STEREO_COUNT>
0

>  <PUBCHEM_ISOTOPIC_ATOM_COUNT>
0

>  <PUBCHEM_COMPONENT_COUNT>
1

>  <PUBCHEM_CACTVS_TAUTO_COUNT>
1

>  <PUBCHEM_COORDINATE_TYPE>
1
5
255

>  <PUBCHEM_BONDANNOTATIONS>
45  1  3
59  1  3
66  10  3
68  11  3
73  17  3
83  17  3
74  18  3
75  19  3
51  2  3
60  2  3
77  20  3
78  21  3
80  22  3
84  26  3
85  27  3
87  28  3
29  44  3
30  41  3
31  47  3
32  49  3
33  37  3
36  55  3
38  50  3
39  56  3
61  6  3
70  6  3
65  71  3
67  69  3
62  7  3
72  7  3
76  81  3
79  82  3
63  8  3
86  88  3
64  9  3

$$$$
