131752394
 OpenBabel06101807152D

139138  0  0  1  0  0  0  0  0999 V2000
   27.9808    7.9400    0.0000 O   0  0  0  0  0  0  0  0  0  0  0  0
    6.3301   -7.5600    0.0000 C   0  0  3  0  0  0  0  0  0  0  0  0
    7.1962   -7.0600    0.0000 C   0  0  0  0  0  0  0  0  0  0  0  0
    8.0622   -7.5600    0.0000 C   0  0  0  0  0  0  0  0  0  0  0  0
    9.7942   -7.5600    0.0000 C   0  0  3  0  0  0  0  0  0  0  0  0
    8.9282   -7.0600    0.0000 C   0  0  0  0  0  0  0  0  0  0  0  0
    5.4641   -7.0600    0.0000 C   0  0  0  0  0  0  0  0  0  0  0  0
   10.6603   -7.0600    0.0000 C   0  0  0  0  0  0  0  0  0  0  0  0
    4.5981   -7.5600    0.0000 C   0  0  0  0  0  0  0  0  0  0  0  0
    3.7320   -7.0600    0.0000 C   0  0  0  0  0  0  0  0  0  0  0  0
    6.3301   -8.5600    0.0000 C   0  0  0  0  0  0  0  0  0  0  0  0
   11.5263   -7.5600    0.0000 C   0  0  0  0  0  0  0  0  0  0  0  0
    9.7942   -8.5600    0.0000 C   0  0  0  0  0  0  0  0  0  0  0  0
    2.8660   -7.5600    0.0000 C   0  0  0  0  0  0  0  0  0  0  0  0
   12.3923   -7.0600    0.0000 C   0  0  0  0  0  0  0  0  0  0  0  0
    2.0000   -7.0600    0.0000 C   0  0  0  0  0  0  0  0  0  0  0  0
    2.8660   -8.5600    0.0000 C   0  0  0  0  0  0  0  0  0  0  0  0
   13.2583   -7.5600    0.0000 C   0  0  0  0  0  0  0  0  0  0  0  0
   14.1244   -7.0600    0.0000 C   0  0  0  0  0  0  0  0  0  0  0  0
   13.2583   -8.5600    0.0000 C   0  0  0  0  0  0  0  0  0  0  0  0
   14.9904   -7.5600    0.0000 C   0  0  0  0  0  0  0  0  0  0  0  0
   15.8564   -7.0600    0.0000 C   0  0  0  0  0  0  0  0  0  0  0  0
   16.7224   -7.5600    0.0000 C   0  0  0  0  0  0  0  0  0  0  0  0
   17.5885   -7.0600    0.0000 C   0  0  0  0  0  0  0  0  0  0  0  0
   16.7224   -8.5600    0.0000 C   0  0  0  0  0  0  0  0  0  0  0  0
   17.5885   -6.0600    0.0000 C   0  0  0  0  0  0  0  0  0  0  0  0
   18.4545   -5.5600    0.0000 C   0  0  0  0  0  0  0  0  0  0  0  0
   18.4545   -4.5600    0.0000 C   0  0  0  0  0  0  0  0  0  0  0  0
   19.3205   -4.0600    0.0000 C   0  0  0  0  0  0  0  0  0  0  0  0
   19.3205   -3.0600    0.0000 C   0  0  0  0  0  0  0  0  0  0  0  0
   20.1865   -2.5600    0.0000 C   0  0  0  0  0  0  0  0  0  0  0  0
   17.5885   -4.0600    0.0000 C   0  0  0  0  0  0  0  0  0  0  0  0
   20.1865   -1.5600    0.0000 C   0  0  0  0  0  0  0  0  0  0  0  0
   21.0526   -0.0600    0.0000 C   0  0  0  0  0  0  0  0  0  0  0  0
   21.9186    0.4400    0.0000 C   0  0  0  0  0  0  0  0  0  0  0  0
   21.0526   -1.0600    0.0000 C   0  0  0  0  0  0  0  0  0  0  0  0
   21.9186    1.4400    0.0000 C   0  0  0  0  0  0  0  0  0  0  0  0
   22.7846    2.9400    0.0000 C   0  0  0  0  0  0  0  0  0  0  0  0
   23.6506    3.4400    0.0000 C   0  0  0  0  0  0  0  0  0  0  0  0
   22.7846    1.9400    0.0000 C   0  0  0  0  0  0  0  0  0  0  0  0
   19.3205   -1.0600    0.0000 C   0  0  0  0  0  0  0  0  0  0  0  0
   23.6506    4.4400    0.0000 C   0  0  0  0  0  0  0  0  0  0  0  0
   21.0526    1.9400    0.0000 C   0  0  0  0  0  0  0  0  0  0  0  0
   24.5167    5.9400    0.0000 C   0  0  0  0  0  0  0  0  0  0  0  0
   24.5167    4.9400    0.0000 C   0  0  0  0  0  0  0  0  0  0  0  0
   25.3827    6.4400    0.0000 C   0  0  0  0  0  0  0  0  0  0  0  0
   22.7846    4.9400    0.0000 C   0  0  0  0  0  0  0  0  0  0  0  0
   25.3827    7.4400    0.0000 C   0  0  0  0  0  0  0  0  0  0  0  0
   24.5167    7.9400    0.0000 C   0  0  0  0  0  0  0  0  0  0  0  0
   26.2487    7.9400    0.0000 C   0  0  0  0  0  0  0  0  0  0  0  0
   27.1147    7.4400    0.0000 C   0  0  0  0  0  0  0  0  0  0  0  0
    6.8671   -7.8700    0.0000 H   0  0  0  0  0  0  0  0  0  0  0  0
    7.5947   -6.5850    0.0000 H   0  0  0  0  0  0  0  0  0  0  0  0
    6.7976   -6.5850    0.0000 H   0  0  0  0  0  0  0  0  0  0  0  0
    7.6636   -8.0350    0.0000 H   0  0  0  0  0  0  0  0  0  0  0  0
    8.4607   -8.0350    0.0000 H   0  0  0  0  0  0  0  0  0  0  0  0
    9.2573   -7.8700    0.0000 H   0  0  0  0  0  0  0  0  0  0  0  0
    9.3267   -6.5850    0.0000 H   0  0  0  0  0  0  0  0  0  0  0  0
    8.5297   -6.5850    0.0000 H   0  0  0  0  0  0  0  0  0  0  0  0
    5.8626   -6.5850    0.0000 H   0  0  0  0  0  0  0  0  0  0  0  0
    5.0656   -6.5850    0.0000 H   0  0  0  0  0  0  0  0  0  0  0  0
   11.0588   -6.5850    0.0000 H   0  0  0  0  0  0  0  0  0  0  0  0
   10.2617   -6.5850    0.0000 H   0  0  0  0  0  0  0  0  0  0  0  0
    4.1996   -8.0350    0.0000 H   0  0  0  0  0  0  0  0  0  0  0  0
    4.9966   -8.0350    0.0000 H   0  0  0  0  0  0  0  0  0  0  0  0
    4.1306   -6.5850    0.0000 H   0  0  0  0  0  0  0  0  0  0  0  0
    3.3335   -6.5850    0.0000 H   0  0  0  0  0  0  0  0  0  0  0  0
    5.7101   -8.5600    0.0000 H   0  0  0  0  0  0  0  0  0  0  0  0
    6.3301   -9.1800    0.0000 H   0  0  0  0  0  0  0  0  0  0  0  0
    6.9501   -8.5600    0.0000 H   0  0  0  0  0  0  0  0  0  0  0  0
   11.1278   -8.0350    0.0000 H   0  0  0  0  0  0  0  0  0  0  0  0
   11.9248   -8.0350    0.0000 H   0  0  0  0  0  0  0  0  0  0  0  0
    9.1742   -8.5600    0.0000 H   0  0  0  0  0  0  0  0  0  0  0  0
    9.7942   -9.1800    0.0000 H   0  0  0  0  0  0  0  0  0  0  0  0
   10.4142   -8.5600    0.0000 H   0  0  0  0  0  0  0  0  0  0  0  0
    2.8660   -6.9400    0.0000 H   0  0  0  0  0  0  0  0  0  0  0  0
   12.7908   -6.5850    0.0000 H   0  0  0  0  0  0  0  0  0  0  0  0
   11.9938   -6.5850    0.0000 H   0  0  0  0  0  0  0  0  0  0  0  0
    2.2460   -8.5600    0.0000 H   0  0  0  0  0  0  0  0  0  0  0  0
    2.8660   -9.1800    0.0000 H   0  0  0  0  0  0  0  0  0  0  0  0
    3.4860   -8.5600    0.0000 H   0  0  0  0  0  0  0  0  0  0  0  0
    2.3100   -6.5231    0.0000 H   0  0  0  0  0  0  0  0  0  0  0  0
    1.4631   -6.7500    0.0000 H   0  0  0  0  0  0  0  0  0  0  0  0
    1.6900   -7.5969    0.0000 H   0  0  0  0  0  0  0  0  0  0  0  0
   14.1244   -6.4400    0.0000 H   0  0  0  0  0  0  0  0  0  0  0  0
   12.6383   -8.5600    0.0000 H   0  0  0  0  0  0  0  0  0  0  0  0
   13.2583   -9.1800    0.0000 H   0  0  0  0  0  0  0  0  0  0  0  0
   13.8783   -8.5600    0.0000 H   0  0  0  0  0  0  0  0  0  0  0  0
   14.5919   -8.0350    0.0000 H   0  0  0  0  0  0  0  0  0  0  0  0
   15.3889   -8.0350    0.0000 H   0  0  0  0  0  0  0  0  0  0  0  0
   16.2549   -6.5850    0.0000 H   0  0  0  0  0  0  0  0  0  0  0  0
   15.4579   -6.5850    0.0000 H   0  0  0  0  0  0  0  0  0  0  0  0
   18.1254   -7.3700    0.0000 H   0  0  0  0  0  0  0  0  0  0  0  0
   16.1024   -8.5600    0.0000 H   0  0  0  0  0  0  0  0  0  0  0  0
   16.7224   -9.1800    0.0000 H   0  0  0  0  0  0  0  0  0  0  0  0
   17.3424   -8.5600    0.0000 H   0  0  0  0  0  0  0  0  0  0  0  0
   17.3764   -5.4774    0.0000 H   0  0  0  0  0  0  0  0  0  0  0  0
   16.9779   -6.1677    0.0000 H   0  0  0  0  0  0  0  0  0  0  0  0
   18.6665   -6.1426    0.0000 H   0  0  0  0  0  0  0  0  0  0  0  0
   19.0651   -5.4523    0.0000 H   0  0  0  0  0  0  0  0  0  0  0  0
   19.8574   -4.3700    0.0000 H   0  0  0  0  0  0  0  0  0  0  0  0
   19.1085   -2.4774    0.0000 H   0  0  0  0  0  0  0  0  0  0  0  0
   18.7099   -3.1677    0.0000 H   0  0  0  0  0  0  0  0  0  0  0  0
   20.3986   -3.1426    0.0000 H   0  0  0  0  0  0  0  0  0  0  0  0
   20.7971   -2.4523    0.0000 H   0  0  0  0  0  0  0  0  0  0  0  0
   17.8985   -3.5231    0.0000 H   0  0  0  0  0  0  0  0  0  0  0  0
   17.0515   -3.7500    0.0000 H   0  0  0  0  0  0  0  0  0  0  0  0
   17.2785   -4.5969    0.0000 H   0  0  0  0  0  0  0  0  0  0  0  0
   20.8405    0.5226    0.0000 H   0  0  0  0  0  0  0  0  0  0  0  0
   20.4420   -0.1677    0.0000 H   0  0  0  0  0  0  0  0  0  0  0  0
   22.1306   -0.1426    0.0000 H   0  0  0  0  0  0  0  0  0  0  0  0
   22.5292    0.5477    0.0000 H   0  0  0  0  0  0  0  0  0  0  0  0
   21.5895   -1.3700    0.0000 H   0  0  0  0  0  0  0  0  0  0  0  0
   22.5726    3.5226    0.0000 H   0  0  0  0  0  0  0  0  0  0  0  0
   22.1740    2.8323    0.0000 H   0  0  0  0  0  0  0  0  0  0  0  0
   23.8627    2.8574    0.0000 H   0  0  0  0  0  0  0  0  0  0  0  0
   24.2612    3.5477    0.0000 H   0  0  0  0  0  0  0  0  0  0  0  0
   23.3215    1.6300    0.0000 H   0  0  0  0  0  0  0  0  0  0  0  0
   19.6305   -0.5231    0.0000 H   0  0  0  0  0  0  0  0  0  0  0  0
   18.7836   -0.7500    0.0000 H   0  0  0  0  0  0  0  0  0  0  0  0
   19.0105   -1.5969    0.0000 H   0  0  0  0  0  0  0  0  0  0  0  0
   21.3626    2.4769    0.0000 H   0  0  0  0  0  0  0  0  0  0  0  0
   20.5156    2.2500    0.0000 H   0  0  0  0  0  0  0  0  0  0  0  0
   20.7426    1.4031    0.0000 H   0  0  0  0  0  0  0  0  0  0  0  0
   24.3046    6.5226    0.0000 H   0  0  0  0  0  0  0  0  0  0  0  0
   23.9061    5.8323    0.0000 H   0  0  0  0  0  0  0  0  0  0  0  0
   25.0536    4.6300    0.0000 H   0  0  0  0  0  0  0  0  0  0  0  0
   25.5947    5.8574    0.0000 H   0  0  0  0  0  0  0  0  0  0  0  0
   25.9933    6.5477    0.0000 H   0  0  0  0  0  0  0  0  0  0  0  0
   23.0946    5.4769    0.0000 H   0  0  0  0  0  0  0  0  0  0  0  0
   22.2477    5.2500    0.0000 H   0  0  0  0  0  0  0  0  0  0  0  0
   22.4746    4.4031    0.0000 H   0  0  0  0  0  0  0  0  0  0  0  0
   24.8267    8.4769    0.0000 H   0  0  0  0  0  0  0  0  0  0  0  0
   23.9797    8.2500    0.0000 H   0  0  0  0  0  0  0  0  0  0  0  0
   24.2067    7.4031    0.0000 H   0  0  0  0  0  0  0  0  0  0  0  0
   26.2487    8.5600    0.0000 H   0  0  0  0  0  0  0  0  0  0  0  0
   26.7162    6.9650    0.0000 H   0  0  0  0  0  0  0  0  0  0  0  0
   27.5133    6.9650    0.0000 H   0  0  0  0  0  0  0  0  0  0  0  0
   28.5177    7.6300    0.0000 H   0  0  0  0  0  0  0  0  0  0  0  0
  1 51  1  0  0  0  0
  1139  1  0  0  0  0
  2  3  1  0  0  0  0
  2  7  1  0  0  0  0
  2 11  1  0  0  0  0
  2 52  1  0  0  0  0
  3  4  1  0  0  0  0
  3 53  1  0  0  0  0
  3 54  1  0  0  0  0
  4  6  1  0  0  0  0
  4 55  1  0  0  0  0
  4 56  1  0  0  0  0
  5  6  1  0  0  0  0
  5  8  1  0  0  0  0
  5 13  1  0  0  0  0
  5 57  1  0  0  0  0
  6 58  1  0  0  0  0
  6 59  1  0  0  0  0
  7  9  1  0  0  0  0
  7 60  1  0  0  0  0
  7 61  1  0  0  0  0
  8 12  1  0  0  0  0
  8 62  1  0  0  0  0
  8 63  1  0  0  0  0
  9 10  1  0  0  0  0
  9 64  1  0  0  0  0
  9 65  1  0  0  0  0
 10 14  1  0  0  0  0
 10 66  1  0  0  0  0
 10 67  1  0  0  0  0
 11 68  1  0  0  0  0
 11 69  1  0  0  0  0
 11 70  1  0  0  0  0
 12 15  1  0  0  0  0
 12 71  1  0  0  0  0
 12 72  1  0  0  0  0
 13 73  1  0  0  0  0
 13 74  1  0  0  0  0
 13 75  1  0  0  0  0
 14 16  1  0  0  0  0
 14 17  1  0  0  0  0
 14 76  1  0  0  0  0
 15 18  1  0  0  0  0
 15 77  1  0  0  0  0
 15 78  1  0  0  0  0
 16 82  1  0  0  0  0
 16 83  1  0  0  0  0
 16 84  1  0  0  0  0
 17 79  1  0  0  0  0
 17 80  1  0  0  0  0
 17 81  1  0  0  0  0
 18 19  2  0  0  0  0
 18 20  1  0  0  0  0
 19 21  1  0  0  0  0
 19 85  1  0  0  0  0
 20 86  1  0  0  0  0
 20 87  1  0  0  0  0
 20 88  1  0  0  0  0
 21 22  1  0  0  0  0
 21 89  1  0  0  0  0
 21 90  1  0  0  0  0
 22 23  1  0  0  0  0
 22 91  1  0  0  0  0
 22 92  1  0  0  0  0
 23 24  2  0  0  0  0
 23 25  1  0  0  0  0
 24 26  1  0  0  0  0
 24 93  1  0  0  0  0
 25 94  1  0  0  0  0
 25 95  1  0  0  0  0
 25 96  1  0  0  0  0
 26 27  1  0  0  0  0
 26 97  1  0  0  0  0
 26 98  1  0  0  0  0
 27 28  1  0  0  0  0
 27 99  1  0  0  0  0
 27100  1  0  0  0  0
 28 29  2  0  0  0  0
 28 32  1  0  0  0  0
 29 30  1  0  0  0  0
 29101  1  0  0  0  0
 30 31  1  0  0  0  0
 30102  1  0  0  0  0
 30103  1  0  0  0  0
 31 33  1  0  0  0  0
 31104  1  0  0  0  0
 31105  1  0  0  0  0
 32106  1  0  0  0  0
 32107  1  0  0  0  0
 32108  1  0  0  0  0
 33 36  2  0  0  0  0
 33 41  1  0  0  0  0
 34 35  1  0  0  0  0
 34 36  1  0  0  0  0
 34109  1  0  0  0  0
 34110  1  0  0  0  0
 35 37  1  0  0  0  0
 35111  1  0  0  0  0
 35112  1  0  0  0  0
 36113  1  0  0  0  0
 37 40  2  0  0  0  0
 37 43  1  0  0  0  0
 38 39  1  0  0  0  0
 38 40  1  0  0  0  0
 38114  1  0  0  0  0
 38115  1  0  0  0  0
 39 42  1  0  0  0  0
 39116  1  0  0  0  0
 39117  1  0  0  0  0
 40118  1  0  0  0  0
 41119  1  0  0  0  0
 41120  1  0  0  0  0
 41121  1  0  0  0  0
 42 45  2  0  0  0  0
 42 47  1  0  0  0  0
 43122  1  0  0  0  0
 43123  1  0  0  0  0
 43124  1  0  0  0  0
 44 45  1  0  0  0  0
 44 46  1  0  0  0  0
 44125  1  0  0  0  0
 44126  1  0  0  0  0
 45127  1  0  0  0  0
 46 48  1  0  0  0  0
 46128  1  0  0  0  0
 46129  1  0  0  0  0
 47130  1  0  0  0  0
 47131  1  0  0  0  0
 47132  1  0  0  0  0
 48 49  1  0  0  0  0
 48 50  2  0  0  0  0
 49133  1  0  0  0  0
 49134  1  0  0  0  0
 49135  1  0  0  0  0
 50 51  1  0  0  0  0
 50136  1  0  0  0  0
 51137  1  0  0  0  0
 51138  1  0  0  0  0
M  END
>  <PUBCHEM_COMPOUND_CID>
131752394

>  <PUBCHEM_COMPOUND_CANONICALIZED>
1

>  <PUBCHEM_CACTVS_COMPLEXITY>
1080

>  <PUBCHEM_CACTVS_HBOND_ACCEPTOR>
1

>  <PUBCHEM_CACTVS_HBOND_DONOR>
1

>  <PUBCHEM_CACTVS_ROTATABLE_BOND>
31

>  <PUBCHEM_CACTVS_SUBSKEYS>
AAADcfB8IAAAAAAAAAAAAAAAAAAAAAAAAAAAAAAAAAAAAAAAAAAAGgAACAAADQCggAICAAAAAgCAAiBCAAAAAAAgAAAACAAAAAgAFAIAAQAAEAAAgAAIEAMAgMAOAAAAAAAAAAAAAAAAAAAAAAAAAAAAAA==

>  <PUBCHEM_IUPAC_OPENEYE_NAME>
(2Z,6E,10E,14E,18E,22Z,26E)-3,7,11,15,19,23,27,31,35,39-decamethyltetraconta-2,6,10,14,18,22,26-heptaen-1-ol

>  <PUBCHEM_IUPAC_CAS_NAME>
(2Z,6E,10E,14E,18E,22Z,26E)-3,7,11,15,19,23,27,31,35,39-decamethyl-1-tetraconta-2,6,10,14,18,22,26-heptaenol

>  <PUBCHEM_IUPAC_NAME>
(2Z,6E,10E,14E,18E,22Z,26E)-3,7,11,15,19,23,27,31,35,39-decamethyltetraconta-2,6,10,14,18,22,26-heptaen-1-ol

>  <PUBCHEM_IUPAC_SYSTEMATIC_NAME>
(2Z,6E,10E,14E,18E,22Z,26E)-3,7,11,15,19,23,27,31,35,39-decamethyltetraconta-2,6,10,14,18,22,26-heptaen-1-ol

>  <PUBCHEM_IUPAC_TRADITIONAL_NAME>
(2Z,6E,10E,14E,18E,22Z,26E)-3,7,11,15,19,23,27,31,35,39-decamethyltetraconta-2,6,10,14,18,22,26-heptaen-1-ol

>  <PUBCHEM_IUPAC_INCHI>
InChI=1S/C50H88O/c1-41(2)21-12-22-42(3)23-13-24-43(4)25-14-26-44(5)27-15-28-45(6)29-16-30-46(7)31-17-32-47(8)33-18-34-48(9)35-19-36-49(10)37-20-38-50(11)39-40-51/h27,29,31,33,35,37,39,41-43,51H,12-26,28,30,32,34,36,38,40H2,1-11H3/b44-27+,45-29-,46-31+,47-33+,48-35+,49-37+,50-39-

>  <PUBCHEM_IUPAC_INCHIKEY>
VXLKCFIDVJZHGS-GAZVJNJYSA-N

>  <PUBCHEM_EXACT_MASS>
704.684

>  <PUBCHEM_MOLECULAR_FORMULA>
C50H88O

>  <PUBCHEM_MOLECULAR_WEIGHT>
705.253

>  <PUBCHEM_OPENEYE_CAN_SMILES>
CC(C)CCCC(C)CCCC(C)CCCC(=CCCC(=CCCC(=CCCC(=CCCC(=CCCC(=CCCC(=CCO)C)C)C)C)C)C)C

>  <PUBCHEM_OPENEYE_ISO_SMILES>
CC(C)CCCC(C)CCCC(C)CCC/C(=C/CC/C(=C\CC/C(=C/CC/C(=C/CC/C(=C/CC/C(=C/CC/C(=C\CO)/C)/C)/C)/C)/C)/C)/C

>  <PUBCHEM_CACTVS_TPSA>
20.2

>  <PUBCHEM_MONOISOTOPIC_WEIGHT>
704.684

>  <PUBCHEM_TOTAL_CHARGE>
0

>  <PUBCHEM_HEAVY_ATOM_COUNT>
51

>  <PUBCHEM_ATOM_DEF_STEREO_COUNT>
0

>  <PUBCHEM_ATOM_UDEF_STEREO_COUNT>
2

>  <PUBCHEM_BOND_DEF_STEREO_COUNT>
7

>  <PUBCHEM_BOND_UDEF_STEREO_COUNT>
0

>  <PUBCHEM_ISOTOPIC_ATOM_COUNT>
0

>  <PUBCHEM_COMPONENT_COUNT>
1

>  <PUBCHEM_CACTVS_TAUTO_COUNT>
1

>  <PUBCHEM_COORDINATE_TYPE>
1
5
255

>  <PUBCHEM_BONDANNOTATIONS>
2  11  3
5  13  3

$$$$
