131751917
 OpenBabel06101807152D

 62 64  0  0  1  0  0  0  0  0999 V2000
    2.8680   -1.1772    0.0000 S   0  0  0  0  0  0  0  0  0  0  0  0
    9.8622   -0.2147    0.0000 O   0  0  0  0  0  0  0  0  0  0  0  0
    6.3320   -1.1906    0.0000 O   0  0  0  0  0  0  0  0  0  0  0  0
   11.6744   -3.0194    0.0000 O   0  0  0  0  0  0  0  0  0  0  0  0
   11.3621    0.6513    0.0000 O   0  0  0  0  0  0  0  0  0  0  0  0
    5.4602   -2.6872    0.0000 O   0  0  0  0  0  0  0  0  0  0  0  0
    8.9961   -1.7147    0.0000 C   0  0  3  0  0  0  0  0  0  0  0  0
    8.9961   -2.7147    0.0000 C   0  0  3  0  0  0  0  0  0  0  0  0
    8.1022   -1.1801    0.0000 C   0  0  3  0  0  0  0  0  0  0  0  0
    9.8622   -1.2147    0.0000 C   0  0  3  0  0  0  0  0  0  0  0  0
    8.1022   -3.2494    0.0000 C   0  0  0  0  0  0  0  0  0  0  0  0
    7.1961   -1.6939    0.0000 C   0  0  3  0  0  0  0  0  0  0  0  0
    9.8622   -3.2147    0.0000 C   0  0  0  0  0  0  0  0  0  0  0  0
    7.1961   -2.7355    0.0000 C   0  0  0  0  0  0  0  0  0  0  0  0
    8.9961   -0.7147    0.0000 C   0  0  0  0  0  0  0  0  0  0  0  0
   10.7282   -1.7147    0.0000 C   0  0  0  0  0  0  0  0  0  0  0  0
   10.7282   -2.7147    0.0000 C   0  0  0  0  0  0  0  0  0  0  0  0
    8.1137   -0.1801    0.0000 C   0  0  0  0  0  0  0  0  0  0  0  0
   11.6744   -1.4100    0.0000 C   0  0  0  0  0  0  0  0  0  0  0  0
   12.2580   -2.2147    0.0000 C   0  0  0  0  0  0  0  0  0  0  0  0
   12.4187   -0.7421    0.0000 C   0  0  0  0  0  0  0  0  0  0  0  0
   10.3621    0.6513    0.0000 C   0  0  0  0  0  0  0  0  0  0  0  0
    5.4641   -1.6872    0.0000 C   0  0  0  0  0  0  0  0  0  0  0  0
    9.8622    1.5173    0.0000 C   0  0  0  0  0  0  0  0  0  0  0  0
    4.6000   -1.1839    0.0000 C   0  0  0  0  0  0  0  0  0  0  0  0
    8.8622    1.5173    0.0000 C   0  0  0  0  0  0  0  0  0  0  0  0
   10.3621    2.3834    0.0000 C   0  0  0  0  0  0  0  0  0  0  0  0
    3.7320   -1.6806    0.0000 C   0  0  0  0  0  0  0  0  0  0  0  0
    9.8622    3.2494    0.0000 C   0  0  0  0  0  0  0  0  0  0  0  0
    2.0000   -1.6739    0.0000 C   0  0  0  0  0  0  0  0  0  0  0  0
    9.0009   -3.3347    0.0000 H   0  0  0  0  0  0  0  0  0  0  0  0
    7.5683   -0.8649    0.0000 H   0  0  0  0  0  0  0  0  0  0  0  0
   10.3991   -0.9047    0.0000 H   0  0  0  0  0  0  0  0  0  0  0  0
    7.7086   -3.7284    0.0000 H   0  0  0  0  0  0  0  0  0  0  0  0
    8.5068   -3.7192    0.0000 H   0  0  0  0  0  0  0  0  0  0  0  0
    6.6586   -2.0029    0.0000 H   0  0  0  0  0  0  0  0  0  0  0  0
    9.4636   -3.6897    0.0000 H   0  0  0  0  0  0  0  0  0  0  0  0
   10.2607   -3.6897    0.0000 H   0  0  0  0  0  0  0  0  0  0  0  0
    6.5853   -2.6294    0.0000 H   0  0  0  0  0  0  0  0  0  0  0  0
    6.9871   -3.3192    0.0000 H   0  0  0  0  0  0  0  0  0  0  0  0
    9.6161   -0.7147    0.0000 H   0  0  0  0  0  0  0  0  0  0  0  0
    8.9961   -0.0947    0.0000 H   0  0  0  0  0  0  0  0  0  0  0  0
    8.3761   -0.7147    0.0000 H   0  0  0  0  0  0  0  0  0  0  0  0
    8.7337   -0.1873    0.0000 H   0  0  0  0  0  0  0  0  0  0  0  0
    8.1209    0.4398    0.0000 H   0  0  0  0  0  0  0  0  0  0  0  0
    7.4938   -0.1730    0.0000 H   0  0  0  0  0  0  0  0  0  0  0  0
   12.8780   -2.2147    0.0000 H   0  0  0  0  0  0  0  0  0  0  0  0
   12.8328   -1.2036    0.0000 H   0  0  0  0  0  0  0  0  0  0  0  0
   12.8802   -0.3281    0.0000 H   0  0  0  0  0  0  0  0  0  0  0  0
   12.0046   -0.2807    0.0000 H   0  0  0  0  0  0  0  0  0  0  0  0
    4.6024   -0.5639    0.0000 H   0  0  0  0  0  0  0  0  0  0  0  0
    8.8622    2.1373    0.0000 H   0  0  0  0  0  0  0  0  0  0  0  0
    8.2422    1.5173    0.0000 H   0  0  0  0  0  0  0  0  0  0  0  0
    8.8622    0.8973    0.0000 H   0  0  0  0  0  0  0  0  0  0  0  0
   10.9821    2.3834    0.0000 H   0  0  0  0  0  0  0  0  0  0  0  0
    3.7296   -2.3006    0.0000 H   0  0  0  0  0  0  0  0  0  0  0  0
   10.3991    3.5594    0.0000 H   0  0  0  0  0  0  0  0  0  0  0  0
    9.5521    3.7863    0.0000 H   0  0  0  0  0  0  0  0  0  0  0  0
    9.3252    2.9394    0.0000 H   0  0  0  0  0  0  0  0  0  0  0  0
    1.6921   -1.1358    0.0000 H   0  0  0  0  0  0  0  0  0  0  0  0
    1.4619   -1.9818    0.0000 H   0  0  0  0  0  0  0  0  0  0  0  0
    2.3079   -2.2120    0.0000 H   0  0  0  0  0  0  0  0  0  0  0  0
  1 28  1  0  0  0  0
  1 30  1  0  0  0  0
  2 10  1  0  0  0  0
  2 22  1  0  0  0  0
  3 12  1  0  0  0  0
  3 23  1  0  0  0  0
  4 17  1  0  0  0  0
  4 20  1  0  0  0  0
  5 22  2  0  0  0  0
  6 23  2  0  0  0  0
  7  8  1  0  0  0  0
  7  9  1  0  0  0  0
  7 10  1  0  0  0  0
  7 15  1  0  0  0  0
  8 11  1  0  0  0  0
  8 13  1  0  0  0  0
  8 31  1  0  0  0  0
  9 12  1  0  0  0  0
  9 18  1  0  0  0  0
  9 32  1  0  0  0  0
 10 16  1  0  0  0  0
 10 33  1  0  0  0  0
 11 14  1  0  0  0  0
 11 34  1  0  0  0  0
 11 35  1  0  0  0  0
 12 14  1  0  0  0  0
 12 36  1  0  0  0  0
 13 17  1  0  0  0  0
 13 37  1  0  0  0  0
 13 38  1  0  0  0  0
 14 39  1  0  0  0  0
 14 40  1  0  0  0  0
 15 41  1  0  0  0  0
 15 42  1  0  0  0  0
 15 43  1  0  0  0  0
 16 17  2  0  0  0  0
 16 19  1  0  0  0  0
 18 44  1  0  0  0  0
 18 45  1  0  0  0  0
 18 46  1  0  0  0  0
 19 20  2  0  0  0  0
 19 21  1  0  0  0  0
 20 47  1  0  0  0  0
 21 48  1  0  0  0  0
 21 49  1  0  0  0  0
 21 50  1  0  0  0  0
 22 24  1  0  0  0  0
 23 25  1  0  0  0  0
 24 26  1  0  0  0  0
 24 27  2  0  0  0  0
 25 28  2  0  0  0  0
 25 51  1  0  0  0  0
 26 52  1  0  0  0  0
 26 53  1  0  0  0  0
 26 54  1  0  0  0  0
 27 29  1  0  0  0  0
 27 55  1  0  0  0  0
 28 56  1  0  0  0  0
 29 57  1  0  0  0  0
 29 58  1  0  0  0  0
 29 59  1  0  0  0  0
 30 60  1  0  0  0  0
 30 61  1  0  0  0  0
 30 62  1  0  0  0  0
M  END
>  <PUBCHEM_COMPOUND_CID>
131751917

>  <PUBCHEM_COMPOUND_CANONICALIZED>
1

>  <PUBCHEM_CACTVS_COMPLEXITY>
716

>  <PUBCHEM_CACTVS_HBOND_ACCEPTOR>
6

>  <PUBCHEM_CACTVS_HBOND_DONOR>
0

>  <PUBCHEM_CACTVS_ROTATABLE_BOND>
7

>  <PUBCHEM_CACTVS_SUBSKEYS>
AAADcfB4OABAAAAAAAAAAAAAAAAAASAAAAAwYAAAAAAAAEjBgAAAGgQAAAAADxSk2AKiDIAABEiIAqjSiAACCAAkIAAIiAEECMgMJzaENRqCGSCl4BEIqYfK7PzPgAAAAAAAAADAAAYQADAAAAAAAAAAAA==

>  <PUBCHEM_IUPAC_OPENEYE_NAME>
[3,4a,5-trimethyl-6-[(E)-3-methylsulfanylprop-2-enoyl]oxy-5,6,7,8,8a,9-hexahydro-4H-benzo[f]benzofuran-4-yl] (E)-2-methylbut-2-enoate

>  <PUBCHEM_IUPAC_CAS_NAME>
(E)-2-methyl-2-butenoic acid [3,4a,5-trimethyl-6-[(E)-3-(methylthio)-1-oxoprop-2-enoxy]-5,6,7,8,8a,9-hexahydro-4H-benzo[f]benzofuran-4-yl] ester

>  <PUBCHEM_IUPAC_NAME>
[3,4a,5-trimethyl-6-[(E)-3-methylsulfanylprop-2-enoyl]oxy-5,6,7,8,8a,9-hexahydro-4H-benzo[f][1]benzofuran-4-yl] (E)-2-methylbut-2-enoate

>  <PUBCHEM_IUPAC_SYSTEMATIC_NAME>
[3,4a,5-trimethyl-6-[(E)-3-methylsulfanylprop-2-enoyl]oxy-5,6,7,8,8a,9-hexahydro-4H-benzo[f][1]benzofuran-4-yl] (E)-2-methylbut-2-enoate

>  <PUBCHEM_IUPAC_TRADITIONAL_NAME>
(E)-2-methylbut-2-enoic acid [3,4a,5-trimethyl-6-[(E)-3-(methylthio)acryloyl]oxy-5,6,7,8,8a,9-hexahydro-4H-benzo[f]benzofuran-4-yl] ester

>  <PUBCHEM_IUPAC_INCHI>
InChI=1S/C24H32O5S/c1-7-14(2)23(26)29-22-21-15(3)13-27-19(21)12-17-8-9-18(16(4)24(17,22)5)28-20(25)10-11-30-6/h7,10-11,13,16-18,22H,8-9,12H2,1-6H3/b11-10+,14-7+

>  <PUBCHEM_IUPAC_INCHIKEY>
DZIJJEZRPMYRRP-QFPWAJRASA-N

>  <PUBCHEM_EXACT_MASS>
432.197

>  <PUBCHEM_MOLECULAR_FORMULA>
C24H32O5S

>  <PUBCHEM_MOLECULAR_WEIGHT>
432.575

>  <PUBCHEM_OPENEYE_CAN_SMILES>
CC=C(C)C(=O)OC1C2=C(CC3C1(C(C(CC3)OC(=O)C=CSC)C)C)OC=C2C

>  <PUBCHEM_OPENEYE_ISO_SMILES>
C/C=C(\C)/C(=O)OC1C2=C(CC3C1(C(C(CC3)OC(=O)/C=C/SC)C)C)OC=C2C

>  <PUBCHEM_CACTVS_TPSA>
91

>  <PUBCHEM_MONOISOTOPIC_WEIGHT>
432.197

>  <PUBCHEM_TOTAL_CHARGE>
0

>  <PUBCHEM_HEAVY_ATOM_COUNT>
30

>  <PUBCHEM_ATOM_DEF_STEREO_COUNT>
0

>  <PUBCHEM_ATOM_UDEF_STEREO_COUNT>
5

>  <PUBCHEM_BOND_DEF_STEREO_COUNT>
2

>  <PUBCHEM_BOND_UDEF_STEREO_COUNT>
0

>  <PUBCHEM_ISOTOPIC_ATOM_COUNT>
0

>  <PUBCHEM_COMPONENT_COUNT>
1

>  <PUBCHEM_CACTVS_TAUTO_COUNT>
1

>  <PUBCHEM_COORDINATE_TYPE>
1
5
255

>  <PUBCHEM_BONDANNOTATIONS>
16  17  8
16  19  8
19  20  8
10  2  3
12  3  3
4  17  8
4  20  8
7  15  3
8  11  3
9  18  3

$$$$
