131751877
 OpenBabel06101807152D

 60 62  0  0  1  0  0  0  0  0999 V2000
    3.5836   -3.3997    0.0000 O   0  0  0  0  0  0  0  0  0  0  0  0
    7.9939    2.9050    0.0000 O   0  0  0  0  0  0  0  0  0  0  0  0
    7.9939   -0.0950    0.0000 O   0  0  0  0  0  0  0  0  0  0  0  0
    6.2619    0.9050    0.0000 O   0  0  0  0  0  0  0  0  0  0  0  0
    9.7260    0.9050    0.0000 O   0  0  0  0  0  0  0  0  0  0  0  0
    2.0000   -2.5950    0.0000 O   0  0  0  0  0  0  0  0  0  0  0  0
    9.7260    2.9050    0.0000 O   0  0  0  0  0  0  0  0  0  0  0  0
    6.2619    3.9050    0.0000 O   0  0  0  0  0  0  0  0  0  0  0  0
    6.2619   -0.0950    0.0000 O   0  0  0  0  0  0  0  0  0  0  0  0
    4.5298   -2.0950    0.0000 C   0  0  1  0  0  0  0  0  0  0  0  0
    3.5836   -1.7903    0.0000 C   0  0  3  0  0  0  0  0  0  0  0  0
    4.5298   -3.0950    0.0000 C   0  0  1  0  0  0  0  0  0  0  0  0
    5.3958   -1.5950    0.0000 C   0  0  0  0  0  0  0  0  0  0  0  0
    7.9939    0.9050    0.0000 C   0  0  1  0  0  0  0  0  0  0  0  0
    6.2619   -2.0950    0.0000 C   0  0  0  0  0  0  0  0  0  0  0  0
    7.1279    1.4050    0.0000 C   0  0  1  0  0  0  0  0  0  0  0  0
    3.0000   -2.5950    0.0000 C   0  0  0  0  0  0  0  0  0  0  0  0
    8.8600    1.4050    0.0000 C   0  0  2  0  0  0  0  0  0  0  0  0
    7.1279    2.4050    0.0000 C   0  0  1  0  0  0  0  0  0  0  0  0
    5.3958   -3.5950    0.0000 C   0  0  0  0  0  0  0  0  0  0  0  0
    3.2729   -0.8397    0.0000 C   0  0  0  0  0  0  0  0  0  0  0  0
    8.8600    2.4050    0.0000 C   0  0  1  0  0  0  0  0  0  0  0  0
    7.1279   -1.5950    0.0000 C   0  0  0  0  0  0  0  0  0  0  0  0
    6.2619   -3.0950    0.0000 C   0  0  0  0  0  0  0  0  0  0  0  0
    7.1279   -3.5950    0.0000 C   0  0  0  0  0  0  0  0  0  0  0  0
    6.2619    2.9050    0.0000 C   0  0  0  0  0  0  0  0  0  0  0  0
    7.1279   -0.5950    0.0000 C   0  0  0  0  0  0  0  0  0  0  0  0
    7.9939   -3.0950    0.0000 C   0  0  0  0  0  0  0  0  0  0  0  0
    7.9939   -2.0950    0.0000 C   0  0  0  0  0  0  0  0  0  0  0  0
    6.6476   -2.6354    0.0000 C   0  0  0  0  0  0  0  0  0  0  0  0
    4.4399   -1.2498    0.0000 H   0  0  0  0  0  0  0  0  0  0  0  0
    2.9711   -1.6941    0.0000 H   0  0  0  0  0  0  0  0  0  0  0  0
    4.4399   -3.9402    0.0000 H   0  0  0  0  0  0  0  0  0  0  0  0
    5.7944   -1.1200    0.0000 H   0  0  0  0  0  0  0  0  0  0  0  0
    4.9973   -1.1200    0.0000 H   0  0  0  0  0  0  0  0  0  0  0  0
    7.4570    0.5950    0.0000 H   0  0  0  0  0  0  0  0  0  0  0  0
    5.8633   -2.5700    0.0000 H   0  0  0  0  0  0  0  0  0  0  0  0
    6.6604   -2.5700    0.0000 H   0  0  0  0  0  0  0  0  0  0  0  0
    7.1279    0.7850    0.0000 H   0  0  0  0  0  0  0  0  0  0  0  0
    8.8600    0.7850    0.0000 H   0  0  0  0  0  0  0  0  0  0  0  0
    7.1279    3.0250    0.0000 H   0  0  0  0  0  0  0  0  0  0  0  0
    5.3958   -4.2150    0.0000 H   0  0  0  0  0  0  0  0  0  0  0  0
    3.8623   -0.6471    0.0000 H   0  0  0  0  0  0  0  0  0  0  0  0
    3.0803   -0.2504    0.0000 H   0  0  0  0  0  0  0  0  0  0  0  0
    2.6836   -1.0324    0.0000 H   0  0  0  0  0  0  0  0  0  0  0  0
    8.8600    3.0250    0.0000 H   0  0  0  0  0  0  0  0  0  0  0  0
    6.7294   -4.0700    0.0000 H   0  0  0  0  0  0  0  0  0  0  0  0
    7.5264   -4.0700    0.0000 H   0  0  0  0  0  0  0  0  0  0  0  0
    5.6513    3.0127    0.0000 H   0  0  0  0  0  0  0  0  0  0  0  0
    6.0498    2.3224    0.0000 H   0  0  0  0  0  0  0  0  0  0  0  0
    8.2060   -3.6776    0.0000 H   0  0  0  0  0  0  0  0  0  0  0  0
    8.6045   -2.9873    0.0000 H   0  0  0  0  0  0  0  0  0  0  0  0
    8.5309   -1.7850    0.0000 H   0  0  0  0  0  0  0  0  0  0  0  0
    5.7249    1.2150    0.0000 H   0  0  0  0  0  0  0  0  0  0  0  0
   10.2629    1.2150    0.0000 H   0  0  0  0  0  0  0  0  0  0  0  0
    7.1225   -3.0339    0.0000 H   0  0  0  0  0  0  0  0  0  0  0  0
    7.0461   -2.1604    0.0000 H   0  0  0  0  0  0  0  0  0  0  0  0
    6.1726   -2.2368    0.0000 H   0  0  0  0  0  0  0  0  0  0  0  0
    9.7260    3.5250    0.0000 H   0  0  0  0  0  0  0  0  0  0  0  0
    5.7249    4.2150    0.0000 H   0  0  0  0  0  0  0  0  0  0  0  0
  1 12  1  0  0  0  0
  1 17  1  0  0  0  0
  2 19  1  0  0  0  0
  2 22  1  0  0  0  0
  3 27  1  0  0  0  0
  4 54  1  0  0  0  0
  5 55  1  0  0  0  0
  6 17  2  0  0  0  0
  7 59  1  0  0  0  0
  8 26  1  0  0  0  0
  8 60  1  0  0  0  0
  9 27  2  0  0  0  0
 10 11  1  6  0  0  0
 10 13  1  0  0  0  0
 10 31  1  0  0  0  0
 11 17  1  0  0  0  0
 11 21  1  0  0  0  0
 11 32  1  0  0  0  0
 12 10  1  6  0  0  0
 12 20  1  0  0  0  0
 12 33  1  0  0  0  0
 13 15  1  0  0  0  0
 13 34  1  0  0  0  0
 13 35  1  0  0  0  0
 14  3  1  0  0  0  0
 14 16  1  1  0  0  0
 14 36  1  0  0  0  0
 15 23  1  0  0  0  0
 15 37  1  0  0  0  0
 15 38  1  0  0  0  0
 16  4  1  0  0  0  0
 16 19  1  1  0  0  0
 16 39  1  0  0  0  0
 18  5  1  0  0  0  0
 18 14  1  6  0  0  0
 18 40  1  0  0  0  0
 19 26  1  0  0  0  0
 19 41  1  6  0  0  0
 20 24  2  0  0  0  0
 20 42  1  0  0  0  0
 21 43  1  0  0  0  0
 21 44  1  0  0  0  0
 21 45  1  0  0  0  0
 22  7  1  0  0  0  0
 22 18  1  6  0  0  0
 22 46  1  0  0  0  0
 23 27  1  0  0  0  0
 23 29  2  0  0  0  0
 24 25  1  0  0  0  0
 24 30  1  0  0  0  0
 25 28  1  0  0  0  0
 25 47  1  0  0  0  0
 25 48  1  0  0  0  0
 26 49  1  0  0  0  0
 26 50  1  0  0  0  0
 28 29  1  0  0  0  0
 28 51  1  0  0  0  0
 28 52  1  0  0  0  0
 29 53  1  0  0  0  0
 30 56  1  0  0  0  0
 30 57  1  0  0  0  0
 30 58  1  0  0  0  0
M  END
>  <PUBCHEM_COMPOUND_CID>
131751877

>  <PUBCHEM_COMPOUND_CANONICALIZED>
1

>  <PUBCHEM_CACTVS_COMPLEXITY>
715

>  <PUBCHEM_CACTVS_HBOND_ACCEPTOR>
9

>  <PUBCHEM_CACTVS_HBOND_DONOR>
4

>  <PUBCHEM_CACTVS_ROTATABLE_BOND>
4

>  <PUBCHEM_CACTVS_SUBSKEYS>
AAADceB4PAAAAAAAAAAAAAAAAAAAASAAAAAkAAAAAAAAAACAAAAAGgAACAAADRSwgAMCCAAABgCIAiDSCAAAAAAgAAAACAEAAEgRFBIAIQACUAAFgAAPIYPK6HSOgAAAAAAAAAAAAAAAAAAAAAAAAAAAAA==

>  <PUBCHEM_IUPAC_OPENEYE_NAME>
[(2R,3R,4S,5R,6R)-2,3,5-trihydroxy-6-(hydroxymethyl)tetrahydropyran-4-yl] (3aS,6E,10E,11aS)-3,10-dimethyl-2-oxo-3a,4,5,8,9,11a-hexahydro-3H-cyclodeca[b]furan-6-carboxylate

>  <PUBCHEM_IUPAC_CAS_NAME>
(3aS,6E,10E,11aS)-3,10-dimethyl-2-oxo-3a,4,5,8,9,11a-hexahydro-3H-cyclodeca[b]furan-6-carboxylic acid [(2R,3R,4S,5R,6R)-2,3,5-trihydroxy-6-(hydroxymethyl)-4-oxanyl] ester

>  <PUBCHEM_IUPAC_NAME>
[(2R,3R,4S,5R,6R)-2,3,5-trihydroxy-6-(hydroxymethyl)oxan-4-yl] (3aS,6E,10E,11aS)-3,10-dimethyl-2-oxo-3a,4,5,8,9,11a-hexahydro-3H-cyclodeca[b]furan-6-carboxylate

>  <PUBCHEM_IUPAC_SYSTEMATIC_NAME>
[(2R,3R,4S,5R,6R)-2-(hydroxymethyl)-3,5,6-tris(oxidanyl)oxan-4-yl] (3aS,6E,10E,11aS)-3,10-dimethyl-2-oxidanylidene-3a,4,5,8,9,11a-hexahydro-3H-cyclodeca[b]furan-6-carboxylate

>  <PUBCHEM_IUPAC_TRADITIONAL_NAME>
(3aS,6E,10E,11aS)-2-keto-3,10-dimethyl-3a,4,5,8,9,11a-hexahydro-3H-cyclodeca[b]furan-6-carboxylic acid [(2R,3R,4S,5R,6R)-2,3,5-trihydroxy-6-methylol-tetrahydropyran-4-yl] ester

>  <PUBCHEM_IUPAC_INCHI>
InChI=1S/C21H30O9/c1-10-4-3-5-12(6-7-13-11(2)19(25)28-14(13)8-10)20(26)30-18-16(23)15(9-22)29-21(27)17(18)24/h5,8,11,13-18,21-24,27H,3-4,6-7,9H2,1-2H3/b10-8+,12-5+/t11?,13-,14+,15+,16+,17+,18-,21+/m0/s1

>  <PUBCHEM_IUPAC_INCHIKEY>
GHCVBVCIPFPICQ-RYCRGVOFSA-N

>  <PUBCHEM_EXACT_MASS>
426.189

>  <PUBCHEM_MOLECULAR_FORMULA>
C21H30O9

>  <PUBCHEM_MOLECULAR_WEIGHT>
426.462

>  <PUBCHEM_OPENEYE_CAN_SMILES>
CC1C2CCC(=CCCC(=CC2OC1=O)C)C(=O)OC3C(C(OC(C3O)O)CO)O

>  <PUBCHEM_OPENEYE_ISO_SMILES>
CC1[C@@H]2CC/C(=C\CC/C(=C/[C@H]2OC1=O)/C)/C(=O)O[C@H]3[C@@H]([C@H](O[C@H]([C@@H]3O)O)CO)O

>  <PUBCHEM_CACTVS_TPSA>
143

>  <PUBCHEM_MONOISOTOPIC_WEIGHT>
426.189

>  <PUBCHEM_TOTAL_CHARGE>
0

>  <PUBCHEM_HEAVY_ATOM_COUNT>
30

>  <PUBCHEM_ATOM_DEF_STEREO_COUNT>
7

>  <PUBCHEM_ATOM_UDEF_STEREO_COUNT>
1

>  <PUBCHEM_BOND_DEF_STEREO_COUNT>
2

>  <PUBCHEM_BOND_UDEF_STEREO_COUNT>
0

>  <PUBCHEM_ISOTOPIC_ATOM_COUNT>
0

>  <PUBCHEM_COMPONENT_COUNT>
1

>  <PUBCHEM_CACTVS_TAUTO_COUNT>
2

>  <PUBCHEM_COORDINATE_TYPE>
1
5
255

>  <PUBCHEM_BONDANNOTATIONS>
10  31  5
11  21  3
12  33  6
19  26  5
14  3  5
16  4  6
18  5  6
22  7  5

$$$$
