131752715
 OpenBabel06101807152D

 42 44  0  0  1  0  0  0  0  0999 V2000
    7.2723   -0.2500    0.0000 O   0  0  0  0  0  0  0  0  0  0  0  0
    7.2723    1.7500    0.0000 O   0  0  0  0  0  0  0  0  0  0  0  0
    9.0043    2.7500    0.0000 O   0  0  0  0  0  0  0  0  0  0  0  0
    9.8703   -2.7500    0.0000 O   0  0  0  0  0  0  0  0  0  0  0  0
   11.6024   -1.7500    0.0000 O   0  0  0  0  0  0  0  0  0  0  0  0
    2.0024    1.7192    0.0000 O   0  0  0  0  0  0  0  0  0  0  0  0
    8.1383    0.2500    0.0000 C   0  0  3  0  0  0  0  0  0  0  0  0
    8.1383    1.2500    0.0000 C   0  0  3  0  0  0  0  0  0  0  0  0
    9.0043   -0.2500    0.0000 C   0  0  0  0  0  0  0  0  0  0  0  0
    9.0043    1.7500    0.0000 C   0  0  0  0  0  0  0  0  0  0  0  0
    6.4062    0.2500    0.0000 C   0  0  0  0  0  0  0  0  0  0  0  0
    6.4062    1.2500    0.0000 C   0  0  0  0  0  0  0  0  0  0  0  0
    9.0043   -1.2500    0.0000 C   0  0  0  0  0  0  0  0  0  0  0  0
    9.8703    0.2500    0.0000 C   0  0  0  0  0  0  0  0  0  0  0  0
    5.5123   -0.2847    0.0000 C   0  0  0  0  0  0  0  0  0  0  0  0
    5.5123    1.7847    0.0000 C   0  0  0  0  0  0  0  0  0  0  0  0
    4.6062    0.2292    0.0000 C   0  0  0  0  0  0  0  0  0  0  0  0
    4.6062    1.2708    0.0000 C   0  0  0  0  0  0  0  0  0  0  0  0
    9.8703   -1.7500    0.0000 C   0  0  0  0  0  0  0  0  0  0  0  0
   10.7364   -0.2500    0.0000 C   0  0  0  0  0  0  0  0  0  0  0  0
   10.7364   -1.2500    0.0000 C   0  0  0  0  0  0  0  0  0  0  0  0
    3.7421   -0.2742    0.0000 C   0  0  0  0  0  0  0  0  0  0  0  0
    2.8742    0.2225    0.0000 C   0  0  0  0  0  0  0  0  0  0  0  0
    2.8703    1.2225    0.0000 C   0  0  0  0  0  0  0  0  0  0  0  0
    8.6752    0.5600    0.0000 H   0  0  0  0  0  0  0  0  0  0  0  0
    8.1383    1.8700    0.0000 H   0  0  0  0  0  0  0  0  0  0  0  0
    9.2164    1.1674    0.0000 H   0  0  0  0  0  0  0  0  0  0  0  0
    9.6149    1.8577    0.0000 H   0  0  0  0  0  0  0  0  0  0  0  0
    8.4674   -1.5600    0.0000 H   0  0  0  0  0  0  0  0  0  0  0  0
    9.8703    0.8700    0.0000 H   0  0  0  0  0  0  0  0  0  0  0  0
    5.5195   -0.9046    0.0000 H   0  0  0  0  0  0  0  0  0  0  0  0
    5.5195    2.4046    0.0000 H   0  0  0  0  0  0  0  0  0  0  0  0
    4.0705    1.5829    0.0000 H   0  0  0  0  0  0  0  0  0  0  0  0
   11.2733    0.0600    0.0000 H   0  0  0  0  0  0  0  0  0  0  0  0
    9.5412    3.0600    0.0000 H   0  0  0  0  0  0  0  0  0  0  0  0
    3.7445   -0.8941    0.0000 H   0  0  0  0  0  0  0  0  0  0  0  0
   10.4073   -3.0600    0.0000 H   0  0  0  0  0  0  0  0  0  0  0  0
    2.3384   -0.0896    0.0000 H   0  0  0  0  0  0  0  0  0  0  0  0
   12.1393   -1.4400    0.0000 H   0  0  0  0  0  0  0  0  0  0  0  0
    3.4813    1.1172    0.0000 H   0  0  0  0  0  0  0  0  0  0  0  0
    3.0801    1.8059    0.0000 H   0  0  0  0  0  0  0  0  0  0  0  0
    2.0000    2.3392    0.0000 H   0  0  0  0  0  0  0  0  0  0  0  0
  1  7  1  0  0  0  0
  1 11  1  0  0  0  0
  2  8  1  0  0  0  0
  2 12  1  0  0  0  0
  3 10  1  0  0  0  0
  3 35  1  0  0  0  0
  4 19  1  0  0  0  0
  4 37  1  0  0  0  0
  5 21  1  0  0  0  0
  5 39  1  0  0  0  0
  6 24  1  0  0  0  0
  6 42  1  0  0  0  0
  7  8  1  0  0  0  0
  7  9  1  0  0  0  0
  7 25  1  0  0  0  0
  8 10  1  0  0  0  0
  8 26  1  0  0  0  0
  9 13  2  0  0  0  0
  9 14  1  0  0  0  0
 10 27  1  0  0  0  0
 10 28  1  0  0  0  0
 11 12  2  0  0  0  0
 11 15  1  0  0  0  0
 12 16  1  0  0  0  0
 13 19  1  0  0  0  0
 13 29  1  0  0  0  0
 14 20  2  0  0  0  0
 14 30  1  0  0  0  0
 15 17  2  0  0  0  0
 15 31  1  0  0  0  0
 16 18  2  0  0  0  0
 16 32  1  0  0  0  0
 17 18  1  0  0  0  0
 17 22  1  0  0  0  0
 18 33  1  0  0  0  0
 19 21  2  0  0  0  0
 20 21  1  0  0  0  0
 20 34  1  0  0  0  0
 22 23  2  0  0  0  0
 22 36  1  0  0  0  0
 23 24  1  0  0  0  0
 23 38  1  0  0  0  0
 24 40  1  0  0  0  0
 24 41  1  0  0  0  0
M  END
>  <PUBCHEM_COMPOUND_CID>
131752715

>  <PUBCHEM_COMPOUND_CANONICALIZED>
1

>  <PUBCHEM_CACTVS_COMPLEXITY>
428

>  <PUBCHEM_CACTVS_HBOND_ACCEPTOR>
6

>  <PUBCHEM_CACTVS_HBOND_DONOR>
4

>  <PUBCHEM_CACTVS_ROTATABLE_BOND>
4

>  <PUBCHEM_CACTVS_SUBSKEYS>
AAADceB4OAAAAAAAAAAAAAAAAAAAAAAAAAA0YIAAAAAAAACRQAAAGgAACAAADBSgmAIwBoAABgCAAiBCAAACCAAgIAAIiAAGiIgNNiKGMRqCeCOlwBELuAfA4LwOIAABAAAAQABAAAIAAACAAAAAAAAAAA==

>  <PUBCHEM_IUPAC_OPENEYE_NAME>
4-[2-(hydroxymethyl)-6-[(Z)-3-hydroxyprop-1-enyl]-2,3-dihydro-1,4-benzodioxin-3-yl]benzene-1,2-diol

>  <PUBCHEM_IUPAC_CAS_NAME>
4-[2-(hydroxymethyl)-6-[(Z)-3-hydroxyprop-1-enyl]-2,3-dihydro-1,4-benzodioxin-3-yl]benzene-1,2-diol

>  <PUBCHEM_IUPAC_NAME>
4-[2-(hydroxymethyl)-6-[(Z)-3-hydroxyprop-1-enyl]-2,3-dihydro-1,4-benzodioxin-3-yl]benzene-1,2-diol

>  <PUBCHEM_IUPAC_SYSTEMATIC_NAME>
4-[2-(hydroxymethyl)-6-[(Z)-3-oxidanylprop-1-enyl]-2,3-dihydro-1,4-benzodioxin-3-yl]benzene-1,2-diol

>  <PUBCHEM_IUPAC_TRADITIONAL_NAME>
4-[6-[(Z)-3-hydroxyprop-1-enyl]-2-methylol-2,3-dihydro-1,4-benzodioxin-3-yl]pyrocatechol

>  <PUBCHEM_IUPAC_INCHI>
InChI=1S/C18H18O6/c19-7-1-2-11-3-6-15-16(8-11)24-18(17(10-20)23-15)12-4-5-13(21)14(22)9-12/h1-6,8-9,17-22H,7,10H2/b2-1-

>  <PUBCHEM_IUPAC_INCHIKEY>
PPZYUSOIUGJLFB-UPHRSURJSA-N

>  <PUBCHEM_EXACT_MASS>
330.11

>  <PUBCHEM_MOLECULAR_FORMULA>
C18H18O6

>  <PUBCHEM_MOLECULAR_WEIGHT>
330.336

>  <PUBCHEM_OPENEYE_CAN_SMILES>
C1=CC2=C(C=C1C=CCO)OC(C(O2)CO)C3=CC(=C(C=C3)O)O

>  <PUBCHEM_OPENEYE_ISO_SMILES>
C1=CC2=C(C=C1/C=C\CO)OC(C(O2)CO)C3=CC(=C(C=C3)O)O

>  <PUBCHEM_CACTVS_TPSA>
99.4

>  <PUBCHEM_MONOISOTOPIC_WEIGHT>
330.11

>  <PUBCHEM_TOTAL_CHARGE>
0

>  <PUBCHEM_HEAVY_ATOM_COUNT>
24

>  <PUBCHEM_ATOM_DEF_STEREO_COUNT>
0

>  <PUBCHEM_ATOM_UDEF_STEREO_COUNT>
2

>  <PUBCHEM_BOND_DEF_STEREO_COUNT>
1

>  <PUBCHEM_BOND_UDEF_STEREO_COUNT>
0

>  <PUBCHEM_ISOTOPIC_ATOM_COUNT>
0

>  <PUBCHEM_COMPONENT_COUNT>
1

>  <PUBCHEM_CACTVS_TAUTO_COUNT>
10

>  <PUBCHEM_COORDINATE_TYPE>
1
5
255

>  <PUBCHEM_BONDANNOTATIONS>
11  12  8
11  15  8
12  16  8
13  19  8
14  20  8
15  17  8
16  18  8
17  18  8
19  21  8
20  21  8
7  9  3
8  10  3
9  13  8
9  14  8

$$$$
