131751184
 OpenBabel06101807152D

 30 30  0  0  1  0  0  0  0  0999 V2000
    2.8660    2.5981    0.0000 O   0  0  0  0  0  0  0  0  0  0  0  0
    4.3660    1.7320    0.0000 O   0  0  0  0  0  0  0  0  0  0  0  0
    4.8660    0.8660    0.0000 O   0  0  0  0  0  0  0  0  0  0  0  0
    7.8660   -2.5981    0.0000 O   0  0  0  0  0  0  0  0  0  0  0  0
    7.8660   -0.8660    0.0000 O   0  0  0  0  0  0  0  0  0  0  0  0
    3.3660    0.0000    0.0000 N   0  0  0  0  0  0  0  0  0  0  0  0
    5.8660   -2.5981    0.0000 N   0  0  0  0  0  0  0  0  0  0  0  0
    2.8660    0.8660    0.0000 C   0  0  0  0  0  0  0  0  0  0  0  0
    2.0000    0.3660    0.0000 C   0  0  0  0  0  0  0  0  0  0  0  0
    2.0000    1.3660    0.0000 C   0  0  0  0  0  0  0  0  0  0  0  0
    3.3660    1.7320    0.0000 C   0  0  0  0  0  0  0  0  0  0  0  0
    4.3660    0.0000    0.0000 C   0  0  0  0  0  0  0  0  0  0  0  0
    4.8660   -0.8660    0.0000 C   0  0  0  0  0  0  0  0  0  0  0  0
    5.8660   -0.8660    0.0000 C   0  0  0  0  0  0  0  0  0  0  0  0
    6.3660   -1.7320    0.0000 C   0  0  3  0  0  0  0  0  0  0  0  0
    7.3660   -1.7320    0.0000 C   0  0  0  0  0  0  0  0  0  0  0  0
    2.2120    1.9486    0.0000 H   0  0  0  0  0  0  0  0  0  0  0  0
    1.3894    1.4737    0.0000 H   0  0  0  0  0  0  0  0  0  0  0  0
    1.3894    0.2584    0.0000 H   0  0  0  0  0  0  0  0  0  0  0  0
    2.2120   -0.2166    0.0000 H   0  0  0  0  0  0  0  0  0  0  0  0
    3.0560   -0.5369    0.0000 H   0  0  0  0  0  0  0  0  0  0  0  0
    4.2834   -1.0781    0.0000 H   0  0  0  0  0  0  0  0  0  0  0  0
    4.9737   -1.4766    0.0000 H   0  0  0  0  0  0  0  0  0  0  0  0
    6.4486   -0.6540    0.0000 H   0  0  0  0  0  0  0  0  0  0  0  0
    5.7584   -0.2554    0.0000 H   0  0  0  0  0  0  0  0  0  0  0  0
    6.6760   -2.2690    0.0000 H   0  0  0  0  0  0  0  0  0  0  0  0
    3.1760    3.1350    0.0000 H   0  0  0  0  0  0  0  0  0  0  0  0
    6.1760   -3.1350    0.0000 H   0  0  0  0  0  0  0  0  0  0  0  0
    5.2460   -2.5981    0.0000 H   0  0  0  0  0  0  0  0  0  0  0  0
    8.4860   -2.5981    0.0000 H   0  0  0  0  0  0  0  0  0  0  0  0
  1 11  1  0  0  0  0
  1 27  1  0  0  0  0
  2 11  2  0  0  0  0
  3 12  2  0  0  0  0
  4 16  1  0  0  0  0
  4 30  1  0  0  0  0
  5 16  2  0  0  0  0
  6  8  1  0  0  0  0
  6 12  1  0  0  0  0
  6 21  1  0  0  0  0
  7 15  1  0  0  0  0
  7 28  1  0  0  0  0
  7 29  1  0  0  0  0
  8  9  1  0  0  0  0
  8 10  1  0  0  0  0
  8 11  1  0  0  0  0
  9 10  1  0  0  0  0
  9 19  1  0  0  0  0
  9 20  1  0  0  0  0
 10 17  1  0  0  0  0
 10 18  1  0  0  0  0
 12 13  1  0  0  0  0
 13 14  1  0  0  0  0
 13 22  1  0  0  0  0
 13 23  1  0  0  0  0
 14 15  1  0  0  0  0
 14 24  1  0  0  0  0
 14 25  1  0  0  0  0
 15 16  1  0  0  0  0
 15 26  1  0  0  0  0
M  END
>  <PUBCHEM_COMPOUND_CID>
131751184

>  <PUBCHEM_COMPOUND_CANONICALIZED>
1

>  <PUBCHEM_CACTVS_COMPLEXITY>
324

>  <PUBCHEM_CACTVS_HBOND_ACCEPTOR>
6

>  <PUBCHEM_CACTVS_HBOND_DONOR>
4

>  <PUBCHEM_CACTVS_ROTATABLE_BOND>
6

>  <PUBCHEM_CACTVS_SUBSKEYS>
AAADccBzOAAAAAAAAAAAAAAAGAAAAAAAAAAAAAAAAAAAAAAAAAAAHgAQCAAADKjBgAQACALAAgAIAAGQGAAAAAAAAAAAAIGAAAACABIAgCAEQAAEFACQAACcFwIAAAAAAAAAAAAAAAAAAAAAAAAAAAAAAA==

>  <PUBCHEM_IUPAC_OPENEYE_NAME>
1-[(4-amino-4-carboxy-butanoyl)amino]cyclopropanecarboxylic acid

>  <PUBCHEM_IUPAC_CAS_NAME>
1-[(4-amino-4-carboxy-1-oxobutyl)amino]-1-cyclopropanecarboxylic acid

>  <PUBCHEM_IUPAC_NAME>
1-[(4-amino-4-carboxybutanoyl)amino]cyclopropane-1-carboxylic acid

>  <PUBCHEM_IUPAC_SYSTEMATIC_NAME>
1-[(4-azanyl-5-oxidanyl-5-oxidanylidene-pentanoyl)amino]cyclopropane-1-carboxylic acid

>  <PUBCHEM_IUPAC_TRADITIONAL_NAME>
1-[(4-amino-4-carboxy-butanoyl)amino]cyclopropanecarboxylic acid

>  <PUBCHEM_IUPAC_INCHI>
InChI=1S/C9H14N2O5/c10-5(7(13)14)1-2-6(12)11-9(3-4-9)8(15)16/h5H,1-4,10H2,(H,11,12)(H,13,14)(H,15,16)

>  <PUBCHEM_IUPAC_INCHIKEY>
FQRKFJSYMKRNGO-UHFFFAOYSA-N

>  <PUBCHEM_EXACT_MASS>
230.09

>  <PUBCHEM_MOLECULAR_FORMULA>
C9H14N2O5

>  <PUBCHEM_MOLECULAR_WEIGHT>
230.22

>  <PUBCHEM_OPENEYE_CAN_SMILES>
C1CC1(C(=O)O)NC(=O)CCC(C(=O)O)N

>  <PUBCHEM_OPENEYE_ISO_SMILES>
C1CC1(C(=O)O)NC(=O)CCC(C(=O)O)N

>  <PUBCHEM_CACTVS_TPSA>
130

>  <PUBCHEM_MONOISOTOPIC_WEIGHT>
230.09

>  <PUBCHEM_TOTAL_CHARGE>
0

>  <PUBCHEM_HEAVY_ATOM_COUNT>
16

>  <PUBCHEM_ATOM_DEF_STEREO_COUNT>
0

>  <PUBCHEM_ATOM_UDEF_STEREO_COUNT>
1

>  <PUBCHEM_BOND_DEF_STEREO_COUNT>
0

>  <PUBCHEM_BOND_UDEF_STEREO_COUNT>
0

>  <PUBCHEM_ISOTOPIC_ATOM_COUNT>
0

>  <PUBCHEM_COMPONENT_COUNT>
1

>  <PUBCHEM_CACTVS_TAUTO_COUNT>
2

>  <PUBCHEM_COORDINATE_TYPE>
1
5
255

>  <PUBCHEM_BONDANNOTATIONS>
15  7  3

$$$$
