131752311
 OpenBabel06101807152D

 73 77  0  0  1  0  0  0  0  0999 V2000
    6.1241   -2.3535    0.0000 O   0  0  0  0  0  0  0  0  0  0  0  0
    8.8187   -2.8952    0.0000 O   0  0  0  0  0  0  0  0  0  0  0  0
    5.2862   -2.8813    0.0000 O   0  0  0  0  0  0  0  0  0  0  0  0
    4.1768    1.5276    0.0000 O   0  0  0  0  0  0  0  0  0  0  0  0
    3.5045   -1.8709    0.0000 O   0  0  0  0  0  0  0  0  0  0  0  0
    7.9128   -4.4160    0.0000 O   0  0  0  0  0  0  0  0  0  0  0  0
    2.4004    0.0290    0.0000 O   0  0  0  0  0  0  0  0  0  0  0  0
   11.2495   -0.9889    0.0000 O   0  0  0  0  0  0  0  0  0  0  0  0
    6.4970    3.4292    0.0000 O   0  0  0  0  0  0  0  0  0  0  0  0
    4.7879    3.1482    0.0000 O   0  0  0  0  0  0  0  0  0  0  0  0
    7.0346   -1.8467    0.0000 C   0  0  1  0  0  0  0  0  0  0  0  0
    6.1686   -1.3467    0.0000 C   0  0  1  0  0  0  0  0  0  0  0  0
    7.9007   -1.3467    0.0000 C   0  0  1  0  0  0  0  0  0  0  0  0
    6.1686   -0.3467    0.0000 C   0  0  3  0  0  0  0  0  0  0  0  0
    7.0186   -2.8882    0.0000 C   0  0  1  0  0  0  0  0  0  0  0  0
    5.2747    0.1879    0.0000 C   0  0  2  0  0  0  0  0  0  0  0  0
    7.9007   -0.3467    0.0000 C   0  0  0  0  0  0  0  0  0  0  0  0
    7.0346    0.1533    0.0000 C   0  0  0  0  0  0  0  0  0  0  0  0
    5.2747   -1.8814    0.0000 C   0  0  2  0  0  0  0  0  0  0  0  0
    8.8107   -1.8536    0.0000 C   0  0  2  0  0  0  0  0  0  0  0  0
    4.3686   -0.3259    0.0000 C   0  0  3  0  0  0  0  0  0  0  0  0
    6.8187   -2.4725    0.0000 C   0  0  0  0  0  0  0  0  0  0  0  0
    8.7667   -0.8467    0.0000 C   0  0  0  0  0  0  0  0  0  0  0  0
    4.3686   -1.3675    0.0000 C   0  0  0  0  0  0  0  0  0  0  0  0
    7.9166   -3.4160    0.0000 C   0  0  0  0  0  0  0  0  0  0  0  0
    5.1124    1.1747    0.0000 C   0  0  2  0  0  0  0  0  0  0  0  0
    5.7847    1.0481    0.0000 C   0  0  0  0  0  0  0  0  0  0  0  0
    3.3845   -0.1485    0.0000 C   0  0  0  0  0  0  0  0  0  0  0  0
    9.6709   -1.3436    0.0000 C   0  0  0  0  0  0  0  0  0  0  0  0
    5.8859    1.8086    0.0000 C   0  0  0  0  0  0  0  0  0  0  0  0
    3.2070   -1.1325    0.0000 C   0  0  0  0  0  0  0  0  0  0  0  0
    3.5619    0.8357    0.0000 C   0  0  0  0  0  0  0  0  0  0  0  0
    9.7639   -0.3479    0.0000 C   0  0  0  0  0  0  0  0  0  0  0  0
   10.5891   -1.7397    0.0000 C   0  0  0  0  0  0  0  0  0  0  0  0
    5.7236    2.7953    0.0000 C   0  0  0  0  0  0  0  0  0  0  0  0
   10.7396   -0.1287    0.0000 C   0  0  0  0  0  0  0  0  0  0  0  0
    6.3348    4.4160    0.0000 C   0  0  0  0  0  0  0  0  0  0  0  0
    6.1734    0.2733    0.0000 H   0  0  0  0  0  0  0  0  0  0  0  0
    6.5852   -3.6194    0.0000 H   0  0  0  0  0  0  0  0  0  0  0  0
    8.5113   -0.4544    0.0000 H   0  0  0  0  0  0  0  0  0  0  0  0
    8.1127    0.2359    0.0000 H   0  0  0  0  0  0  0  0  0  0  0  0
    7.4332    0.6282    0.0000 H   0  0  0  0  0  0  0  0  0  0  0  0
    6.6361    0.6282    0.0000 H   0  0  0  0  0  0  0  0  0  0  0  0
    5.8158   -2.1841    0.0000 H   0  0  0  0  0  0  0  0  0  0  0  0
    9.3506   -2.1584    0.0000 H   0  0  0  0  0  0  0  0  0  0  0  0
    3.8929   -0.7235    0.0000 H   0  0  0  0  0  0  0  0  0  0  0  0
    6.2818   -2.7825    0.0000 H   0  0  0  0  0  0  0  0  0  0  0  0
    7.1288   -3.0094    0.0000 H   0  0  0  0  0  0  0  0  0  0  0  0
    7.3556   -2.1624    0.0000 H   0  0  0  0  0  0  0  0  0  0  0  0
    9.0767   -1.3836    0.0000 H   0  0  0  0  0  0  0  0  0  0  0  0
    9.3036   -0.5367    0.0000 H   0  0  0  0  0  0  0  0  0  0  0  0
    8.4567   -0.3098    0.0000 H   0  0  0  0  0  0  0  0  0  0  0  0
    4.6329    0.7817    0.0000 H   0  0  0  0  0  0  0  0  0  0  0  0
    6.3180    0.7319    0.0000 H   0  0  0  0  0  0  0  0  0  0  0  0
    6.1008    1.5814    0.0000 H   0  0  0  0  0  0  0  0  0  0  0  0
    5.2514    1.3643    0.0000 H   0  0  0  0  0  0  0  0  0  0  0  0
    4.7529   -3.1975    0.0000 H   0  0  0  0  0  0  0  0  0  0  0  0
    6.1896    1.2681    0.0000 H   0  0  0  0  0  0  0  0  0  0  0  0
    6.4709    2.0139    0.0000 H   0  0  0  0  0  0  0  0  0  0  0  0
    2.5968   -1.0225    0.0000 H   0  0  0  0  0  0  0  0  0  0  0  0
    3.0970   -1.7427    0.0000 H   0  0  0  0  0  0  0  0  0  0  0  0
    3.8172   -1.2426    0.0000 H   0  0  0  0  0  0  0  0  0  0  0  0
    4.1721    0.7257    0.0000 H   0  0  0  0  0  0  0  0  0  0  0  0
    3.6719    1.4458    0.0000 H   0  0  0  0  0  0  0  0  0  0  0  0
    2.9518    0.9457    0.0000 H   0  0  0  0  0  0  0  0  0  0  0  0
    4.0762    2.1393    0.0000 H   0  0  0  0  0  0  0  0  0  0  0  0
    9.2984    0.0616    0.0000 H   0  0  0  0  0  0  0  0  0  0  0  0
    2.0000   -0.4444    0.0000 H   0  0  0  0  0  0  0  0  0  0  0  0
   10.7250   -2.3446    0.0000 H   0  0  0  0  0  0  0  0  0  0  0  0
   10.9852    0.4406    0.0000 H   0  0  0  0  0  0  0  0  0  0  0  0
    6.9466    4.5166    0.0000 H   0  0  0  0  0  0  0  0  0  0  0  0
    6.2342    5.0278    0.0000 H   0  0  0  0  0  0  0  0  0  0  0  0
    5.7230    4.3154    0.0000 H   0  0  0  0  0  0  0  0  0  0  0  0
  1 15  1  0  0  0  0
  2 20  1  0  0  0  0
  2 25  1  0  0  0  0
  3 57  1  0  0  0  0
  4 66  1  0  0  0  0
  5 24  2  0  0  0  0
  6 25  2  0  0  0  0
  7 28  1  0  0  0  0
  7 68  1  0  0  0  0
  8 34  1  0  0  0  0
  8 36  1  0  0  0  0
  9 35  1  0  0  0  0
  9 37  1  0  0  0  0
 10 35  2  0  0  0  0
 11  1  1  0  0  0  0
 11 12  1  6  0  0  0
 12 14  1  1  0  0  0
 12 22  1  0  0  0  0
 13 11  1  6  0  0  0
 13 17  1  0  0  0  0
 13 23  1  0  0  0  0
 14 18  1  0  0  0  0
 14 38  1  0  0  0  0
 15 11  1  6  0  0  0
 15 25  1  0  0  0  0
 15 39  1  0  0  0  0
 16 14  1  6  0  0  0
 16 21  1  0  0  0  0
 16 26  1  0  0  0  0
 16 27  1  0  0  0  0
 17 18  1  0  0  0  0
 17 40  1  0  0  0  0
 17 41  1  0  0  0  0
 18 42  1  0  0  0  0
 18 43  1  0  0  0  0
 19  3  1  0  0  0  0
 19 12  1  1  0  0  0
 19 24  1  0  0  0  0
 19 44  1  0  0  0  0
 20 13  1  1  0  0  0
 20 29  1  0  0  0  0
 20 45  1  0  0  0  0
 21 24  1  0  0  0  0
 21 28  1  0  0  0  0
 21 46  1  0  0  0  0
 22 47  1  0  0  0  0
 22 48  1  0  0  0  0
 22 49  1  0  0  0  0
 23 50  1  0  0  0  0
 23 51  1  0  0  0  0
 23 52  1  0  0  0  0
 26  4  1  0  0  0  0
 26 30  1  0  0  0  0
 26 53  1  6  0  0  0
 27 54  1  0  0  0  0
 27 55  1  0  0  0  0
 27 56  1  0  0  0  0
 28 31  1  0  0  0  0
 28 32  1  0  0  0  0
 29 33  1  0  0  0  0
 29 34  2  0  0  0  0
 30 35  1  0  0  0  0
 30 58  1  0  0  0  0
 30 59  1  0  0  0  0
 31 60  1  0  0  0  0
 31 61  1  0  0  0  0
 31 62  1  0  0  0  0
 32 63  1  0  0  0  0
 32 64  1  0  0  0  0
 32 65  1  0  0  0  0
 33 36  2  0  0  0  0
 33 67  1  0  0  0  0
 34 69  1  0  0  0  0
 36 70  1  0  0  0  0
 37 71  1  0  0  0  0
 37 72  1  0  0  0  0
 37 73  1  0  0  0  0
M  END
>  <PUBCHEM_COMPOUND_CID>
131752311

>  <PUBCHEM_COMPOUND_CANONICALIZED>
1

>  <PUBCHEM_CACTVS_COMPLEXITY>
1010

>  <PUBCHEM_CACTVS_HBOND_ACCEPTOR>
10

>  <PUBCHEM_CACTVS_HBOND_DONOR>
3

>  <PUBCHEM_CACTVS_ROTATABLE_BOND>
6

>  <PUBCHEM_CACTVS_SUBSKEYS>
AAADcfB4PAAAAAAAAAAAAAAAEgAAASAAAAA0YIAABIAAAADRgAAAGgAACAAAD1SgmAIyDIAABkCIAqjSiAICCAAkIAAIiAFGCMgNNxYENQ6CWSCl4BEKKYPK7PzPgAAAAAAAAADAAAYAADAAAAAAAAAAAA==

>  <PUBCHEM_IUPAC_INCHI>
InChI=1S/C27H36O10/c1-23(2,33)18-17(30)19(31)26(5)14(25(18,4)15(28)11-16(29)34-6)7-9-24(3)20(13-8-10-35-12-13)36-22(32)21-27(24,26)37-21/h8,10,12,14-15,18-21,28,31,33H,7,9,11H2,1-6H3/t14?,15-,18?,19-,20-,21+,24-,25-,26-,27+/m0/s1

>  <PUBCHEM_IUPAC_INCHIKEY>
DQSNUOLMAKKASD-KUNOYEQWSA-N

>  <PUBCHEM_EXACT_MASS>
520.231

>  <PUBCHEM_MOLECULAR_FORMULA>
C27H36O10

>  <PUBCHEM_MOLECULAR_WEIGHT>
520.575

>  <PUBCHEM_OPENEYE_CAN_SMILES>
CC12CCC3C(C(C(=O)C(C3(C14C(O4)C(=O)OC2C5=COC=C5)C)O)C(C)(C)O)(C)C(CC(=O)OC)O

>  <PUBCHEM_OPENEYE_ISO_SMILES>
C[C@@]12CCC3[C@]([C@@]14[C@H](O4)C(=O)O[C@H]2C5=COC=C5)([C@H](C(=O)C([C@]3(C)[C@H](CC(=O)OC)O)C(C)(C)O)O)C

>  <PUBCHEM_CACTVS_TPSA>
156

>  <PUBCHEM_MONOISOTOPIC_WEIGHT>
520.231

>  <PUBCHEM_TOTAL_CHARGE>
0

>  <PUBCHEM_HEAVY_ATOM_COUNT>
37

>  <PUBCHEM_ATOM_DEF_STEREO_COUNT>
8

>  <PUBCHEM_ATOM_UDEF_STEREO_COUNT>
2

>  <PUBCHEM_BOND_DEF_STEREO_COUNT>
0

>  <PUBCHEM_BOND_UDEF_STEREO_COUNT>
0

>  <PUBCHEM_ISOTOPIC_ATOM_COUNT>
0

>  <PUBCHEM_COMPONENT_COUNT>
1

>  <PUBCHEM_CACTVS_TAUTO_COUNT>
4

>  <PUBCHEM_COORDINATE_TYPE>
1
5
255

>  <PUBCHEM_BONDANNOTATIONS>
11  1  5
12  22  5
13  23  6
14  18  3
15  39  6
16  27  5
20  29  6
21  28  3
29  33  8
29  34  8
19  3  5
33  36  8
26  4  5
8  34  8
8  36  8

$$$$
