131751673
 OpenBabel06101807152D

 97 97  0  0  1  0  0  0  0  0999 V2000
   20.5000   -0.7315    0.0000 O   0  0  0  0  0  0  0  0  0  0  0  0
   21.3660   -0.2315    0.0000 C   0  0  3  0  0  0  0  0  0  0  0  0
   20.5000    0.2685    0.0000 C   0  0  3  0  0  0  0  0  0  0  0  0
   21.8660    0.6345    0.0000 C   0  0  0  0  0  0  0  0  0  0  0  0
   21.8660   -1.0976    0.0000 C   0  0  0  0  0  0  0  0  0  0  0  0
   20.0000    1.1345    0.0000 C   0  0  0  0  0  0  0  0  0  0  0  0
   22.8660    0.6345    0.0000 C   0  0  0  0  0  0  0  0  0  0  0  0
   19.0000    1.1345    0.0000 C   0  0  0  0  0  0  0  0  0  0  0  0
   23.3660    1.5005    0.0000 C   0  0  0  0  0  0  0  0  0  0  0  0
   24.3660    1.5005    0.0000 C   0  0  0  0  0  0  0  0  0  0  0  0
   18.5000    2.0005    0.0000 C   0  0  0  0  0  0  0  0  0  0  0  0
   24.8660    2.3665    0.0000 C   0  0  0  0  0  0  0  0  0  0  0  0
   24.8660    0.6345    0.0000 C   0  0  0  0  0  0  0  0  0  0  0  0
   19.0000    2.8665    0.0000 C   0  0  0  0  0  0  0  0  0  0  0  0
   17.5000    2.0005    0.0000 C   0  0  0  0  0  0  0  0  0  0  0  0
   17.0000    1.1345    0.0000 C   0  0  0  0  0  0  0  0  0  0  0  0
   16.0000    1.1345    0.0000 C   0  0  0  0  0  0  0  0  0  0  0  0
   15.5000    0.2685    0.0000 C   0  0  0  0  0  0  0  0  0  0  0  0
   16.0000   -0.5976    0.0000 C   0  0  0  0  0  0  0  0  0  0  0  0
   14.5000    0.2685    0.0000 C   0  0  0  0  0  0  0  0  0  0  0  0
   14.0000   -0.5976    0.0000 C   0  0  0  0  0  0  0  0  0  0  0  0
    5.0000   -0.5976    0.0000 C   0  0  0  0  0  0  0  0  0  0  0  0
    4.0000   -0.5976    0.0000 C   0  0  0  0  0  0  0  0  0  0  0  0
    5.5000    0.2685    0.0000 C   0  0  0  0  0  0  0  0  0  0  0  0
   13.0000   -0.5976    0.0000 C   0  0  0  0  0  0  0  0  0  0  0  0
    3.5000   -1.4636    0.0000 C   0  0  0  0  0  0  0  0  0  0  0  0
    2.5000   -1.4636    0.0000 C   0  0  0  0  0  0  0  0  0  0  0  0
    5.0000    1.1345    0.0000 C   0  0  0  0  0  0  0  0  0  0  0  0
    6.5000    0.2685    0.0000 C   0  0  0  0  0  0  0  0  0  0  0  0
   12.5000   -1.4636    0.0000 C   0  0  0  0  0  0  0  0  0  0  0  0
    2.0000   -2.3296    0.0000 C   0  0  0  0  0  0  0  0  0  0  0  0
    2.0000   -0.5976    0.0000 C   0  0  0  0  0  0  0  0  0  0  0  0
    7.0000   -0.5976    0.0000 C   0  0  0  0  0  0  0  0  0  0  0  0
   11.5000   -1.4636    0.0000 C   0  0  0  0  0  0  0  0  0  0  0  0
    8.0000   -0.5976    0.0000 C   0  0  0  0  0  0  0  0  0  0  0  0
    8.5000   -1.4636    0.0000 C   0  0  0  0  0  0  0  0  0  0  0  0
   11.0000   -2.3296    0.0000 C   0  0  0  0  0  0  0  0  0  0  0  0
    9.5000   -1.4636    0.0000 C   0  0  0  0  0  0  0  0  0  0  0  0
   11.0000   -0.5976    0.0000 C   0  0  0  0  0  0  0  0  0  0  0  0
   10.0000   -2.3296    0.0000 C   0  0  0  0  0  0  0  0  0  0  0  0
    8.0000   -2.3296    0.0000 C   0  0  0  0  0  0  0  0  0  0  0  0
   19.9011    0.1080    0.0000 H   0  0  0  0  0  0  0  0  0  0  0  0
   21.9737    1.2451    0.0000 H   0  0  0  0  0  0  0  0  0  0  0  0
   21.2834    0.8465    0.0000 H   0  0  0  0  0  0  0  0  0  0  0  0
   21.3291   -1.4076    0.0000 H   0  0  0  0  0  0  0  0  0  0  0  0
   22.1760   -1.6345    0.0000 H   0  0  0  0  0  0  0  0  0  0  0  0
   22.4030   -0.7876    0.0000 H   0  0  0  0  0  0  0  0  0  0  0  0
   20.3100    1.6714    0.0000 H   0  0  0  0  0  0  0  0  0  0  0  0
   22.7584    0.0239    0.0000 H   0  0  0  0  0  0  0  0  0  0  0  0
   23.4486    0.4224    0.0000 H   0  0  0  0  0  0  0  0  0  0  0  0
   18.6900    0.5976    0.0000 H   0  0  0  0  0  0  0  0  0  0  0  0
   23.0560    2.0375    0.0000 H   0  0  0  0  0  0  0  0  0  0  0  0
   25.4030    2.0565    0.0000 H   0  0  0  0  0  0  0  0  0  0  0  0
   25.1760    2.9035    0.0000 H   0  0  0  0  0  0  0  0  0  0  0  0
   24.3291    2.6765    0.0000 H   0  0  0  0  0  0  0  0  0  0  0  0
   24.3291    0.3245    0.0000 H   0  0  0  0  0  0  0  0  0  0  0  0
   25.1760    0.0976    0.0000 H   0  0  0  0  0  0  0  0  0  0  0  0
   25.4030    0.9445    0.0000 H   0  0  0  0  0  0  0  0  0  0  0  0
   19.5369    2.5565    0.0000 H   0  0  0  0  0  0  0  0  0  0  0  0
   19.3100    3.4035    0.0000 H   0  0  0  0  0  0  0  0  0  0  0  0
   18.4631    3.1765    0.0000 H   0  0  0  0  0  0  0  0  0  0  0  0
   17.1900    2.5375    0.0000 H   0  0  0  0  0  0  0  0  0  0  0  0
   17.3100    0.5976    0.0000 H   0  0  0  0  0  0  0  0  0  0  0  0
   15.6900    1.6714    0.0000 H   0  0  0  0  0  0  0  0  0  0  0  0
   15.4631   -0.9076    0.0000 H   0  0  0  0  0  0  0  0  0  0  0  0
   16.3100   -1.1345    0.0000 H   0  0  0  0  0  0  0  0  0  0  0  0
   16.5369   -0.2876    0.0000 H   0  0  0  0  0  0  0  0  0  0  0  0
   14.1900    0.8054    0.0000 H   0  0  0  0  0  0  0  0  0  0  0  0
   14.3100   -1.1345    0.0000 H   0  0  0  0  0  0  0  0  0  0  0  0
    4.8923   -1.2081    0.0000 H   0  0  0  0  0  0  0  0  0  0  0  0
    5.5826   -0.8096    0.0000 H   0  0  0  0  0  0  0  0  0  0  0  0
    4.1077    0.0130    0.0000 H   0  0  0  0  0  0  0  0  0  0  0  0
    3.4174   -0.3855    0.0000 H   0  0  0  0  0  0  0  0  0  0  0  0
   12.6900   -0.0606    0.0000 H   0  0  0  0  0  0  0  0  0  0  0  0
    3.8100   -2.0005    0.0000 H   0  0  0  0  0  0  0  0  0  0  0  0
    5.5369    1.4445    0.0000 H   0  0  0  0  0  0  0  0  0  0  0  0
    4.6900    1.6714    0.0000 H   0  0  0  0  0  0  0  0  0  0  0  0
    4.4631    0.8245    0.0000 H   0  0  0  0  0  0  0  0  0  0  0  0
    6.8100    0.8054    0.0000 H   0  0  0  0  0  0  0  0  0  0  0  0
   12.8100   -2.0005    0.0000 H   0  0  0  0  0  0  0  0  0  0  0  0
    1.4631   -2.0196    0.0000 H   0  0  0  0  0  0  0  0  0  0  0  0
    1.6900   -2.8665    0.0000 H   0  0  0  0  0  0  0  0  0  0  0  0
    2.5369   -2.6396    0.0000 H   0  0  0  0  0  0  0  0  0  0  0  0
    2.5369   -0.2876    0.0000 H   0  0  0  0  0  0  0  0  0  0  0  0
    1.6900   -0.0606    0.0000 H   0  0  0  0  0  0  0  0  0  0  0  0
    1.4631   -0.9076    0.0000 H   0  0  0  0  0  0  0  0  0  0  0  0
    6.6900   -1.1345    0.0000 H   0  0  0  0  0  0  0  0  0  0  0  0
    8.3100   -0.0606    0.0000 H   0  0  0  0  0  0  0  0  0  0  0  0
   11.3100   -2.8665    0.0000 H   0  0  0  0  0  0  0  0  0  0  0  0
    9.8100   -0.9266    0.0000 H   0  0  0  0  0  0  0  0  0  0  0  0
   11.5369   -0.2876    0.0000 H   0  0  0  0  0  0  0  0  0  0  0  0
   10.6900   -0.0606    0.0000 H   0  0  0  0  0  0  0  0  0  0  0  0
   10.4631   -0.9076    0.0000 H   0  0  0  0  0  0  0  0  0  0  0  0
    7.4631   -2.0196    0.0000 H   0  0  0  0  0  0  0  0  0  0  0  0
    7.6900   -2.8665    0.0000 H   0  0  0  0  0  0  0  0  0  0  0  0
    8.5369   -2.6396    0.0000 H   0  0  0  0  0  0  0  0  0  0  0  0
    9.6900   -2.8665    0.0000 H   0  0  0  0  0  0  0  0  0  0  0  0
  1  2  1  0  0  0  0
  1  3  1  0  0  0  0
  2  3  1  0  0  0  0
  2  4  1  0  0  0  0
  2  5  1  0  0  0  0
  3  6  1  0  0  0  0
  3 42  1  0  0  0  0
  4  7  1  0  0  0  0
  4 43  1  0  0  0  0
  4 44  1  0  0  0  0
  5 45  1  0  0  0  0
  5 46  1  0  0  0  0
  5 47  1  0  0  0  0
  6  8  2  0  0  0  0
  6 48  1  0  0  0  0
  7  9  1  0  0  0  0
  7 49  1  0  0  0  0
  7 50  1  0  0  0  0
  8 11  1  0  0  0  0
  8 51  1  0  0  0  0
  9 10  2  0  0  0  0
  9 52  1  0  0  0  0
 10 12  1  0  0  0  0
 10 13  1  0  0  0  0
 11 14  1  0  0  0  0
 11 15  2  0  0  0  0
 12 53  1  0  0  0  0
 12 54  1  0  0  0  0
 12 55  1  0  0  0  0
 13 56  1  0  0  0  0
 13 57  1  0  0  0  0
 13 58  1  0  0  0  0
 14 59  1  0  0  0  0
 14 60  1  0  0  0  0
 14 61  1  0  0  0  0
 15 16  1  0  0  0  0
 15 62  1  0  0  0  0
 16 17  2  0  0  0  0
 16 63  1  0  0  0  0
 17 18  1  0  0  0  0
 17 64  1  0  0  0  0
 18 19  1  0  0  0  0
 18 20  2  0  0  0  0
 19 65  1  0  0  0  0
 19 66  1  0  0  0  0
 19 67  1  0  0  0  0
 20 21  1  0  0  0  0
 20 68  1  0  0  0  0
 21 25  2  0  0  0  0
 21 69  1  0  0  0  0
 22 23  1  0  0  0  0
 22 24  1  0  0  0  0
 22 70  1  0  0  0  0
 22 71  1  0  0  0  0
 23 26  1  0  0  0  0
 23 72  1  0  0  0  0
 23 73  1  0  0  0  0
 24 28  1  0  0  0  0
 24 29  2  0  0  0  0
 25 30  1  0  0  0  0
 25 74  1  0  0  0  0
 26 27  2  0  0  0  0
 26 75  1  0  0  0  0
 27 31  1  0  0  0  0
 27 32  1  0  0  0  0
 28 76  1  0  0  0  0
 28 77  1  0  0  0  0
 28 78  1  0  0  0  0
 29 33  1  0  0  0  0
 29 79  1  0  0  0  0
 30 34  2  0  0  0  0
 30 80  1  0  0  0  0
 31 81  1  0  0  0  0
 31 82  1  0  0  0  0
 31 83  1  0  0  0  0
 32 84  1  0  0  0  0
 32 85  1  0  0  0  0
 32 86  1  0  0  0  0
 33 35  2  0  0  0  0
 33 87  1  0  0  0  0
 34 37  1  0  0  0  0
 34 39  1  0  0  0  0
 35 36  1  0  0  0  0
 35 88  1  0  0  0  0
 36 38  2  0  0  0  0
 36 41  1  0  0  0  0
 37 40  2  0  0  0  0
 37 89  1  0  0  0  0
 38 40  1  0  0  0  0
 38 90  1  0  0  0  0
 39 91  1  0  0  0  0
 39 92  1  0  0  0  0
 39 93  1  0  0  0  0
 40 97  1  0  0  0  0
 41 94  1  0  0  0  0
 41 95  1  0  0  0  0
 41 96  1  0  0  0  0
M  END
>  <PUBCHEM_COMPOUND_CID>
131751673

>  <PUBCHEM_COMPOUND_CANONICALIZED>
1

>  <PUBCHEM_CACTVS_COMPLEXITY>
1190

>  <PUBCHEM_CACTVS_HBOND_ACCEPTOR>
1

>  <PUBCHEM_CACTVS_HBOND_DONOR>
0

>  <PUBCHEM_CACTVS_ROTATABLE_BOND>
16

>  <PUBCHEM_CACTVS_SUBSKEYS>
AAADcfB8IAAAAAAAAAAAAAAAEgAAAAAAAAAAAAAAAAAAAAAAAAAAGgAAAAAADFSggAICAAAABACAAiBCAAAAAAAgAAAICAAAAAgIBAIAIQACEAAEwAAIoAOAAAAOAAAAAAAAAAAAAAAAAAAAAAAAAAAAAA==

>  <PUBCHEM_IUPAC_OPENEYE_NAME>
3-[(1E,3Z,5E,7E,9E,11E,13Z,15E,17E,19Z)-3,7,12,16,20,24-hexamethylpentacosa-1,3,5,7,9,11,13,15,17,19,23-undecaenyl]-2-methyl-2-(4-methylpent-3-enyl)oxirane

>  <PUBCHEM_IUPAC_CAS_NAME>
3-[(1E,3Z,5E,7E,9E,11E,13Z,15E,17E,19Z)-3,7,12,16,20,24-hexamethylpentacosa-1,3,5,7,9,11,13,15,17,19,23-undecaenyl]-2-methyl-2-(4-methylpent-3-enyl)oxirane

>  <PUBCHEM_IUPAC_NAME>
3-[(1E,3Z,5E,7E,9E,11E,13Z,15E,17E,19Z)-3,7,12,16,20,24-hexamethylpentacosa-1,3,5,7,9,11,13,15,17,19,23-undecaenyl]-2-methyl-2-(4-methylpent-3-enyl)oxirane

>  <PUBCHEM_IUPAC_SYSTEMATIC_NAME>
3-[(1E,3Z,5E,7E,9E,11E,13Z,15E,17E,19Z)-3,7,12,16,20,24-hexamethylpentacosa-1,3,5,7,9,11,13,15,17,19,23-undecaenyl]-2-methyl-2-(4-methylpent-3-enyl)oxirane

>  <PUBCHEM_IUPAC_TRADITIONAL_NAME>
3-[(1E,3Z,5E,7E,9E,11E,13Z,15E,17E,19Z)-3,7,12,16,20,24-hexamethylpentacosa-1,3,5,7,9,11,13,15,17,19,23-undecaenyl]-2-methyl-2-(4-methylpent-3-enyl)oxirane

>  <PUBCHEM_IUPAC_INCHI>
InChI=1S/C40H56O/c1-32(2)18-13-22-36(7)25-15-27-37(8)26-14-23-34(5)20-11-12-21-35(6)24-16-28-38(9)29-30-39-40(10,41-39)31-17-19-33(3)4/h11-12,14-16,18-21,23-30,39H,13,17,22,31H2,1-10H3/b12-11+,23-14-,24-16+,27-15+,30-29+,34-20+,35-21+,36-25-,37-26+,38-28-

>  <PUBCHEM_IUPAC_INCHIKEY>
KAOPTJGOSUTKJR-CUEHAKLQSA-N

>  <PUBCHEM_EXACT_MASS>
552.433

>  <PUBCHEM_MOLECULAR_FORMULA>
C40H56O

>  <PUBCHEM_MOLECULAR_WEIGHT>
552.887

>  <PUBCHEM_OPENEYE_CAN_SMILES>
CC(=CCCC(=CC=CC(=CC=CC(=CC=CC=C(C)C=CC=C(C)C=CC1C(O1)(C)CCC=C(C)C)C)C)C)C

>  <PUBCHEM_OPENEYE_ISO_SMILES>
CC(=CCC/C(=C\C=C\C(=C\C=C/C(=C/C=C/C=C(\C)/C=C/C=C(/C)\C=C\C1C(O1)(C)CCC=C(C)C)/C)\C)/C)C

>  <PUBCHEM_CACTVS_TPSA>
12.5

>  <PUBCHEM_MONOISOTOPIC_WEIGHT>
552.433

>  <PUBCHEM_TOTAL_CHARGE>
0

>  <PUBCHEM_HEAVY_ATOM_COUNT>
41

>  <PUBCHEM_ATOM_DEF_STEREO_COUNT>
0

>  <PUBCHEM_ATOM_UDEF_STEREO_COUNT>
2

>  <PUBCHEM_BOND_DEF_STEREO_COUNT>
10

>  <PUBCHEM_BOND_UDEF_STEREO_COUNT>
0

>  <PUBCHEM_ISOTOPIC_ATOM_COUNT>
0

>  <PUBCHEM_COMPONENT_COUNT>
1

>  <PUBCHEM_CACTVS_TAUTO_COUNT>
1001

>  <PUBCHEM_COORDINATE_TYPE>
1
5
255

>  <PUBCHEM_BONDANNOTATIONS>
2  5  3
3  6  3

$$$$
