131752582
 OpenBabel06101807152D

 68 70  0  0  1  0  0  0  0  0999 V2000
    6.8671   -0.3450    0.0000 O   0  0  0  0  0  0  0  0  0  0  0  0
    4.2690   -2.8450    0.0000 O   0  0  0  0  0  0  0  0  0  0  0  0
    6.0010   -2.8450    0.0000 O   0  0  0  0  0  0  0  0  0  0  0  0
    7.7331   -2.8450    0.0000 O   0  0  0  0  0  0  0  0  0  0  0  0
    9.4651   -1.8450    0.0000 O   0  0  0  0  0  0  0  0  0  0  0  0
    7.7331    1.1550    0.0000 O   0  0  0  0  0  0  0  0  0  0  0  0
    6.0010   -4.8450    0.0000 O   0  0  0  0  0  0  0  0  0  0  0  0
    4.2690   -5.8450    0.0000 O   0  0  0  0  0  0  0  0  0  0  0  0
    2.5369   -4.8450    0.0000 O   0  0  0  0  0  0  0  0  0  0  0  0
    9.4651    0.1550    0.0000 O   0  0  0  0  0  0  0  0  0  0  0  0
    2.5369   -1.8450    0.0000 O   0  0  0  0  0  0  0  0  0  0  0  0
    7.7331    3.1550    0.0000 O   0  0  0  0  0  0  0  0  0  0  0  0
    3.4030    5.6550    0.0000 O   0  0  0  0  0  0  0  0  0  0  0  0
    2.5369    4.1550    0.0000 O   0  0  0  0  0  0  0  0  0  0  0  0
    6.8671   -1.3450    0.0000 C   0  0  3  0  0  0  0  0  0  0  0  0
    7.7331   -1.8450    0.0000 C   0  0  3  0  0  0  0  0  0  0  0  0
    8.5991   -1.3450    0.0000 C   0  0  3  0  0  0  0  0  0  0  0  0
    5.1350   -4.3450    0.0000 C   0  0  3  0  0  0  0  0  0  0  0  0
    4.2690   -4.8450    0.0000 C   0  0  3  0  0  0  0  0  0  0  0  0
    5.1350   -3.3450    0.0000 C   0  0  3  0  0  0  0  0  0  0  0  0
    3.4030   -4.3450    0.0000 C   0  0  3  0  0  0  0  0  0  0  0  0
    8.5991   -0.3450    0.0000 C   0  0  3  0  0  0  0  0  0  0  0  0
    3.4030   -3.3450    0.0000 C   0  0  3  0  0  0  0  0  0  0  0  0
    6.0010   -1.8450    0.0000 C   0  0  0  0  0  0  0  0  0  0  0  0
    7.7331    0.1550    0.0000 C   0  0  3  0  0  0  0  0  0  0  0  0
    2.5369   -2.8450    0.0000 C   0  0  0  0  0  0  0  0  0  0  0  0
    6.8671    1.6550    0.0000 C   0  0  0  0  0  0  0  0  0  0  0  0
    6.8671    2.6550    0.0000 C   0  0  0  0  0  0  0  0  0  0  0  0
    6.0010    1.1550    0.0000 C   0  0  0  0  0  0  0  0  0  0  0  0
    5.1350    2.6550    0.0000 C   0  0  0  0  0  0  0  0  0  0  0  0
    6.0010    3.1550    0.0000 C   0  0  0  0  0  0  0  0  0  0  0  0
    5.1350    1.6550    0.0000 C   0  0  0  0  0  0  0  0  0  0  0  0
    4.2690    3.1550    0.0000 C   0  0  0  0  0  0  0  0  0  0  0  0
    4.2690    4.1550    0.0000 C   0  0  0  0  0  0  0  0  0  0  0  0
    3.4030    4.6550    0.0000 C   0  0  0  0  0  0  0  0  0  0  0  0
    2.5369    6.1550    0.0000 C   0  0  0  0  0  0  0  0  0  0  0  0
    6.3301   -1.0350    0.0000 H   0  0  0  0  0  0  0  0  0  0  0  0
    8.2700   -2.1550    0.0000 H   0  0  0  0  0  0  0  0  0  0  0  0
    9.1360   -1.0350    0.0000 H   0  0  0  0  0  0  0  0  0  0  0  0
    5.1350   -4.9650    0.0000 H   0  0  0  0  0  0  0  0  0  0  0  0
    3.7320   -5.1550    0.0000 H   0  0  0  0  0  0  0  0  0  0  0  0
    5.1350   -2.7250    0.0000 H   0  0  0  0  0  0  0  0  0  0  0  0
    3.4030   -4.9650    0.0000 H   0  0  0  0  0  0  0  0  0  0  0  0
    8.5991    0.2750    0.0000 H   0  0  0  0  0  0  0  0  0  0  0  0
    3.4030   -2.7250    0.0000 H   0  0  0  0  0  0  0  0  0  0  0  0
    5.7890   -1.2624    0.0000 H   0  0  0  0  0  0  0  0  0  0  0  0
    5.3905   -1.9527    0.0000 H   0  0  0  0  0  0  0  0  0  0  0  0
    7.1962    0.4650    0.0000 H   0  0  0  0  0  0  0  0  0  0  0  0
    1.9264   -2.7373    0.0000 H   0  0  0  0  0  0  0  0  0  0  0  0
    2.3249   -3.4276    0.0000 H   0  0  0  0  0  0  0  0  0  0  0  0
    8.2700   -3.1550    0.0000 H   0  0  0  0  0  0  0  0  0  0  0  0
   10.0021   -1.5350    0.0000 H   0  0  0  0  0  0  0  0  0  0  0  0
    6.5380   -4.5350    0.0000 H   0  0  0  0  0  0  0  0  0  0  0  0
    3.7320   -6.1550    0.0000 H   0  0  0  0  0  0  0  0  0  0  0  0
    2.0000   -4.5350    0.0000 H   0  0  0  0  0  0  0  0  0  0  0  0
    9.4651    0.7750    0.0000 H   0  0  0  0  0  0  0  0  0  0  0  0
    2.0000   -1.5350    0.0000 H   0  0  0  0  0  0  0  0  0  0  0  0
    6.0010    0.5350    0.0000 H   0  0  0  0  0  0  0  0  0  0  0  0
    6.0010    3.7750    0.0000 H   0  0  0  0  0  0  0  0  0  0  0  0
    4.5981    1.3450    0.0000 H   0  0  0  0  0  0  0  0  0  0  0  0
    3.6584    3.2627    0.0000 H   0  0  0  0  0  0  0  0  0  0  0  0
    4.0569    2.5724    0.0000 H   0  0  0  0  0  0  0  0  0  0  0  0
    7.7331    3.7750    0.0000 H   0  0  0  0  0  0  0  0  0  0  0  0
    4.8796    4.0473    0.0000 H   0  0  0  0  0  0  0  0  0  0  0  0
    4.4810    4.7376    0.0000 H   0  0  0  0  0  0  0  0  0  0  0  0
    2.8469    6.6919    0.0000 H   0  0  0  0  0  0  0  0  0  0  0  0
    2.0000    6.4650    0.0000 H   0  0  0  0  0  0  0  0  0  0  0  0
    2.2269    5.6181    0.0000 H   0  0  0  0  0  0  0  0  0  0  0  0
  1 15  1  0  0  0  0
  1 25  1  0  0  0  0
  2 20  1  0  0  0  0
  2 23  1  0  0  0  0
  3 20  1  0  0  0  0
  3 24  1  0  0  0  0
  4 16  1  0  0  0  0
  4 51  1  0  0  0  0
  5 17  1  0  0  0  0
  5 52  1  0  0  0  0
  6 25  1  0  0  0  0
  6 27  1  0  0  0  0
  7 18  1  0  0  0  0
  7 53  1  0  0  0  0
  8 19  1  0  0  0  0
  8 54  1  0  0  0  0
  9 21  1  0  0  0  0
  9 55  1  0  0  0  0
 10 22  1  0  0  0  0
 10 56  1  0  0  0  0
 11 26  1  0  0  0  0
 11 57  1  0  0  0  0
 12 28  1  0  0  0  0
 12 63  1  0  0  0  0
 13 35  1  0  0  0  0
 13 36  1  0  0  0  0
 14 35  2  0  0  0  0
 15 16  1  0  0  0  0
 15 24  1  0  0  0  0
 15 37  1  0  0  0  0
 16 17  1  0  0  0  0
 16 38  1  0  0  0  0
 17 22  1  0  0  0  0
 17 39  1  0  0  0  0
 18 19  1  0  0  0  0
 18 20  1  0  0  0  0
 18 40  1  0  0  0  0
 19 21  1  0  0  0  0
 19 41  1  0  0  0  0
 20 42  1  0  0  0  0
 21 23  1  0  0  0  0
 21 43  1  0  0  0  0
 22 25  1  0  0  0  0
 22 44  1  0  0  0  0
 23 26  1  0  0  0  0
 23 45  1  0  0  0  0
 24 46  1  0  0  0  0
 24 47  1  0  0  0  0
 25 48  1  0  0  0  0
 26 49  1  0  0  0  0
 26 50  1  0  0  0  0
 27 28  2  0  0  0  0
 27 29  1  0  0  0  0
 28 31  1  0  0  0  0
 29 32  2  0  0  0  0
 29 58  1  0  0  0  0
 30 31  2  0  0  0  0
 30 32  1  0  0  0  0
 30 33  1  0  0  0  0
 31 59  1  0  0  0  0
 32 60  1  0  0  0  0
 33 34  1  0  0  0  0
 33 61  1  0  0  0  0
 33 62  1  0  0  0  0
 34 35  1  0  0  0  0
 34 64  1  0  0  0  0
 34 65  1  0  0  0  0
 36 66  1  0  0  0  0
 36 67  1  0  0  0  0
 36 68  1  0  0  0  0
M  END
>  <PUBCHEM_COMPOUND_CID>
131752582

>  <PUBCHEM_COMPOUND_CANONICALIZED>
1

>  <PUBCHEM_CACTVS_COMPLEXITY>
696

>  <PUBCHEM_CACTVS_HBOND_ACCEPTOR>
14

>  <PUBCHEM_CACTVS_HBOND_DONOR>
8

>  <PUBCHEM_CACTVS_ROTATABLE_BOND>
10

>  <PUBCHEM_CACTVS_SUBSKEYS>
AAADcfB4PAAAAAAAAAAAAAAAAAAAAAAAAAA0SIAAAAAAAAABAAAAGgAACAAADBSwmAMyDoAABgCIAiDSCAACCAAgIAAIiAEGiIgdNjKGMRqieCOlwBEPuAfI6LyOIAABAAAAQABAAAIAAACAAAAAAAAAAA==

>  <PUBCHEM_IUPAC_OPENEYE_NAME>
methyl 3-[3-hydroxy-4-[3,4,5-trihydroxy-6-[[3,4,5-trihydroxy-6-(hydroxymethyl)tetrahydropyran-2-yl]oxymethyl]tetrahydropyran-2-yl]oxy-phenyl]propanoate

>  <PUBCHEM_IUPAC_CAS_NAME>
3-[3-hydroxy-4-[[3,4,5-trihydroxy-6-[[3,4,5-trihydroxy-6-(hydroxymethyl)-2-oxanyl]oxymethyl]-2-oxanyl]oxy]phenyl]propanoic acid methyl ester

>  <PUBCHEM_IUPAC_NAME>
methyl 3-[3-hydroxy-4-[3,4,5-trihydroxy-6-[[3,4,5-trihydroxy-6-(hydroxymethyl)oxan-2-yl]oxymethyl]oxan-2-yl]oxyphenyl]propanoate

>  <PUBCHEM_IUPAC_SYSTEMATIC_NAME>
methyl 3-[4-[6-[[6-(hydroxymethyl)-3,4,5-tris(oxidanyl)oxan-2-yl]oxymethyl]-3,4,5-tris(oxidanyl)oxan-2-yl]oxy-3-oxidanyl-phenyl]propanoate

>  <PUBCHEM_IUPAC_TRADITIONAL_NAME>
3-[3-hydroxy-4-[3,4,5-trihydroxy-6-[(3,4,5-trihydroxy-6-methylol-tetrahydropyran-2-yl)oxymethyl]tetrahydropyran-2-yl]oxy-phenyl]propionic acid methyl ester

>  <PUBCHEM_IUPAC_INCHI>
InChI=1S/C22H32O14/c1-32-14(25)5-3-9-2-4-11(10(24)6-9)34-22-20(31)18(29)16(27)13(36-22)8-33-21-19(30)17(28)15(26)12(7-23)35-21/h2,4,6,12-13,15-24,26-31H,3,5,7-8H2,1H3

>  <PUBCHEM_IUPAC_INCHIKEY>
YLQXQJFWCRRNGA-UHFFFAOYSA-N

>  <PUBCHEM_EXACT_MASS>
520.179

>  <PUBCHEM_MOLECULAR_FORMULA>
C22H32O14

>  <PUBCHEM_MOLECULAR_WEIGHT>
520.484

>  <PUBCHEM_OPENEYE_CAN_SMILES>
COC(=O)CCC1=CC(=C(C=C1)OC2C(C(C(C(O2)COC3C(C(C(C(O3)CO)O)O)O)O)O)O)O

>  <PUBCHEM_OPENEYE_ISO_SMILES>
COC(=O)CCC1=CC(=C(C=C1)OC2C(C(C(C(O2)COC3C(C(C(C(O3)CO)O)O)O)O)O)O)O

>  <PUBCHEM_CACTVS_TPSA>
225

>  <PUBCHEM_MONOISOTOPIC_WEIGHT>
520.179

>  <PUBCHEM_TOTAL_CHARGE>
0

>  <PUBCHEM_HEAVY_ATOM_COUNT>
36

>  <PUBCHEM_ATOM_DEF_STEREO_COUNT>
0

>  <PUBCHEM_ATOM_UDEF_STEREO_COUNT>
10

>  <PUBCHEM_BOND_DEF_STEREO_COUNT>
0

>  <PUBCHEM_BOND_UDEF_STEREO_COUNT>
0

>  <PUBCHEM_ISOTOPIC_ATOM_COUNT>
0

>  <PUBCHEM_COMPONENT_COUNT>
1

>  <PUBCHEM_CACTVS_TAUTO_COUNT>
23

>  <PUBCHEM_COORDINATE_TYPE>
1
5
255

>  <PUBCHEM_BONDANNOTATIONS>
22  10  3
15  24  3
23  26  3
27  28  8
27  29  8
28  31  8
29  32  8
20  3  3
30  31  8
30  32  8
16  4  3
17  5  3
25  6  3
18  7  3
19  8  3
21  9  3

$$$$
