131752303
 OpenBabel06101807152D

100103  0  0  1  0  0  0  0  0999 V2000
   16.3761   -6.0364    0.0000 O   0  0  0  0  0  0  0  0  0  0  0  0
    4.3010    7.2731    0.0000 O   0  0  0  0  0  0  0  0  0  0  0  0
   12.9281   -6.6645    0.0000 O   0  0  0  0  0  0  0  0  0  0  0  0
    2.5314    4.2477    0.0000 O   0  0  0  0  0  0  0  0  0  0  0  0
   14.7085   -4.9210    0.0000 C   0  0  3  0  0  0  0  0  0  0  0  0
    4.7788    5.3245    0.0000 C   0  0  3  0  0  0  0  0  0  0  0  0
   14.7089   -3.4324    0.0000 C   0  0  0  0  0  0  0  0  0  0  0  0
    6.1777    4.8157    0.0000 C   0  0  0  0  0  0  0  0  0  0  0  0
   13.6827   -6.0084    0.0000 C   0  0  3  0  0  0  0  0  0  0  0  0
    3.4061    4.7325    0.0000 C   0  0  3  0  0  0  0  0  0  0  0  0
   15.7047   -5.0081    0.0000 C   0  0  3  0  0  0  0  0  0  0  0  0
    5.0376    6.2904    0.0000 C   0  0  3  0  0  0  0  0  0  0  0  0
   15.7051   -3.5195    0.0000 C   0  0  0  0  0  0  0  0  0  0  0  0
    6.4365    5.7816    0.0000 C   0  0  0  0  0  0  0  0  0  0  0  0
   14.4488   -6.6512    0.0000 C   0  0  0  0  0  0  0  0  0  0  0  0
    3.0640    5.6722    0.0000 C   0  0  0  0  0  0  0  0  0  0  0  0
   14.6391   -2.4348    0.0000 C   0  0  0  0  0  0  0  0  0  0  0  0
   13.7386   -3.1904    0.0000 C   0  0  0  0  0  0  0  0  0  0  0  0
    7.1722    4.9202    0.0000 C   0  0  0  0  0  0  0  0  0  0  0  0
    6.7370    3.9867    0.0000 C   0  0  0  0  0  0  0  0  0  0  0  0
   13.7123   -4.8338    0.0000 C   0  0  0  0  0  0  0  0  0  0  0  0
    4.5200    4.3586    0.0000 C   0  0  0  0  0  0  0  0  0  0  0  0
   12.7011   -5.8176    0.0000 C   0  0  0  0  0  0  0  0  0  0  0  0
    3.0805    3.7870    0.0000 C   0  0  0  0  0  0  0  0  0  0  0  0
   13.0052   -4.1267    0.0000 C   0  0  0  0  0  0  0  0  0  0  0  0
    5.2271    3.6515    0.0000 C   0  0  0  0  0  0  0  0  0  0  0  0
   12.0393   -4.3855    0.0000 C   0  0  0  0  0  0  0  0  0  0  0  0
    4.9682    2.6856    0.0000 C   0  0  0  0  0  0  0  0  0  0  0  0
   11.7805   -5.3514    0.0000 C   0  0  0  0  0  0  0  0  0  0  0  0
    4.0023    2.4267    0.0000 C   0  0  0  0  0  0  0  0  0  0  0  0
   11.3322   -3.6784    0.0000 C   0  0  0  0  0  0  0  0  0  0  0  0
    5.6753    1.9784    0.0000 C   0  0  0  0  0  0  0  0  0  0  0  0
   11.5910   -2.7125    0.0000 C   0  0  0  0  0  0  0  0  0  0  0  0
    5.4165    1.0125    0.0000 C   0  0  0  0  0  0  0  0  0  0  0  0
   10.8839   -2.0054    0.0000 C   0  0  0  0  0  0  0  0  0  0  0  0
    6.1236    0.3054    0.0000 C   0  0  0  0  0  0  0  0  0  0  0  0
   11.1427   -1.0394    0.0000 C   0  0  0  0  0  0  0  0  0  0  0  0
    7.0896    0.5642    0.0000 C   0  0  0  0  0  0  0  0  0  0  0  0
   12.1087   -0.7806    0.0000 C   0  0  0  0  0  0  0  0  0  0  0  0
    7.3484    1.5302    0.0000 C   0  0  0  0  0  0  0  0  0  0  0  0
   10.4356   -0.3323    0.0000 C   0  0  0  0  0  0  0  0  0  0  0  0
    7.7967   -0.1429    0.0000 C   0  0  0  0  0  0  0  0  0  0  0  0
    9.4697   -0.5912    0.0000 C   0  0  0  0  0  0  0  0  0  0  0  0
    8.7626    0.1160    0.0000 C   0  0  0  0  0  0  0  0  0  0  0  0
   16.2990   -4.8313    0.0000 H   0  0  0  0  0  0  0  0  0  0  0  0
    5.0236    5.6706    0.0000 H   0  0  0  0  0  0  0  0  0  0  0  0
   16.3248   -3.5376    0.0000 H   0  0  0  0  0  0  0  0  0  0  0  0
   15.7412   -2.9006    0.0000 H   0  0  0  0  0  0  0  0  0  0  0  0
    7.0305    5.6039    0.0000 H   0  0  0  0  0  0  0  0  0  0  0  0
    6.6315    6.3702    0.0000 H   0  0  0  0  0  0  0  0  0  0  0  0
   14.0575   -7.1321    0.0000 H   0  0  0  0  0  0  0  0  0  0  0  0
   14.9356   -7.0351    0.0000 H   0  0  0  0  0  0  0  0  0  0  0  0
    2.8697    6.2610    0.0000 H   0  0  0  0  0  0  0  0  0  0  0  0
    2.4783    5.4690    0.0000 H   0  0  0  0  0  0  0  0  0  0  0  0
   13.8886   -2.5888    0.0000 H   0  0  0  0  0  0  0  0  0  0  0  0
   13.1370   -3.0404    0.0000 H   0  0  0  0  0  0  0  0  0  0  0  0
   13.5886   -3.7920    0.0000 H   0  0  0  0  0  0  0  0  0  0  0  0
   15.2576   -2.3915    0.0000 H   0  0  0  0  0  0  0  0  0  0  0  0
   14.5959   -1.8163    0.0000 H   0  0  0  0  0  0  0  0  0  0  0  0
   14.0206   -2.4780    0.0000 H   0  0  0  0  0  0  0  0  0  0  0  0
    7.2370    4.3036    0.0000 H   0  0  0  0  0  0  0  0  0  0  0  0
    6.2230    3.6400    0.0000 H   0  0  0  0  0  0  0  0  0  0  0  0
    7.0837    3.4727    0.0000 H   0  0  0  0  0  0  0  0  0  0  0  0
    7.2510    4.3335    0.0000 H   0  0  0  0  0  0  0  0  0  0  0  0
    7.7888    4.9850    0.0000 H   0  0  0  0  0  0  0  0  0  0  0  0
    7.1074    5.5368    0.0000 H   0  0  0  0  0  0  0  0  0  0  0  0
   13.4504   -5.3957    0.0000 H   0  0  0  0  0  0  0  0  0  0  0  0
    4.0815    3.9202    0.0000 H   0  0  0  0  0  0  0  0  0  0  0  0
   12.8194   -5.2090    0.0000 H   0  0  0  0  0  0  0  0  0  0  0  0
   12.0925   -5.6993    0.0000 H   0  0  0  0  0  0  0  0  0  0  0  0
   12.5828   -6.4262    0.0000 H   0  0  0  0  0  0  0  0  0  0  0  0
    2.4943    3.9888    0.0000 H   0  0  0  0  0  0  0  0  0  0  0  0
    2.8786    3.2008    0.0000 H   0  0  0  0  0  0  0  0  0  0  0  0
    3.6667    3.5851    0.0000 H   0  0  0  0  0  0  0  0  0  0  0  0
   13.0463   -7.2731    0.0000 H   0  0  0  0  0  0  0  0  0  0  0  0
    2.0000    4.5670    0.0000 H   0  0  0  0  0  0  0  0  0  0  0  0
   13.1657   -3.5278    0.0000 H   0  0  0  0  0  0  0  0  0  0  0  0
    5.7890    3.3895    0.0000 H   0  0  0  0  0  0  0  0  0  0  0  0
   11.1816   -5.1910    0.0000 H   0  0  0  0  0  0  0  0  0  0  0  0
   11.6200   -5.9503    0.0000 H   0  0  0  0  0  0  0  0  0  0  0  0
   12.3794   -5.5119    0.0000 H   0  0  0  0  0  0  0  0  0  0  0  0
    3.8418    3.0256    0.0000 H   0  0  0  0  0  0  0  0  0  0  0  0
    3.4034    2.2663    0.0000 H   0  0  0  0  0  0  0  0  0  0  0  0
    4.1628    1.8279    0.0000 H   0  0  0  0  0  0  0  0  0  0  0  0
   10.7333   -3.8389    0.0000 H   0  0  0  0  0  0  0  0  0  0  0  0
    6.2742    2.1389    0.0000 H   0  0  0  0  0  0  0  0  0  0  0  0
   12.1899   -2.5520    0.0000 H   0  0  0  0  0  0  0  0  0  0  0  0
    4.8177    0.8521    0.0000 H   0  0  0  0  0  0  0  0  0  0  0  0
   10.2850   -2.1658    0.0000 H   0  0  0  0  0  0  0  0  0  0  0  0
    5.9632   -0.2935    0.0000 H   0  0  0  0  0  0  0  0  0  0  0  0
   12.2691   -1.3795    0.0000 H   0  0  0  0  0  0  0  0  0  0  0  0
   12.7075   -0.6202    0.0000 H   0  0  0  0  0  0  0  0  0  0  0  0
   11.9482   -0.1818    0.0000 H   0  0  0  0  0  0  0  0  0  0  0  0
    7.9472    1.3697    0.0000 H   0  0  0  0  0  0  0  0  0  0  0  0
    7.5088    2.1290    0.0000 H   0  0  0  0  0  0  0  0  0  0  0  0
    6.7495    1.6906    0.0000 H   0  0  0  0  0  0  0  0  0  0  0  0
   10.5961    0.2665    0.0000 H   0  0  0  0  0  0  0  0  0  0  0  0
    7.6362   -0.7417    0.0000 H   0  0  0  0  0  0  0  0  0  0  0  0
    9.3092   -1.1900    0.0000 H   0  0  0  0  0  0  0  0  0  0  0  0
    8.9231    0.7148    0.0000 H   0  0  0  0  0  0  0  0  0  0  0  0
  1  5  1  0  0  0  0
  1 11  1  0  0  0  0
  2  6  1  0  0  0  0
  2 12  1  0  0  0  0
  3  9  1  0  0  0  0
  3 75  1  0  0  0  0
  4 10  1  0  0  0  0
  4 76  1  0  0  0  0
  5  7  1  0  0  0  0
  5  9  1  0  0  0  0
  5 21  1  0  0  0  0
  6  8  1  0  0  0  0
  6 10  1  0  0  0  0
  6 22  1  0  0  0  0
  7 13  1  0  0  0  0
  7 17  1  0  0  0  0
  7 18  1  0  0  0  0
  8 14  1  0  0  0  0
  8 19  1  0  0  0  0
  8 20  1  0  0  0  0
  9 15  1  0  0  0  0
  9 23  1  0  0  0  0
 10 16  1  0  0  0  0
 10 24  1  0  0  0  0
 11 13  1  0  0  0  0
 11 15  1  0  0  0  0
 11 45  1  0  0  0  0
 12 14  1  0  0  0  0
 12 16  1  0  0  0  0
 12 46  1  0  0  0  0
 13 47  1  0  0  0  0
 13 48  1  0  0  0  0
 14 49  1  0  0  0  0
 14 50  1  0  0  0  0
 15 51  1  0  0  0  0
 15 52  1  0  0  0  0
 16 53  1  0  0  0  0
 16 54  1  0  0  0  0
 17 58  1  0  0  0  0
 17 59  1  0  0  0  0
 17 60  1  0  0  0  0
 18 55  1  0  0  0  0
 18 56  1  0  0  0  0
 18 57  1  0  0  0  0
 19 61  1  0  0  0  0
 19 65  1  0  0  0  0
 19 66  1  0  0  0  0
 20 62  1  0  0  0  0
 20 63  1  0  0  0  0
 20 64  1  0  0  0  0
 21 25  2  0  0  0  0
 21 67  1  0  0  0  0
 22 26  2  0  0  0  0
 22 68  1  0  0  0  0
 23 69  1  0  0  0  0
 23 70  1  0  0  0  0
 23 71  1  0  0  0  0
 24 72  1  0  0  0  0
 24 73  1  0  0  0  0
 24 74  1  0  0  0  0
 25 27  1  0  0  0  0
 25 77  1  0  0  0  0
 26 28  1  0  0  0  0
 26 78  1  0  0  0  0
 27 29  1  0  0  0  0
 27 31  2  0  0  0  0
 28 30  1  0  0  0  0
 28 32  2  0  0  0  0
 29 79  1  0  0  0  0
 29 80  1  0  0  0  0
 29 81  1  0  0  0  0
 30 82  1  0  0  0  0
 30 83  1  0  0  0  0
 30 84  1  0  0  0  0
 31 33  1  0  0  0  0
 31 85  1  0  0  0  0
 32 34  1  0  0  0  0
 32 86  1  0  0  0  0
 33 35  2  0  0  0  0
 33 87  1  0  0  0  0
 34 36  2  0  0  0  0
 34 88  1  0  0  0  0
 35 37  1  0  0  0  0
 35 89  1  0  0  0  0
 36 38  1  0  0  0  0
 36 90  1  0  0  0  0
 37 39  1  0  0  0  0
 37 41  2  0  0  0  0
 38 40  1  0  0  0  0
 38 42  2  0  0  0  0
 39 91  1  0  0  0  0
 39 92  1  0  0  0  0
 39 93  1  0  0  0  0
 40 94  1  0  0  0  0
 40 95  1  0  0  0  0
 40 96  1  0  0  0  0
 41 43  1  0  0  0  0
 41 97  1  0  0  0  0
 42 44  1  0  0  0  0
 42 98  1  0  0  0  0
 43 44  2  0  0  0  0
 43 99  1  0  0  0  0
 44100  1  0  0  0  0
M  END
>  <PUBCHEM_COMPOUND_CID>
131752303

>  <PUBCHEM_COMPOUND_CANONICALIZED>
1

>  <PUBCHEM_CACTVS_COMPLEXITY>
1270

>  <PUBCHEM_CACTVS_HBOND_ACCEPTOR>
4

>  <PUBCHEM_CACTVS_HBOND_DONOR>
2

>  <PUBCHEM_CACTVS_ROTATABLE_BOND>
10

>  <PUBCHEM_CACTVS_SUBSKEYS>
AAADcfB8OAAAAAAAAAAAAAAAAAAAASJEiQAwYAAAAAAAAAAAAAAAGgAACAAADlSggAICAAAABgCAAiBCAAAAAAAgAAAICAAAAAgJBAIAIQACUAAFwAALoAOA4PQPgAAAAAAAAABAAAYQADCAAAAAAAAAAA==

>  <PUBCHEM_IUPAC_OPENEYE_NAME>
4-[(1E,3E,5Z,7E,9E,11Z,13E,15Z,17E)-18-(3-hydroxy-3,5,5-trimethyl-7-oxabicyclo[2.2.1]heptan-4-yl)-3,7,12,16-tetramethyl-octadeca-1,3,5,7,9,11,13,15,17-nonaenyl]-3,5,5-trimethyl-7-oxabicyclo[2.2.1]heptan-3-ol

>  <PUBCHEM_IUPAC_CAS_NAME>
4-[(1E,3E,5Z,7E,9E,11Z,13E,15Z,17E)-18-(3-hydroxy-3,5,5-trimethyl-7-oxabicyclo[2.2.1]heptan-4-yl)-3,7,12,16-tetramethyloctadeca-1,3,5,7,9,11,13,15,17-nonaenyl]-3,5,5-trimethyl-7-oxabicyclo[2.2.1]heptan-3-ol

>  <PUBCHEM_IUPAC_NAME>
4-[(1E,3E,5Z,7E,9E,11Z,13E,15Z,17E)-18-(3-hydroxy-3,5,5-trimethyl-7-oxabicyclo[2.2.1]heptan-4-yl)-3,7,12,16-tetramethyloctadeca-1,3,5,7,9,11,13,15,17-nonaenyl]-3,5,5-trimethyl-7-oxabicyclo[2.2.1]heptan-3-ol

>  <PUBCHEM_IUPAC_SYSTEMATIC_NAME>
3,5,5-trimethyl-4-[(1E,3E,5Z,7E,9E,11Z,13E,15Z,17E)-3,7,12,16-tetramethyl-18-(3,5,5-trimethyl-3-oxidanyl-7-oxabicyclo[2.2.1]heptan-4-yl)octadeca-1,3,5,7,9,11,13,15,17-nonaenyl]-7-oxabicyclo[2.2.1]heptan-3-ol

>  <PUBCHEM_IUPAC_TRADITIONAL_NAME>
4-[(1E,3E,5Z,7E,9E,11Z,13E,15Z,17E)-18-(3-hydroxy-3,5,5-trimethyl-7-oxabicyclo[2.2.1]heptan-4-yl)-3,7,12,16-tetramethyl-octadeca-1,3,5,7,9,11,13,15,17-nonaenyl]-3,5,5-trimethyl-7-oxabicyclo[2.2.1]heptan-3-ol

>  <PUBCHEM_IUPAC_INCHI>
InChI=1S/C40H56O4/c1-29(17-13-19-31(3)21-23-39-35(5,6)25-33(43-39)27-37(39,9)41)15-11-12-16-30(2)18-14-20-32(4)22-24-40-36(7,8)26-34(44-40)28-38(40,10)42/h11-24,33-34,41-42H,25-28H2,1-10H3/b12-11+,17-13-,18-14+,23-21+,24-22+,29-15+,30-16-,31-19+,32-20-

>  <PUBCHEM_IUPAC_INCHIKEY>
RZEVGLVRLUDYEA-GGFCQLCOSA-N

>  <PUBCHEM_EXACT_MASS>
600.418

>  <PUBCHEM_MOLECULAR_FORMULA>
C40H56O4

>  <PUBCHEM_MOLECULAR_WEIGHT>
600.884

>  <PUBCHEM_OPENEYE_CAN_SMILES>
CC(=CC=CC=C(C)C=CC=C(C)C=CC12C(CC(O1)CC2(C)O)(C)C)C=CC=C(C)C=CC34C(CC(O3)CC4(C)O)(C)C

>  <PUBCHEM_OPENEYE_ISO_SMILES>
C/C(=C/C=C/C=C(\C)/C=C\C=C(/C)\C=C\C12C(CC(O1)CC2(C)O)(C)C)/C=C/C=C(/C)\C=C\C34C(CC(O3)CC4(C)O)(C)C

>  <PUBCHEM_CACTVS_TPSA>
58.9

>  <PUBCHEM_MONOISOTOPIC_WEIGHT>
600.418

>  <PUBCHEM_TOTAL_CHARGE>
0

>  <PUBCHEM_HEAVY_ATOM_COUNT>
44

>  <PUBCHEM_ATOM_DEF_STEREO_COUNT>
0

>  <PUBCHEM_ATOM_UDEF_STEREO_COUNT>
6

>  <PUBCHEM_BOND_DEF_STEREO_COUNT>
9

>  <PUBCHEM_BOND_UDEF_STEREO_COUNT>
0

>  <PUBCHEM_ISOTOPIC_ATOM_COUNT>
0

>  <PUBCHEM_COMPONENT_COUNT>
1

>  <PUBCHEM_CACTVS_TAUTO_COUNT>
27

>  <PUBCHEM_COORDINATE_TYPE>
1
5
255

>  <PUBCHEM_BONDANNOTATIONS>
11  13  3
12  14  3
9  3  3
10  4  3
5  21  3
6  22  3

$$$$
