131751641
 OpenBabel06101807152D

 64 65  0  0  1  0  0  0  0  0999 V2000
    5.4646   -0.5000    0.0000 O   0  0  0  0  0  0  0  0  0  0  0  0
    2.0000   -1.5000    0.0000 O   0  0  0  0  0  0  0  0  0  0  0  0
   15.0981   -0.8660    0.0000 O   0  0  0  0  0  0  0  0  0  0  0  0
    4.5981    0.0000    0.0000 C   0  0  3  0  0  0  0  0  0  0  0  0
    4.5981   -1.0000    0.0000 C   0  0  3  0  0  0  0  0  0  0  0  0
    3.7320    0.5000    0.0000 C   0  0  0  0  0  0  0  0  0  0  0  0
    3.7320   -1.5000    0.0000 C   0  0  0  0  0  0  0  0  0  0  0  0
    2.8660    0.0000    0.0000 C   0  0  0  0  0  0  0  0  0  0  0  0
    2.8660   -1.0000    0.0000 C   0  0  3  0  0  0  0  0  0  0  0  0
    4.5981   -2.0000    0.0000 C   0  0  0  0  0  0  0  0  0  0  0  0
    5.0981    0.8660    0.0000 C   0  0  0  0  0  0  0  0  0  0  0  0
    2.8660    1.0000    0.0000 C   0  0  0  0  0  0  0  0  0  0  0  0
    3.7320    1.5000    0.0000 C   0  0  0  0  0  0  0  0  0  0  0  0
    6.0981    0.8660    0.0000 C   0  0  0  0  0  0  0  0  0  0  0  0
    6.5981    1.7320    0.0000 C   0  0  0  0  0  0  0  0  0  0  0  0
    6.0981    2.5981    0.0000 C   0  0  0  0  0  0  0  0  0  0  0  0
    7.5981    1.7320    0.0000 C   0  0  0  0  0  0  0  0  0  0  0  0
    8.0981    0.8660    0.0000 C   0  0  0  0  0  0  0  0  0  0  0  0
    9.0981    0.8660    0.0000 C   0  0  0  0  0  0  0  0  0  0  0  0
    9.5981    0.0000    0.0000 C   0  0  0  0  0  0  0  0  0  0  0  0
    9.0981   -0.8660    0.0000 C   0  0  0  0  0  0  0  0  0  0  0  0
   10.5981   -0.0000    0.0000 C   0  0  0  0  0  0  0  0  0  0  0  0
   11.0981   -0.8660    0.0000 C   0  0  0  0  0  0  0  0  0  0  0  0
   12.0981   -0.8660    0.0000 C   0  0  0  0  0  0  0  0  0  0  0  0
   12.5981   -1.7320    0.0000 C   0  0  0  0  0  0  0  0  0  0  0  0
   13.5981   -1.7320    0.0000 C   0  0  0  0  0  0  0  0  0  0  0  0
   14.0981   -0.8660    0.0000 C   0  0  0  0  0  0  0  0  0  0  0  0
   14.0981   -2.5981    0.0000 C   0  0  0  0  0  0  0  0  0  0  0  0
    3.3335   -1.9750    0.0000 H   0  0  0  0  0  0  0  0  0  0  0  0
    4.1306   -1.9750    0.0000 H   0  0  0  0  0  0  0  0  0  0  0  0
    2.6540    0.5826    0.0000 H   0  0  0  0  0  0  0  0  0  0  0  0
    2.2554   -0.1077    0.0000 H   0  0  0  0  0  0  0  0  0  0  0  0
    2.8660   -1.6200    0.0000 H   0  0  0  0  0  0  0  0  0  0  0  0
    3.9781   -2.0000    0.0000 H   0  0  0  0  0  0  0  0  0  0  0  0
    4.5981   -2.6200    0.0000 H   0  0  0  0  0  0  0  0  0  0  0  0
    5.2181   -2.0000    0.0000 H   0  0  0  0  0  0  0  0  0  0  0  0
    4.7881    1.4030    0.0000 H   0  0  0  0  0  0  0  0  0  0  0  0
    4.3520    1.5000    0.0000 H   0  0  0  0  0  0  0  0  0  0  0  0
    3.7320    2.1200    0.0000 H   0  0  0  0  0  0  0  0  0  0  0  0
    3.1120    1.5000    0.0000 H   0  0  0  0  0  0  0  0  0  0  0  0
    3.1760    1.5369    0.0000 H   0  0  0  0  0  0  0  0  0  0  0  0
    2.3291    1.3100    0.0000 H   0  0  0  0  0  0  0  0  0  0  0  0
    2.5560    0.4631    0.0000 H   0  0  0  0  0  0  0  0  0  0  0  0
    2.0000   -2.1200    0.0000 H   0  0  0  0  0  0  0  0  0  0  0  0
    6.4081    0.3291    0.0000 H   0  0  0  0  0  0  0  0  0  0  0  0
    6.6350    2.9081    0.0000 H   0  0  0  0  0  0  0  0  0  0  0  0
    5.7881    3.1350    0.0000 H   0  0  0  0  0  0  0  0  0  0  0  0
    5.5611    2.2881    0.0000 H   0  0  0  0  0  0  0  0  0  0  0  0
    7.9081    2.2690    0.0000 H   0  0  0  0  0  0  0  0  0  0  0  0
    7.7881    0.3291    0.0000 H   0  0  0  0  0  0  0  0  0  0  0  0
    9.4081    1.4030    0.0000 H   0  0  0  0  0  0  0  0  0  0  0  0
    8.5611   -0.5560    0.0000 H   0  0  0  0  0  0  0  0  0  0  0  0
    8.7881   -1.4030    0.0000 H   0  0  0  0  0  0  0  0  0  0  0  0
    9.6350   -1.1760    0.0000 H   0  0  0  0  0  0  0  0  0  0  0  0
   10.9081    0.5369    0.0000 H   0  0  0  0  0  0  0  0  0  0  0  0
   10.7881   -1.4030    0.0000 H   0  0  0  0  0  0  0  0  0  0  0  0
   12.4081   -0.3291    0.0000 H   0  0  0  0  0  0  0  0  0  0  0  0
   12.2881   -2.2690    0.0000 H   0  0  0  0  0  0  0  0  0  0  0  0
   14.2057   -0.2554    0.0000 H   0  0  0  0  0  0  0  0  0  0  0  0
   13.5155   -0.6540    0.0000 H   0  0  0  0  0  0  0  0  0  0  0  0
   13.5611   -2.9081    0.0000 H   0  0  0  0  0  0  0  0  0  0  0  0
   14.4081   -3.1350    0.0000 H   0  0  0  0  0  0  0  0  0  0  0  0
   14.6350   -2.2881    0.0000 H   0  0  0  0  0  0  0  0  0  0  0  0
   15.4081   -0.3291    0.0000 H   0  0  0  0  0  0  0  0  0  0  0  0
  1  4  1  0  0  0  0
  1  5  1  0  0  0  0
  2  9  1  0  0  0  0
  2 44  1  0  0  0  0
  3 27  1  0  0  0  0
  3 64  1  0  0  0  0
  4  5  1  0  0  0  0
  4  6  1  0  0  0  0
  4 11  1  0  0  0  0
  5  7  1  0  0  0  0
  5 10  1  0  0  0  0
  6  8  1  0  0  0  0
  6 12  1  0  0  0  0
  6 13  1  0  0  0  0
  7  9  1  0  0  0  0
  7 29  1  0  0  0  0
  7 30  1  0  0  0  0
  8  9  1  0  0  0  0
  8 31  1  0  0  0  0
  8 32  1  0  0  0  0
  9 33  1  0  0  0  0
 10 34  1  0  0  0  0
 10 35  1  0  0  0  0
 10 36  1  0  0  0  0
 11 14  2  0  0  0  0
 11 37  1  0  0  0  0
 12 41  1  0  0  0  0
 12 42  1  0  0  0  0
 12 43  1  0  0  0  0
 13 38  1  0  0  0  0
 13 39  1  0  0  0  0
 13 40  1  0  0  0  0
 14 15  1  0  0  0  0
 14 45  1  0  0  0  0
 15 16  1  0  0  0  0
 15 17  2  0  0  0  0
 16 46  1  0  0  0  0
 16 47  1  0  0  0  0
 16 48  1  0  0  0  0
 17 18  1  0  0  0  0
 17 49  1  0  0  0  0
 18 19  2  0  0  0  0
 18 50  1  0  0  0  0
 19 20  1  0  0  0  0
 19 51  1  0  0  0  0
 20 21  1  0  0  0  0
 20 22  2  0  0  0  0
 21 52  1  0  0  0  0
 21 53  1  0  0  0  0
 21 54  1  0  0  0  0
 22 23  1  0  0  0  0
 22 55  1  0  0  0  0
 23 24  2  0  0  0  0
 23 56  1  0  0  0  0
 24 25  1  0  0  0  0
 24 57  1  0  0  0  0
 25 26  2  0  0  0  0
 25 58  1  0  0  0  0
 26 27  1  0  0  0  0
 26 28  1  0  0  0  0
 27 59  1  0  0  0  0
 27 60  1  0  0  0  0
 28 61  1  0  0  0  0
 28 62  1  0  0  0  0
 28 63  1  0  0  0  0
M  END
>  <PUBCHEM_COMPOUND_CID>
131751641

>  <PUBCHEM_COMPOUND_CANONICALIZED>
1

>  <PUBCHEM_CACTVS_COMPLEXITY>
748

>  <PUBCHEM_CACTVS_HBOND_ACCEPTOR>
3

>  <PUBCHEM_CACTVS_HBOND_DONOR>
2

>  <PUBCHEM_CACTVS_ROTATABLE_BOND>
7

>  <PUBCHEM_CACTVS_SUBSKEYS>
AAADcfB4MAAAAAAAAAAAAAAAEgAAAAAAAAAwAAAABIAAAAAAAAAAGgAACAAADlSggAICAAAABgCAAiBCAAAAAAAgAAAICAAAAAgIFAIAIQACUAAFwAAIsAPA4PQPgAAAAAAAAABCAAYQADAAAAAAAAAAAA==

>  <PUBCHEM_IUPAC_OPENEYE_NAME>
6-[(1E,3Z,5E,7E,9E,11Z)-13-hydroxy-3,7,12-trimethyl-trideca-1,3,5,7,9,11-hexaenyl]-1,5,5-trimethyl-7-oxabicyclo[4.1.0]heptan-3-ol

>  <PUBCHEM_IUPAC_CAS_NAME>
6-[(1E,3Z,5E,7E,9E,11Z)-13-hydroxy-3,7,12-trimethyltrideca-1,3,5,7,9,11-hexaenyl]-1,5,5-trimethyl-7-oxabicyclo[4.1.0]heptan-3-ol

>  <PUBCHEM_IUPAC_NAME>
6-[(1E,3Z,5E,7E,9E,11Z)-13-hydroxy-3,7,12-trimethyltrideca-1,3,5,7,9,11-hexaenyl]-1,5,5-trimethyl-7-oxabicyclo[4.1.0]heptan-3-ol

>  <PUBCHEM_IUPAC_SYSTEMATIC_NAME>
1,5,5-trimethyl-6-[(1E,3Z,5E,7E,9E,11Z)-3,7,12-trimethyl-13-oxidanyl-trideca-1,3,5,7,9,11-hexaenyl]-7-oxabicyclo[4.1.0]heptan-3-ol

>  <PUBCHEM_IUPAC_TRADITIONAL_NAME>
6-[(1E,3Z,5E,7E,9E,11Z)-13-hydroxy-3,7,12-trimethyl-trideca-1,3,5,7,9,11-hexaenyl]-1,5,5-trimethyl-7-oxabicyclo[4.1.0]heptan-3-ol

>  <PUBCHEM_IUPAC_INCHI>
InChI=1S/C25H36O3/c1-19(10-7-8-11-21(3)18-26)12-9-13-20(2)14-15-25-23(4,5)16-22(27)17-24(25,6)28-25/h7-15,22,26-27H,16-18H2,1-6H3/b8-7+,12-9+,15-14+,19-10+,20-13-,21-11-

>  <PUBCHEM_IUPAC_INCHIKEY>
JQVNCYNADFKYNN-RXCALXPUSA-N

>  <PUBCHEM_EXACT_MASS>
384.266

>  <PUBCHEM_MOLECULAR_FORMULA>
C25H36O3

>  <PUBCHEM_MOLECULAR_WEIGHT>
384.56

>  <PUBCHEM_OPENEYE_CAN_SMILES>
CC(=CC=CC=C(C)C=CC=C(C)C=CC12C(CC(CC1(O2)C)O)(C)C)CO

>  <PUBCHEM_OPENEYE_ISO_SMILES>
C/C(=C/C=C/C=C(\C)/C=C/C=C(/C)\C=C\C12C(CC(CC1(O2)C)O)(C)C)/CO

>  <PUBCHEM_CACTVS_TPSA>
53

>  <PUBCHEM_MONOISOTOPIC_WEIGHT>
384.266

>  <PUBCHEM_TOTAL_CHARGE>
0

>  <PUBCHEM_HEAVY_ATOM_COUNT>
28

>  <PUBCHEM_ATOM_DEF_STEREO_COUNT>
0

>  <PUBCHEM_ATOM_UDEF_STEREO_COUNT>
3

>  <PUBCHEM_BOND_DEF_STEREO_COUNT>
6

>  <PUBCHEM_BOND_UDEF_STEREO_COUNT>
0

>  <PUBCHEM_ISOTOPIC_ATOM_COUNT>
0

>  <PUBCHEM_COMPONENT_COUNT>
1

>  <PUBCHEM_CACTVS_TAUTO_COUNT>
12

>  <PUBCHEM_COORDINATE_TYPE>
1
5
255

>  <PUBCHEM_BONDANNOTATIONS>
9  2  3
4  11  3
5  10  3

$$$$
