131752077
 OpenBabel06101807152D

 79 79  0  0  1  0  0  0  0  0999 V2000
    3.8660   -5.8450    0.0000 O   0  0  0  0  0  0  0  0  0  0  0  0
   14.2583    6.1550    0.0000 O   0  0  0  0  0  0  0  0  0  0  0  0
    3.0000   -3.3450    0.0000 C   0  0  0  0  0  0  0  0  0  0  0  0
    3.0000   -4.3450    0.0000 C   0  0  0  0  0  0  0  0  0  0  0  0
    3.8660   -4.8450    0.0000 C   0  0  3  0  0  0  0  0  0  0  0  0
    3.8660   -2.8450    0.0000 C   0  0  0  0  0  0  0  0  0  0  0  0
    4.7320   -4.3450    0.0000 C   0  0  0  0  0  0  0  0  0  0  0  0
    4.7320   -3.3450    0.0000 C   0  0  0  0  0  0  0  0  0  0  0  0
    2.0000   -3.3450    0.0000 C   0  0  0  0  0  0  0  0  0  0  0  0
    2.5000   -2.4790    0.0000 C   0  0  0  0  0  0  0  0  0  0  0  0
    3.8660   -1.8450    0.0000 C   0  0  0  0  0  0  0  0  0  0  0  0
    5.5981   -2.8450    0.0000 C   0  0  0  0  0  0  0  0  0  0  0  0
    4.7320   -1.3450    0.0000 C   0  0  0  0  0  0  0  0  0  0  0  0
    4.7320   -0.3450    0.0000 C   0  0  0  0  0  0  0  0  0  0  0  0
    3.8660    0.1550    0.0000 C   0  0  0  0  0  0  0  0  0  0  0  0
    5.5981    0.1550    0.0000 C   0  0  0  0  0  0  0  0  0  0  0  0
    6.4641   -0.3450    0.0000 C   0  0  0  0  0  0  0  0  0  0  0  0
    7.3301    0.1550    0.0000 C   0  0  0  0  0  0  0  0  0  0  0  0
    8.1962   -0.3450    0.0000 C   0  0  0  0  0  0  0  0  0  0  0  0
    8.1962   -1.3450    0.0000 C   0  0  0  0  0  0  0  0  0  0  0  0
    9.0622    0.1550    0.0000 C   0  0  0  0  0  0  0  0  0  0  0  0
    9.0622    1.1550    0.0000 C   0  0  0  0  0  0  0  0  0  0  0  0
    9.9282    1.6550    0.0000 C   0  0  0  0  0  0  0  0  0  0  0  0
    9.9282    2.6550    0.0000 C   0  0  0  0  0  0  0  0  0  0  0  0
   10.7942    3.1550    0.0000 C   0  0  0  0  0  0  0  0  0  0  0  0
   10.7942    4.1550    0.0000 C   0  0  0  0  0  0  0  0  0  0  0  0
   11.6603    2.6550    0.0000 C   0  0  0  0  0  0  0  0  0  0  0  0
   11.6603    4.6550    0.0000 C   0  0  0  0  0  0  0  0  0  0  0  0
   13.3923    4.6550    0.0000 C   0  0  0  0  0  0  0  0  0  0  0  0
   12.5263    4.1550    0.0000 C   0  0  0  0  0  0  0  0  0  0  0  0
   13.3923    5.6550    0.0000 C   0  0  0  0  0  0  0  0  0  0  0  0
   14.2583    4.1550    0.0000 C   0  0  0  0  0  0  0  0  0  0  0  0
   15.1244    4.6550    0.0000 C   0  0  0  0  0  0  0  0  0  0  0  0
   15.1244    5.6550    0.0000 C   0  0  0  0  0  0  0  0  0  0  0  0
   15.9904    6.1550    0.0000 C   0  0  0  0  0  0  0  0  0  0  0  0
    2.3894   -4.2373    0.0000 H   0  0  0  0  0  0  0  0  0  0  0  0
    2.7880   -4.9276    0.0000 H   0  0  0  0  0  0  0  0  0  0  0  0
    4.4030   -5.1550    0.0000 H   0  0  0  0  0  0  0  0  0  0  0  0
    4.9441   -4.9276    0.0000 H   0  0  0  0  0  0  0  0  0  0  0  0
    5.3426   -4.2373    0.0000 H   0  0  0  0  0  0  0  0  0  0  0  0
    3.0369   -2.1690    0.0000 H   0  0  0  0  0  0  0  0  0  0  0  0
    2.1900   -1.9420    0.0000 H   0  0  0  0  0  0  0  0  0  0  0  0
    1.9631   -2.7890    0.0000 H   0  0  0  0  0  0  0  0  0  0  0  0
    2.0000   -2.7250    0.0000 H   0  0  0  0  0  0  0  0  0  0  0  0
    1.3800   -3.3450    0.0000 H   0  0  0  0  0  0  0  0  0  0  0  0
    2.0000   -3.9650    0.0000 H   0  0  0  0  0  0  0  0  0  0  0  0
    3.3291   -1.5350    0.0000 H   0  0  0  0  0  0  0  0  0  0  0  0
    5.9081   -3.3819    0.0000 H   0  0  0  0  0  0  0  0  0  0  0  0
    6.1350   -2.5350    0.0000 H   0  0  0  0  0  0  0  0  0  0  0  0
    5.2881   -2.3081    0.0000 H   0  0  0  0  0  0  0  0  0  0  0  0
    4.4030   -6.1550    0.0000 H   0  0  0  0  0  0  0  0  0  0  0  0
    5.2690   -1.6550    0.0000 H   0  0  0  0  0  0  0  0  0  0  0  0
    4.1760    0.6919    0.0000 H   0  0  0  0  0  0  0  0  0  0  0  0
    3.3291    0.4650    0.0000 H   0  0  0  0  0  0  0  0  0  0  0  0
    3.5560   -0.3819    0.0000 H   0  0  0  0  0  0  0  0  0  0  0  0
    5.5981    0.7750    0.0000 H   0  0  0  0  0  0  0  0  0  0  0  0
    6.4641   -0.9650    0.0000 H   0  0  0  0  0  0  0  0  0  0  0  0
    7.3301    0.7750    0.0000 H   0  0  0  0  0  0  0  0  0  0  0  0
    7.5762   -1.3450    0.0000 H   0  0  0  0  0  0  0  0  0  0  0  0
    8.1962   -1.9650    0.0000 H   0  0  0  0  0  0  0  0  0  0  0  0
    8.8162   -1.3450    0.0000 H   0  0  0  0  0  0  0  0  0  0  0  0
    9.5991   -0.1550    0.0000 H   0  0  0  0  0  0  0  0  0  0  0  0
    8.5252    1.4650    0.0000 H   0  0  0  0  0  0  0  0  0  0  0  0
   10.4651    1.3450    0.0000 H   0  0  0  0  0  0  0  0  0  0  0  0
    9.3913    2.9650    0.0000 H   0  0  0  0  0  0  0  0  0  0  0  0
   10.2573    4.4650    0.0000 H   0  0  0  0  0  0  0  0  0  0  0  0
   11.3503    2.1181    0.0000 H   0  0  0  0  0  0  0  0  0  0  0  0
   12.1972    2.3450    0.0000 H   0  0  0  0  0  0  0  0  0  0  0  0
   11.9703    3.1919    0.0000 H   0  0  0  0  0  0  0  0  0  0  0  0
   11.6603    5.2750    0.0000 H   0  0  0  0  0  0  0  0  0  0  0  0
   12.5263    3.5350    0.0000 H   0  0  0  0  0  0  0  0  0  0  0  0
   14.0123    5.6550    0.0000 H   0  0  0  0  0  0  0  0  0  0  0  0
   13.3923    6.2750    0.0000 H   0  0  0  0  0  0  0  0  0  0  0  0
   12.7723    5.6550    0.0000 H   0  0  0  0  0  0  0  0  0  0  0  0
   14.2583    3.5350    0.0000 H   0  0  0  0  0  0  0  0  0  0  0  0
   15.6613    4.3450    0.0000 H   0  0  0  0  0  0  0  0  0  0  0  0
   16.3004    5.6181    0.0000 H   0  0  0  0  0  0  0  0  0  0  0  0
   16.5273    6.4650    0.0000 H   0  0  0  0  0  0  0  0  0  0  0  0
   15.6804    6.6919    0.0000 H   0  0  0  0  0  0  0  0  0  0  0  0
  1  5  1  0  0  0  0
  1 51  1  0  0  0  0
  2 34  2  0  0  0  0
  3  4  1  0  0  0  0
  3  6  1  0  0  0  0
  3  9  1  0  0  0  0
  3 10  1  0  0  0  0
  4  5  1  0  0  0  0
  4 36  1  0  0  0  0
  4 37  1  0  0  0  0
  5  7  1  0  0  0  0
  5 38  1  0  0  0  0
  6  8  2  0  0  0  0
  6 11  1  0  0  0  0
  7  8  1  0  0  0  0
  7 39  1  0  0  0  0
  7 40  1  0  0  0  0
  8 12  1  0  0  0  0
  9 44  1  0  0  0  0
  9 45  1  0  0  0  0
  9 46  1  0  0  0  0
 10 41  1  0  0  0  0
 10 42  1  0  0  0  0
 10 43  1  0  0  0  0
 11 13  2  0  0  0  0
 11 47  1  0  0  0  0
 12 48  1  0  0  0  0
 12 49  1  0  0  0  0
 12 50  1  0  0  0  0
 13 14  1  0  0  0  0
 13 52  1  0  0  0  0
 14 15  1  0  0  0  0
 14 16  2  0  0  0  0
 15 53  1  0  0  0  0
 15 54  1  0  0  0  0
 15 55  1  0  0  0  0
 16 17  1  0  0  0  0
 16 56  1  0  0  0  0
 17 18  2  0  0  0  0
 17 57  1  0  0  0  0
 18 19  1  0  0  0  0
 18 58  1  0  0  0  0
 19 20  1  0  0  0  0
 19 21  2  0  0  0  0
 20 59  1  0  0  0  0
 20 60  1  0  0  0  0
 20 61  1  0  0  0  0
 21 22  1  0  0  0  0
 21 62  1  0  0  0  0
 22 23  2  0  0  0  0
 22 63  1  0  0  0  0
 23 24  1  0  0  0  0
 23 64  1  0  0  0  0
 24 25  2  0  0  0  0
 24 65  1  0  0  0  0
 25 26  1  0  0  0  0
 25 27  1  0  0  0  0
 26 28  2  0  0  0  0
 26 66  1  0  0  0  0
 27 67  1  0  0  0  0
 27 68  1  0  0  0  0
 27 69  1  0  0  0  0
 28 30  1  0  0  0  0
 28 70  1  0  0  0  0
 29 30  2  0  0  0  0
 29 31  1  0  0  0  0
 29 32  1  0  0  0  0
 30 71  1  0  0  0  0
 31 72  1  0  0  0  0
 31 73  1  0  0  0  0
 31 74  1  0  0  0  0
 32 33  2  0  0  0  0
 32 75  1  0  0  0  0
 33 34  1  0  0  0  0
 33 76  1  0  0  0  0
 34 35  1  0  0  0  0
 35 77  1  0  0  0  0
 35 78  1  0  0  0  0
 35 79  1  0  0  0  0
M  END
>  <PUBCHEM_COMPOUND_CID>
131752077

>  <PUBCHEM_COMPOUND_CANONICALIZED>
1

>  <PUBCHEM_CACTVS_COMPLEXITY>
1040

>  <PUBCHEM_CACTVS_HBOND_ACCEPTOR>
2

>  <PUBCHEM_CACTVS_HBOND_DONOR>
1

>  <PUBCHEM_CACTVS_ROTATABLE_BOND>
10

>  <PUBCHEM_CACTVS_SUBSKEYS>
AAADcfB8MAAAAAAAAAAAAAAAAAAAAAAAAAAgAAAAAAAAAAAAAAAAGgAACAAADhSggAICAAAAAgCIAqBSAAAAAAAgAAAICAAAAEgIEAIAAQAAQAAEwAAIgYOAgMAPAAAAAAAAAAAAAAAAAAAAAAAAAAAAAA==

>  <PUBCHEM_IUPAC_OPENEYE_NAME>
(3Z,5E,7Z,9E,11E,13Z,15E,17Z,19E)-20-(4-hydroxy-2,6,6-trimethyl-cyclohexen-1-yl)-5,9,14,18-tetramethyl-icosa-3,5,7,9,11,13,15,17,19-nonaen-2-one

>  <PUBCHEM_IUPAC_CAS_NAME>
(3Z,5E,7Z,9E,11E,13Z,15E,17Z,19E)-20-(4-hydroxy-2,6,6-trimethyl-1-cyclohexenyl)-5,9,14,18-tetramethyl-2-eicosa-3,5,7,9,11,13,15,17,19-nonaenone

>  <PUBCHEM_IUPAC_NAME>
(3Z,5E,7Z,9E,11E,13Z,15E,17Z,19E)-20-(4-hydroxy-2,6,6-trimethylcyclohexen-1-yl)-5,9,14,18-tetramethylicosa-3,5,7,9,11,13,15,17,19-nonaen-2-one

>  <PUBCHEM_IUPAC_SYSTEMATIC_NAME>
(3Z,5E,7Z,9E,11E,13Z,15E,17Z,19E)-5,9,14,18-tetramethyl-20-(2,6,6-trimethyl-4-oxidanyl-cyclohexen-1-yl)icosa-3,5,7,9,11,13,15,17,19-nonaen-2-one

>  <PUBCHEM_IUPAC_TRADITIONAL_NAME>
(3Z,5E,7Z,9E,11E,13Z,15E,17Z,19E)-20-(4-hydroxy-2,6,6-trimethyl-cyclohexen-1-yl)-5,9,14,18-tetramethyl-eicosa-3,5,7,9,11,13,15,17,19-nonaen-2-one

>  <PUBCHEM_IUPAC_INCHI>
InChI=1S/C33H44O2/c1-25(15-11-17-27(3)19-21-30(6)34)13-9-10-14-26(2)16-12-18-28(4)20-22-32-29(5)23-31(35)24-33(32,7)8/h9-22,31,35H,23-24H2,1-8H3/b10-9+,15-11-,16-12+,21-19-,22-20+,25-13+,26-14-,27-17+,28-18-

>  <PUBCHEM_IUPAC_INCHIKEY>
JNRFHJQRIUJTNO-DBTGPYIJSA-N

>  <PUBCHEM_EXACT_MASS>
472.334

>  <PUBCHEM_MOLECULAR_FORMULA>
C33H44O2

>  <PUBCHEM_MOLECULAR_WEIGHT>
472.713

>  <PUBCHEM_OPENEYE_CAN_SMILES>
CC1=C(C(CC(C1)O)(C)C)C=CC(=CC=CC(=CC=CC=C(C)C=CC=C(C)C=CC(=O)C)C)C

>  <PUBCHEM_OPENEYE_ISO_SMILES>
CC1=C(C(CC(C1)O)(C)C)/C=C/C(=C\C=C\C(=C/C=C/C=C(\C)/C=C\C=C(/C)\C=C/C(=O)C)\C)/C

>  <PUBCHEM_CACTVS_TPSA>
37.3

>  <PUBCHEM_MONOISOTOPIC_WEIGHT>
472.334

>  <PUBCHEM_TOTAL_CHARGE>
0

>  <PUBCHEM_HEAVY_ATOM_COUNT>
35

>  <PUBCHEM_ATOM_DEF_STEREO_COUNT>
0

>  <PUBCHEM_ATOM_UDEF_STEREO_COUNT>
1

>  <PUBCHEM_BOND_DEF_STEREO_COUNT>
9

>  <PUBCHEM_BOND_UDEF_STEREO_COUNT>
0

>  <PUBCHEM_ISOTOPIC_ATOM_COUNT>
0

>  <PUBCHEM_COMPONENT_COUNT>
1

>  <PUBCHEM_CACTVS_TAUTO_COUNT>
1001

>  <PUBCHEM_COORDINATE_TYPE>
1
5
255

>  <PUBCHEM_BONDANNOTATIONS>
5  1  3

$$$$
