131753167
 OpenBabel06101807152D

125134  0  0  1  0  0  0  0  0999 V2000
   10.1740   -0.3547    0.0000 O   0  0  0  0  0  0  0  0  0  0  0  0
    5.8735   -0.3610    0.0000 O   0  0  0  0  0  0  0  0  0  0  0  0
    9.6342    3.1537    0.0000 O   0  0  0  0  0  0  0  0  0  0  0  0
   10.9233    4.3105    0.0000 O   0  0  0  0  0  0  0  0  0  0  0  0
    6.8671   -3.6866    0.0000 O   0  0  0  0  0  0  0  0  0  0  0  0
    5.1350   -3.6866    0.0000 O   0  0  0  0  0  0  0  0  0  0  0  0
   10.9698    1.6651    0.0000 O   0  0  0  0  0  0  0  0  0  0  0  0
   12.9269    2.0776    0.0000 O   0  0  0  0  0  0  0  0  0  0  0  0
   13.5482    3.9786    0.0000 O   0  0  0  0  0  0  0  0  0  0  0  0
    6.8671   -5.6866    0.0000 O   0  0  0  0  0  0  0  0  0  0  0  0
    5.1350   -6.6866    0.0000 O   0  0  0  0  0  0  0  0  0  0  0  0
    3.4030   -5.6866    0.0000 O   0  0  0  0  0  0  0  0  0  0  0  0
    3.4458    2.2285    0.0000 O   0  0  0  0  0  0  0  0  0  0  0  0
    5.1350   -0.6866    0.0000 O   0  0  0  0  0  0  0  0  0  0  0  0
   13.1910    5.6734    0.0000 O   0  0  0  0  0  0  0  0  0  0  0  0
    2.5369   -4.1866    0.0000 O   0  0  0  0  0  0  0  0  0  0  0  0
   12.1783   -4.0689    0.0000 O   0  0  0  0  0  0  0  0  0  0  0  0
    8.8652   -3.7550    0.0000 O   0  0  0  0  0  0  0  0  0  0  0  0
    9.7478    6.3860    0.0000 O   0  0  0  0  0  0  0  0  0  0  0  0
    7.1065    0.6735    0.0000 C   0  0  3  0  0  0  0  0  0  0  0  0
    8.5991   -0.6866    0.0000 C   0  0  3  0  0  0  0  0  0  0  0  0
    8.7022    0.3022    0.0000 C   0  0  0  0  0  0  0  0  0  0  0  0
    8.0343    1.0465    0.0000 C   0  0  0  0  0  0  0  0  0  0  0  0
    9.5069   -1.0917    0.0000 C   0  0  3  0  0  0  0  0  0  0  0  0
    6.8652   -0.2909    0.0000 C   0  0  3  0  0  0  0  0  0  0  0  0
    6.2648    1.2024    0.0000 C   0  0  0  0  0  0  0  0  0  0  0  0
    9.6807    0.5084    0.0000 C   0  0  0  0  0  0  0  0  0  0  0  0
    7.7331   -1.1866    0.0000 C   0  0  0  0  0  0  0  0  0  0  0  0
    8.3450    1.9970    0.0000 C   0  0  0  0  0  0  0  0  0  0  0  0
    5.4988    0.5597    0.0000 C   0  0  0  0  0  0  0  0  0  0  0  0
    9.3235    2.2032    0.0000 C   0  0  0  0  0  0  0  0  0  0  0  0
    9.9913    1.4589    0.0000 C   0  0  0  0  0  0  0  0  0  0  0  0
   10.1747   -1.8360    0.0000 C   0  0  0  0  0  0  0  0  0  0  0  0
    7.3652   -1.1569    0.0000 C   0  0  0  0  0  0  0  0  0  0  0  0
    6.0912    2.1872    0.0000 C   0  0  0  0  0  0  0  0  0  0  0  0
   10.6127    3.3599    0.0000 C   0  0  3  0  0  0  0  0  0  0  0  0
   11.2805    2.6156    0.0000 C   0  0  3  0  0  0  0  0  0  0  0  0
   12.2590    2.8219    0.0000 C   0  0  3  0  0  0  0  0  0  0  0  0
   12.5697    3.7724    0.0000 C   0  0  3  0  0  0  0  0  0  0  0  0
   11.9018    4.5167    0.0000 C   0  0  3  0  0  0  0  0  0  0  0  0
    7.7331   -2.1866    0.0000 C   0  0  0  0  0  0  0  0  0  0  0  0
    6.8671   -0.6866    0.0000 C   0  0  0  0  0  0  0  0  0  0  0  0
    4.5591    0.9017    0.0000 C   0  0  0  0  0  0  0  0  0  0  0  0
    5.1515    2.5293    0.0000 C   0  0  0  0  0  0  0  0  0  0  0  0
    6.0010   -4.1866    0.0000 C   0  0  3  0  0  0  0  0  0  0  0  0
    6.0010   -5.1866    0.0000 C   0  0  3  0  0  0  0  0  0  0  0  0
    5.1350   -5.6866    0.0000 C   0  0  3  0  0  0  0  0  0  0  0  0
    6.8671   -2.6866    0.0000 C   0  0  0  0  0  0  0  0  0  0  0  0
    4.2690   -5.1866    0.0000 C   0  0  3  0  0  0  0  0  0  0  0  0
    9.8641   -2.7865    0.0000 C   0  0  0  0  0  0  0  0  0  0  0  0
   11.1532   -1.6298    0.0000 C   0  0  0  0  0  0  0  0  0  0  0  0
    6.8652   -2.0229    0.0000 C   0  0  0  0  0  0  0  0  0  0  0  0
    8.3652   -1.1569    0.0000 C   0  0  0  0  0  0  0  0  0  0  0  0
    4.2690   -4.1866    0.0000 C   0  0  3  0  0  0  0  0  0  0  0  0
    4.3854    1.8865    0.0000 C   0  0  0  0  0  0  0  0  0  0  0  0
    6.8572    2.8300    0.0000 C   0  0  0  0  0  0  0  0  0  0  0  0
    6.0010   -1.1866    0.0000 C   0  0  0  0  0  0  0  0  0  0  0  0
   12.2125    5.4672    0.0000 C   0  0  0  0  0  0  0  0  0  0  0  0
    6.0010   -2.1866    0.0000 C   0  0  0  0  0  0  0  0  0  0  0  0
   10.5320   -3.5308    0.0000 C   0  0  0  0  0  0  0  0  0  0  0  0
   11.8211   -2.3741    0.0000 C   0  0  0  0  0  0  0  0  0  0  0  0
    7.3652   -2.8890    0.0000 C   0  0  0  0  0  0  0  0  0  0  0  0
    8.8652   -2.0229    0.0000 C   0  0  0  0  0  0  0  0  0  0  0  0
    3.4030   -3.6866    0.0000 C   0  0  0  0  0  0  0  0  0  0  0  0
   11.5104   -3.3246    0.0000 C   0  0  0  0  0  0  0  0  0  0  0  0
    8.3652   -2.8890    0.0000 C   0  0  0  0  0  0  0  0  0  0  0  0
    6.6836    3.8148    0.0000 C   0  0  0  0  0  0  0  0  0  0  0  0
    7.4496    4.4576    0.0000 C   0  0  0  0  0  0  0  0  0  0  0  0
    8.3893    4.1156    0.0000 C   0  0  0  0  0  0  0  0  0  0  0  0
    7.2760    5.4424    0.0000 C   0  0  0  0  0  0  0  0  0  0  0  0
    9.1554    4.7584    0.0000 C   0  0  0  0  0  0  0  0  0  0  0  0
    8.0420    6.0852    0.0000 C   0  0  0  0  0  0  0  0  0  0  0  0
    8.9817    5.7432    0.0000 C   0  0  0  0  0  0  0  0  0  0  0  0
    7.5738    0.2662    0.0000 H   0  0  0  0  0  0  0  0  0  0  0  0
    8.6313   -1.3057    0.0000 H   0  0  0  0  0  0  0  0  0  0  0  0
    9.1418   -1.5928    0.0000 H   0  0  0  0  0  0  0  0  0  0  0  0
    7.4792   -0.2048    0.0000 H   0  0  0  0  0  0  0  0  0  0  0  0
    7.9309    2.4584    0.0000 H   0  0  0  0  0  0  0  0  0  0  0  0
   10.5980    1.5868    0.0000 H   0  0  0  0  0  0  0  0  0  0  0  0
   10.4200    2.7706    0.0000 H   0  0  0  0  0  0  0  0  0  0  0  0
   11.6946    2.1542    0.0000 H   0  0  0  0  0  0  0  0  0  0  0  0
   12.8657    2.9497    0.0000 H   0  0  0  0  0  0  0  0  0  0  0  0
   12.7623    4.3617    0.0000 H   0  0  0  0  0  0  0  0  0  0  0  0
   11.4878    4.9782    0.0000 H   0  0  0  0  0  0  0  0  0  0  0  0
    8.2700   -2.4966    0.0000 H   0  0  0  0  0  0  0  0  0  0  0  0
    6.8671   -0.0666    0.0000 H   0  0  0  0  0  0  0  0  0  0  0  0
    4.0842    0.5031    0.0000 H   0  0  0  0  0  0  0  0  0  0  0  0
    5.0438    3.1398    0.0000 H   0  0  0  0  0  0  0  0  0  0  0  0
    6.0010   -3.5666    0.0000 H   0  0  0  0  0  0  0  0  0  0  0  0
    6.0010   -5.8066    0.0000 H   0  0  0  0  0  0  0  0  0  0  0  0
    4.5981   -5.9966    0.0000 H   0  0  0  0  0  0  0  0  0  0  0  0
    4.2690   -5.8066    0.0000 H   0  0  0  0  0  0  0  0  0  0  0  0
    9.2575   -2.9144    0.0000 H   0  0  0  0  0  0  0  0  0  0  0  0
   11.3459   -1.0404    0.0000 H   0  0  0  0  0  0  0  0  0  0  0  0
    4.2690   -3.5666    0.0000 H   0  0  0  0  0  0  0  0  0  0  0  0
    6.2452   -2.0230    0.0000 H   0  0  0  0  0  0  0  0  0  0  0  0
    8.6752   -0.6200    0.0000 H   0  0  0  0  0  0  0  0  0  0  0  0
    7.4398    2.6180    0.0000 H   0  0  0  0  0  0  0  0  0  0  0  0
   12.1919    6.0869    0.0000 H   0  0  0  0  0  0  0  0  0  0  0  0
   11.5987    5.5546    0.0000 H   0  0  0  0  0  0  0  0  0  0  0  0
    5.4641   -2.4966    0.0000 H   0  0  0  0  0  0  0  0  0  0  0  0
   10.3394   -4.1201    0.0000 H   0  0  0  0  0  0  0  0  0  0  0  0
   12.4278   -2.2462    0.0000 H   0  0  0  0  0  0  0  0  0  0  0  0
   11.3839    1.2037    0.0000 H   0  0  0  0  0  0  0  0  0  0  0  0
    7.0552   -3.4259    0.0000 H   0  0  0  0  0  0  0  0  0  0  0  0
    9.4852   -2.0229    0.0000 H   0  0  0  0  0  0  0  0  0  0  0  0
    3.8015   -3.2116    0.0000 H   0  0  0  0  0  0  0  0  0  0  0  0
    3.0044   -3.2116    0.0000 H   0  0  0  0  0  0  0  0  0  0  0  0
   13.5335    2.2054    0.0000 H   0  0  0  0  0  0  0  0  0  0  0  0
   13.9622    3.5171    0.0000 H   0  0  0  0  0  0  0  0  0  0  0  0
    6.1010    4.0269    0.0000 H   0  0  0  0  0  0  0  0  0  0  0  0
    7.4040   -5.3766    0.0000 H   0  0  0  0  0  0  0  0  0  0  0  0
    5.6720   -6.9966    0.0000 H   0  0  0  0  0  0  0  0  0  0  0  0
    3.4030   -6.3066    0.0000 H   0  0  0  0  0  0  0  0  0  0  0  0
    3.3381    2.8391    0.0000 H   0  0  0  0  0  0  0  0  0  0  0  0
    4.5981   -0.9966    0.0000 H   0  0  0  0  0  0  0  0  0  0  0  0
   13.3836    6.2627    0.0000 H   0  0  0  0  0  0  0  0  0  0  0  0
    2.0000   -3.8766    0.0000 H   0  0  0  0  0  0  0  0  0  0  0  0
   12.7849   -3.9410    0.0000 H   0  0  0  0  0  0  0  0  0  0  0  0
    8.5552   -4.2919    0.0000 H   0  0  0  0  0  0  0  0  0  0  0  0
    8.4970    3.5050    0.0000 H   0  0  0  0  0  0  0  0  0  0  0  0
    6.6934    5.6545    0.0000 H   0  0  0  0  0  0  0  0  0  0  0  0
    9.7380    4.5463    0.0000 H   0  0  0  0  0  0  0  0  0  0  0  0
    7.9344    6.6958    0.0000 H   0  0  0  0  0  0  0  0  0  0  0  0
    9.6401    6.9966    0.0000 H   0  0  0  0  0  0  0  0  0  0  0  0
  1 24  1  0  0  0  0
  1 27  1  0  0  0  0
  2 25  1  0  0  0  0
  2 30  1  0  0  0  0
  3 31  1  0  0  0  0
  3 36  1  0  0  0  0
  4 36  1  0  0  0  0
  4 40  1  0  0  0  0
  5 45  1  0  0  0  0
  5 48  1  0  0  0  0
  6 45  1  0  0  0  0
  6 54  1  0  0  0  0
  7 37  1  0  0  0  0
  7104  1  0  0  0  0
  8 38  1  0  0  0  0
  8109  1  0  0  0  0
  9 39  1  0  0  0  0
  9110  1  0  0  0  0
 10 46  1  0  0  0  0
 10112  1  0  0  0  0
 11 47  1  0  0  0  0
 11113  1  0  0  0  0
 12 49  1  0  0  0  0
 12114  1  0  0  0  0
 13 55  1  0  0  0  0
 13115  1  0  0  0  0
 14 57  1  0  0  0  0
 14116  1  0  0  0  0
 15 58  1  0  0  0  0
 15117  1  0  0  0  0
 16 64  1  0  0  0  0
 16118  1  0  0  0  0
 17 65  1  0  0  0  0
 17119  1  0  0  0  0
 18 66  1  0  0  0  0
 18120  1  0  0  0  0
 19 73  1  0  0  0  0
 19125  1  0  0  0  0
 20 23  1  0  0  0  0
 20 25  1  0  0  0  0
 20 26  1  0  0  0  0
 20 74  1  0  0  0  0
 21 22  1  0  0  0  0
 21 24  1  0  0  0  0
 21 28  1  0  0  0  0
 21 75  1  0  0  0  0
 22 23  2  0  0  0  0
 22 27  1  0  0  0  0
 23 29  1  0  0  0  0
 24 33  1  0  0  0  0
 24 76  1  0  0  0  0
 25 34  1  0  0  0  0
 25 77  1  0  0  0  0
 26 30  1  0  0  0  0
 26 35  2  0  0  0  0
 27 32  2  0  0  0  0
 28 41  1  0  0  0  0
 28 42  2  0  0  0  0
 29 31  2  0  0  0  0
 29 78  1  0  0  0  0
 30 43  2  0  0  0  0
 31 32  1  0  0  0  0
 32 79  1  0  0  0  0
 33 50  2  0  0  0  0
 33 51  1  0  0  0  0
 34 52  2  0  0  0  0
 34 53  1  0  0  0  0
 35 44  1  0  0  0  0
 35 56  1  0  0  0  0
 36 37  1  0  0  0  0
 36 80  1  0  0  0  0
 37 38  1  0  0  0  0
 37 81  1  0  0  0  0
 38 39  1  0  0  0  0
 38 82  1  0  0  0  0
 39 40  1  0  0  0  0
 39 83  1  0  0  0  0
 40 58  1  0  0  0  0
 40 84  1  0  0  0  0
 41 48  2  0  0  0  0
 41 85  1  0  0  0  0
 42 57  1  0  0  0  0
 42 86  1  0  0  0  0
 43 55  1  0  0  0  0
 43 87  1  0  0  0  0
 44 55  2  0  0  0  0
 44 88  1  0  0  0  0
 45 46  1  0  0  0  0
 45 89  1  0  0  0  0
 46 47  1  0  0  0  0
 46 90  1  0  0  0  0
 47 49  1  0  0  0  0
 47 91  1  0  0  0  0
 48 59  1  0  0  0  0
 49 54  1  0  0  0  0
 49 92  1  0  0  0  0
 50 60  1  0  0  0  0
 50 93  1  0  0  0  0
 51 61  2  0  0  0  0
 51 94  1  0  0  0  0
 52 62  1  0  0  0  0
 52 96  1  0  0  0  0
 53 63  2  0  0  0  0
 53 97  1  0  0  0  0
 54 64  1  0  0  0  0
 54 95  1  0  0  0  0
 56 67  2  0  0  0  0
 56 98  1  0  0  0  0
 57 59  2  0  0  0  0
 58 99  1  0  0  0  0
 58100  1  0  0  0  0
 59101  1  0  0  0  0
 60 65  2  0  0  0  0
 60102  1  0  0  0  0
 61 65  1  0  0  0  0
 61103  1  0  0  0  0
 62 66  2  0  0  0  0
 62105  1  0  0  0  0
 63 66  1  0  0  0  0
 63106  1  0  0  0  0
 64107  1  0  0  0  0
 64108  1  0  0  0  0
 67 68  1  0  0  0  0
 67111  1  0  0  0  0
 68 69  2  0  0  0  0
 68 70  1  0  0  0  0
 69 71  1  0  0  0  0
 69121  1  0  0  0  0
 70 72  2  0  0  0  0
 70122  1  0  0  0  0
 71 73  2  0  0  0  0
 71123  1  0  0  0  0
 72 73  1  0  0  0  0
 72124  1  0  0  0  0
M  END
>  <PUBCHEM_COMPOUND_CID>
131753167

>  <PUBCHEM_COMPOUND_CANONICALIZED>
1

>  <PUBCHEM_CACTVS_COMPLEXITY>
1770

>  <PUBCHEM_CACTVS_HBOND_ACCEPTOR>
19

>  <PUBCHEM_CACTVS_HBOND_DONOR>
13

>  <PUBCHEM_CACTVS_ROTATABLE_BOND>
12

>  <PUBCHEM_CACTVS_SUBSKEYS>
AAADcfB8PgAAAAAAAAAAAAAAAAAAASJAAAA0aMGDAAAAAEgBVAAAGgAACAAADRSwmAMwDoAABgCAAiBCAAACCAAgIAAIiAAGCIgdNyKGMRqieCClwBUPuAfA4PwOoAABCAAYAABAAAIQADAAAAAAAAAAAA==

>  <PUBCHEM_IUPAC_OPENEYE_NAME>
2-[3-hydroxy-5-[4-[6-hydroxy-2-(4-hydroxyphenyl)-4-[(E)-2-(4-hydroxyphenyl)vinyl]-2,3-dihydrobenzofuran-3-yl]-2-(4-hydroxyphenyl)-6-[3,4,5-trihydroxy-6-(hydroxymethyl)tetrahydropyran-2-yl]oxy-2,3-dihydrobenzofuran-3-yl]phenoxy]-6-(hydroxymethyl)tetrahydropyran-3,4,5-triol

>  <PUBCHEM_IUPAC_CAS_NAME>
2-[3-hydroxy-5-[4-[6-hydroxy-2-(4-hydroxyphenyl)-4-[(E)-2-(4-hydroxyphenyl)ethenyl]-2,3-dihydrobenzofuran-3-yl]-2-(4-hydroxyphenyl)-6-[[3,4,5-trihydroxy-6-(hydroxymethyl)-2-oxanyl]oxy]-2,3-dihydrobenzofuran-3-yl]phenoxy]-6-(hydroxymethyl)oxane-3,4,5-triol

>  <PUBCHEM_IUPAC_NAME>
2-[3-hydroxy-5-[4-[6-hydroxy-2-(4-hydroxyphenyl)-4-[(E)-2-(4-hydroxyphenyl)ethenyl]-2,3-dihydro-1-benzofuran-3-yl]-2-(4-hydroxyphenyl)-6-[3,4,5-trihydroxy-6-(hydroxymethyl)oxan-2-yl]oxy-2,3-dihydro-1-benzofuran-3-yl]phenoxy]-6-(hydroxymethyl)oxane-3,4,5-triol

>  <PUBCHEM_IUPAC_SYSTEMATIC_NAME>
2-(hydroxymethyl)-6-[3-[6-[6-(hydroxymethyl)-3,4,5-tris(oxidanyl)oxan-2-yl]oxy-2-(4-hydroxyphenyl)-4-[2-(4-hydroxyphenyl)-4-[(E)-2-(4-hydroxyphenyl)ethenyl]-6-oxidanyl-2,3-dihydro-1-benzofuran-3-yl]-2,3-dihydro-1-benzofuran-3-yl]-5-oxidanyl-phenoxy]oxane-3,4,5-triol

>  <PUBCHEM_IUPAC_TRADITIONAL_NAME>
2-[3-hydroxy-5-[4-[6-hydroxy-2-(4-hydroxyphenyl)-4-[(E)-2-(4-hydroxyphenyl)vinyl]coumaran-3-yl]-2-(4-hydroxyphenyl)-6-(3,4,5-trihydroxy-6-methylol-tetrahydropyran-2-yl)oxy-coumaran-3-yl]phenoxy]-6-methylol-tetrahydropyran-3,4,5-triol

>  <PUBCHEM_IUPAC_INCHI>
InChI=1S/C54H52O19/c55-22-39-45(62)47(64)49(66)53(72-39)68-34-17-28(16-32(60)18-34)42-43-36(20-35(69-54-50(67)48(65)46(63)40(23-56)73-54)21-38(43)71-51(42)25-5-11-30(58)12-6-25)44-41-27(4-1-24-2-9-29(57)10-3-24)15-33(61)19-37(41)70-52(44)26-7-13-31(59)14-8-26/h1-21,39-40,42,44-67H,22-23H2/b4-1+

>  <PUBCHEM_IUPAC_INCHIKEY>
VAKPECSFQPSYGO-DAFODLJHSA-N

>  <PUBCHEM_EXACT_MASS>
1004.31

>  <PUBCHEM_MOLECULAR_FORMULA>
C54H52O19

>  <PUBCHEM_MOLECULAR_WEIGHT>
1004.991

>  <PUBCHEM_OPENEYE_CAN_SMILES>
C1=CC(=CC=C1C=CC2=CC(=CC3=C2C(C(O3)C4=CC=C(C=C4)O)C5=CC(=CC6=C5C(C(O6)C7=CC=C(C=C7)O)C8=CC(=CC(=C8)OC9C(C(C(C(O9)CO)O)O)O)O)OC1C(C(C(C(O1)CO)O)O)O)O)O

>  <PUBCHEM_OPENEYE_ISO_SMILES>
C1=CC(=CC=C1/C=C/C2=CC(=CC3=C2C(C(O3)C4=CC=C(C=C4)O)C5=CC(=CC6=C5C(C(O6)C7=CC=C(C=C7)O)C8=CC(=CC(=C8)OC9C(C(C(C(O9)CO)O)O)O)O)OC1C(C(C(C(O1)CO)O)O)O)O)O

>  <PUBCHEM_CACTVS_TPSA>
318

>  <PUBCHEM_MONOISOTOPIC_WEIGHT>
1004.31

>  <PUBCHEM_TOTAL_CHARGE>
0

>  <PUBCHEM_HEAVY_ATOM_COUNT>
73

>  <PUBCHEM_ATOM_DEF_STEREO_COUNT>
0

>  <PUBCHEM_ATOM_UDEF_STEREO_COUNT>
14

>  <PUBCHEM_BOND_DEF_STEREO_COUNT>
1

>  <PUBCHEM_BOND_UDEF_STEREO_COUNT>
0

>  <PUBCHEM_ISOTOPIC_ATOM_COUNT>
0

>  <PUBCHEM_COMPONENT_COUNT>
1

>  <PUBCHEM_CACTVS_TAUTO_COUNT>
994

>  <PUBCHEM_COORDINATE_TYPE>
1
5
255

>  <PUBCHEM_BONDANNOTATIONS>
46  10  3
47  11  3
49  12  3
20  23  3
21  28  3
22  23  8
22  27  8
23  29  8
24  33  3
25  34  3
26  30  8
26  35  8
27  32  8
28  41  8
28  42  8
29  31  8
36  3  3
30  43  8
31  32  8
33  50  8
33  51  8
34  52  8
34  53  8
35  44  8
40  58  3
41  48  8
42  57  8
43  55  8
44  55  8
48  59  8
45  5  3
50  60  8
51  61  8
52  62  8
53  63  8
54  64  3
57  59  8
60  65  8
61  65  8
62  66  8
63  66  8
68  69  8
68  70  8
69  71  8
37  7  3
70  72  8
71  73  8
72  73  8
38  8  3
39  9  3

$$$$
