131751697
 OpenBabel06101807152D

 54 55  0  0  1  0  0  0  0  0999 V2000
    5.1981   -2.7666    0.0000 O   0  0  0  0  0  0  0  0  0  0  0  0
    4.6208    0.8290    0.0000 O   0  0  0  0  0  0  0  0  0  0  0  0
    6.4387    0.4949    0.0000 O   0  0  0  0  0  0  0  0  0  0  0  0
    2.9303    1.2060    0.0000 O   0  0  0  0  0  0  0  0  0  0  0  0
    5.1931   -1.7666    0.0000 C   0  0  2  0  0  0  0  0  0  0  0  0
    5.1881   -0.7666    0.0000 C   0  0  2  0  0  0  0  0  0  0  0  0
    6.1408   -2.0666    0.0000 C   0  0  2  0  0  0  0  0  0  0  0  0
    6.7204   -1.2590    0.0000 C   0  0  0  0  0  0  0  0  0  0  0  0
    4.4144   -2.3940    0.0000 C   0  0  0  0  0  0  0  0  0  0  0  0
    6.1328   -0.4572    0.0000 C   0  0  0  0  0  0  0  0  0  0  0  0
    4.4032   -0.1470    0.0000 C   0  0  1  0  0  0  0  0  0  0  0  0
    6.4562   -3.0156    0.0000 C   0  0  0  0  0  0  0  0  0  0  0  0
    5.1831    0.2334    0.0000 C   0  0  0  0  0  0  0  0  0  0  0  0
    3.4384   -2.1763    0.0000 C   0  0  0  0  0  0  0  0  0  0  0  0
    3.4294   -0.3744    0.0000 C   0  0  0  0  0  0  0  0  0  0  0  0
    3.0000   -1.2775    0.0000 C   0  0  0  0  0  0  0  0  0  0  0  0
    7.4357   -3.2169    0.0000 C   0  0  0  0  0  0  0  0  0  0  0  0
    5.7921   -3.7632    0.0000 C   0  0  0  0  0  0  0  0  0  0  0  0
    2.0000   -1.2825    0.0000 C   0  0  0  0  0  0  0  0  0  0  0  0
    3.8844    1.5055    0.0000 C   0  0  0  0  0  0  0  0  0  0  0  0
    4.1021    2.4815    0.0000 C   0  0  0  0  0  0  0  0  0  0  0  0
    5.0562    2.7811    0.0000 C   0  0  0  0  0  0  0  0  0  0  0  0
    3.3656    3.1580    0.0000 C   0  0  0  0  0  0  0  0  0  0  0  0
    2.4115    2.8585    0.0000 C   0  0  0  0  0  0  0  0  0  0  0  0
    6.7538   -2.1597    0.0000 H   0  0  0  0  0  0  0  0  0  0  0  0
    7.1833   -1.6714    0.0000 H   0  0  0  0  0  0  0  0  0  0  0  0
    7.1792   -0.8419    0.0000 H   0  0  0  0  0  0  0  0  0  0  0  0
    4.1482   -2.9539    0.0000 H   0  0  0  0  0  0  0  0  0  0  0  0
    4.9010   -2.7781    0.0000 H   0  0  0  0  0  0  0  0  0  0  0  0
    3.9626    0.2892    0.0000 H   0  0  0  0  0  0  0  0  0  0  0  0
    5.8489   -2.8907    0.0000 H   0  0  0  0  0  0  0  0  0  0  0  0
    5.8031    0.2365    0.0000 H   0  0  0  0  0  0  0  0  0  0  0  0
    5.1800    0.8534    0.0000 H   0  0  0  0  0  0  0  0  0  0  0  0
    4.5631    0.2303    0.0000 H   0  0  0  0  0  0  0  0  0  0  0  0
    2.8346   -2.3173    0.0000 H   0  0  0  0  0  0  0  0  0  0  0  0
    3.4414   -2.7963    0.0000 H   0  0  0  0  0  0  0  0  0  0  0  0
    4.6627   -3.0792    0.0000 H   0  0  0  0  0  0  0  0  0  0  0  0
    3.0404    0.1084    0.0000 H   0  0  0  0  0  0  0  0  0  0  0  0
    7.3109   -3.8242    0.0000 H   0  0  0  0  0  0  0  0  0  0  0  0
    8.0430   -3.3417    0.0000 H   0  0  0  0  0  0  0  0  0  0  0  0
    7.5606   -2.6096    0.0000 H   0  0  0  0  0  0  0  0  0  0  0  0
    5.3286   -3.3514    0.0000 H   0  0  0  0  0  0  0  0  0  0  0  0
    5.3803   -4.2267    0.0000 H   0  0  0  0  0  0  0  0  0  0  0  0
    6.2556   -4.1749    0.0000 H   0  0  0  0  0  0  0  0  0  0  0  0
    1.9969   -0.6625    0.0000 H   0  0  0  0  0  0  0  0  0  0  0  0
    1.3800   -1.2856    0.0000 H   0  0  0  0  0  0  0  0  0  0  0  0
    2.0031   -1.9025    0.0000 H   0  0  0  0  0  0  0  0  0  0  0  0
    5.2418    2.1895    0.0000 H   0  0  0  0  0  0  0  0  0  0  0  0
    5.6477    2.9668    0.0000 H   0  0  0  0  0  0  0  0  0  0  0  0
    4.8704    3.3726    0.0000 H   0  0  0  0  0  0  0  0  0  0  0  0
    3.5006    3.7632    0.0000 H   0  0  0  0  0  0  0  0  0  0  0  0
    2.2258    3.4501    0.0000 H   0  0  0  0  0  0  0  0  0  0  0  0
    1.8200    2.6728    0.0000 H   0  0  0  0  0  0  0  0  0  0  0  0
    2.5972    2.2670    0.0000 H   0  0  0  0  0  0  0  0  0  0  0  0
  1 37  1  0  0  0  0
  2 20  1  0  0  0  0
  3 10  2  0  0  0  0
  4 20  2  0  0  0  0
  5  1  1  0  0  0  0
  5  6  1  6  0  0  0
  5  9  1  0  0  0  0
  6 10  1  0  0  0  0
  6 11  1  1  0  0  0
  6 13  1  0  0  0  0
  7  5  1  1  0  0  0
  7  8  1  0  0  0  0
  7 12  1  0  0  0  0
  7 25  1  0  0  0  0
  8 10  1  0  0  0  0
  8 26  1  0  0  0  0
  8 27  1  0  0  0  0
  9 14  1  0  0  0  0
  9 28  1  0  0  0  0
  9 29  1  0  0  0  0
 11  2  1  0  0  0  0
 11 15  1  0  0  0  0
 11 30  1  6  0  0  0
 12 17  1  0  0  0  0
 12 18  1  0  0  0  0
 12 31  1  0  0  0  0
 13 32  1  0  0  0  0
 13 33  1  0  0  0  0
 13 34  1  0  0  0  0
 14 16  1  0  0  0  0
 14 35  1  0  0  0  0
 14 36  1  0  0  0  0
 15 16  2  0  0  0  0
 15 38  1  0  0  0  0
 16 19  1  0  0  0  0
 17 39  1  0  0  0  0
 17 40  1  0  0  0  0
 17 41  1  0  0  0  0
 18 42  1  0  0  0  0
 18 43  1  0  0  0  0
 18 44  1  0  0  0  0
 19 45  1  0  0  0  0
 19 46  1  0  0  0  0
 19 47  1  0  0  0  0
 20 21  1  0  0  0  0
 21 22  1  0  0  0  0
 21 23  2  0  0  0  0
 22 48  1  0  0  0  0
 22 49  1  0  0  0  0
 22 50  1  0  0  0  0
 23 24  1  0  0  0  0
 23 51  1  0  0  0  0
 24 52  1  0  0  0  0
 24 53  1  0  0  0  0
 24 54  1  0  0  0  0
M  END
>  <PUBCHEM_COMPOUND_CID>
131751697

>  <PUBCHEM_COMPOUND_CANONICALIZED>
1

>  <PUBCHEM_CACTVS_COMPLEXITY>
601

>  <PUBCHEM_CACTVS_HBOND_ACCEPTOR>
4

>  <PUBCHEM_CACTVS_HBOND_DONOR>
1

>  <PUBCHEM_CACTVS_ROTATABLE_BOND>
4

>  <PUBCHEM_CACTVS_SUBSKEYS>
AAADceB4OAAAAAAAAAAAAAAAAAAAAYAAAAAAAAAABAAAAACAAAAAGgAACAAAD1SggAICCAAABgCIAqDSCAAAAAAgAAAACAEAAEgABBYAIQACUAAFoAAIIYOKyPCPgAAAAAAAAAAAAAAAAAAAAQAADAAAAA==

>  <PUBCHEM_IUPAC_OPENEYE_NAME>
[(1R,3aR,4R,8aS)-8a-hydroxy-1-isopropyl-3a,6-dimethyl-3-oxo-2,4,7,8-tetrahydro-1H-azulen-4-yl] (Z)-2-methylbut-2-enoate

>  <PUBCHEM_IUPAC_CAS_NAME>
(Z)-2-methyl-2-butenoic acid [(1R,3aR,4R,8aS)-8a-hydroxy-3a,6-dimethyl-3-oxo-1-propan-2-yl-2,4,7,8-tetrahydro-1H-azulen-4-yl] ester

>  <PUBCHEM_IUPAC_NAME>
[(1R,3aR,4R,8aS)-8a-hydroxy-3a,6-dimethyl-3-oxo-1-propan-2-yl-2,4,7,8-tetrahydro-1H-azulen-4-yl] (Z)-2-methylbut-2-enoate

>  <PUBCHEM_IUPAC_SYSTEMATIC_NAME>
[(1R,3aR,4R,8aS)-3a,6-dimethyl-8a-oxidanyl-3-oxidanylidene-1-propan-2-yl-2,4,7,8-tetrahydro-1H-azulen-4-yl] (Z)-2-methylbut-2-enoate

>  <PUBCHEM_IUPAC_TRADITIONAL_NAME>
(Z)-2-methylbut-2-enoic acid [(1R,3aR,4R,8aS)-8a-hydroxy-1-isopropyl-3-keto-3a,6-dimethyl-2,4,7,8-tetrahydro-1H-azulen-4-yl] ester

>  <PUBCHEM_IUPAC_INCHI>
InChI=1S/C20H30O4/c1-7-14(5)18(22)24-17-10-13(4)8-9-20(23)15(12(2)3)11-16(21)19(17,20)6/h7,10,12,15,17,23H,8-9,11H2,1-6H3/b14-7-/t15-,17-,19-,20+/m1/s1

>  <PUBCHEM_IUPAC_INCHIKEY>
IVSKJBHOJBAMEK-PLZRYLHISA-N

>  <PUBCHEM_EXACT_MASS>
334.214

>  <PUBCHEM_MOLECULAR_FORMULA>
C20H30O4

>  <PUBCHEM_MOLECULAR_WEIGHT>
334.456

>  <PUBCHEM_OPENEYE_CAN_SMILES>
CC=C(C)C(=O)OC1C=C(CCC2(C1(C(=O)CC2C(C)C)C)O)C

>  <PUBCHEM_OPENEYE_ISO_SMILES>
C/C=C(/C)\C(=O)O[C@@H]1C=C(CC[C@]2([C@@]1(C(=O)C[C@@H]2C(C)C)C)O)C

>  <PUBCHEM_CACTVS_TPSA>
63.6

>  <PUBCHEM_MONOISOTOPIC_WEIGHT>
334.214

>  <PUBCHEM_TOTAL_CHARGE>
0

>  <PUBCHEM_HEAVY_ATOM_COUNT>
24

>  <PUBCHEM_ATOM_DEF_STEREO_COUNT>
4

>  <PUBCHEM_ATOM_UDEF_STEREO_COUNT>
0

>  <PUBCHEM_BOND_DEF_STEREO_COUNT>
1

>  <PUBCHEM_BOND_UDEF_STEREO_COUNT>
0

>  <PUBCHEM_ISOTOPIC_ATOM_COUNT>
0

>  <PUBCHEM_COMPONENT_COUNT>
1

>  <PUBCHEM_CACTVS_TAUTO_COUNT>
2

>  <PUBCHEM_COORDINATE_TYPE>
1
5
255

>  <PUBCHEM_BONDANNOTATIONS>
5  1  6
11  2  5
6  13  6
7  12  6

$$$$
