131753151
 OpenBabel06101807152D

 52 56  0  0  1  0  0  0  0  0999 V2000
    6.3684   -1.3650    0.0000 O   0  0  0  0  0  0  0  0  0  0  0  0
    7.2203    3.0182    0.0000 O   0  0  0  0  0  0  0  0  0  0  0  0
    2.3275   -1.2320    0.0000 O   0  0  0  0  0  0  0  0  0  0  0  0
    8.0438   -1.5457    0.0000 O   0  0  0  0  0  0  0  0  0  0  0  0
    6.0015   -3.2009    0.0000 O   0  0  0  0  0  0  0  0  0  0  0  0
    7.1912   -2.8186    0.0000 O   0  0  0  0  0  0  0  0  0  0  0  0
    6.4978   -0.1474    0.0000 C   0  0  3  0  0  0  0  0  0  0  0  0
    4.9117   -0.4338    0.0000 C   0  0  3  0  0  0  0  0  0  0  0  0
    5.5968    0.2865    0.0000 C   0  0  3  0  0  0  0  0  0  0  0  0
    5.3836   -1.3088    0.0000 C   0  0  3  0  0  0  0  0  0  0  0  0
    6.3618   -1.1321    0.0000 C   0  0  3  0  0  0  0  0  0  0  0  0
    4.8536   -2.1984    0.0000 C   0  0  3  0  0  0  0  0  0  0  0  0
    6.3910    1.0294    0.0000 C   0  0  0  0  0  0  0  0  0  0  0  0
    6.9978    2.0433    0.0000 C   0  0  3  0  0  0  0  0  0  0  0  0
    7.3988    0.2865    0.0000 C   0  0  0  0  0  0  0  0  0  0  0  0
    5.3743    1.2614    0.0000 C   0  0  0  0  0  0  0  0  0  0  0  0
    3.8773   -0.3878    0.0000 C   0  0  0  0  0  0  0  0  0  0  0  0
    5.9051   -0.4848    0.0000 C   0  0  0  0  0  0  0  0  0  0  0  0
    5.9978    2.0433    0.0000 C   0  0  0  0  0  0  0  0  0  0  0  0
    3.8184   -2.1763    0.0000 C   0  0  0  0  0  0  0  0  0  0  0  0
    7.6213    1.2614    0.0000 C   0  0  0  0  0  0  0  0  0  0  0  0
    3.3270   -1.2649    0.0000 C   0  0  3  0  0  0  0  0  0  0  0  0
    5.8482   -2.2128    0.0000 C   0  0  0  0  0  0  0  0  0  0  0  0
    7.0834   -1.8244    0.0000 C   0  0  0  0  0  0  0  0  0  0  0  0
    4.8357   -3.1982    0.0000 C   0  0  0  0  0  0  0  0  0  0  0  0
    8.5962    1.4840    0.0000 C   0  0  0  0  0  0  0  0  0  0  0  0
    6.0816    0.6731    0.0000 H   0  0  0  0  0  0  0  0  0  0  0  0
    5.7368   -1.8183    0.0000 H   0  0  0  0  0  0  0  0  0  0  0  0
    6.1827   -1.7257    0.0000 H   0  0  0  0  0  0  0  0  0  0  0  0
    5.9832    1.4964    0.0000 H   0  0  0  0  0  0  0  0  0  0  0  0
    5.8209    0.7856    0.0000 H   0  0  0  0  0  0  0  0  0  0  0  0
    7.5367   -0.3180    0.0000 H   0  0  0  0  0  0  0  0  0  0  0  0
    8.0188    0.2865    0.0000 H   0  0  0  0  0  0  0  0  0  0  0  0
    4.9878    1.7462    0.0000 H   0  0  0  0  0  0  0  0  0  0  0  0
    4.8157    0.9924    0.0000 H   0  0  0  0  0  0  0  0  0  0  0  0
    4.0104    0.2178    0.0000 H   0  0  0  0  0  0  0  0  0  0  0  0
    3.3035   -0.1530    0.0000 H   0  0  0  0  0  0  0  0  0  0  0  0
    6.4963   -0.2981    0.0000 H   0  0  0  0  0  0  0  0  0  0  0  0
    5.8264    0.1301    0.0000 H   0  0  0  0  0  0  0  0  0  0  0  0
    6.1358    2.6477    0.0000 H   0  0  0  0  0  0  0  0  0  0  0  0
    5.4392    2.3123    0.0000 H   0  0  0  0  0  0  0  0  0  0  0  0
    3.2304   -2.3728    0.0000 H   0  0  0  0  0  0  0  0  0  0  0  0
    3.9114   -2.7892    0.0000 H   0  0  0  0  0  0  0  0  0  0  0  0
    3.0358   -0.7175    0.0000 H   0  0  0  0  0  0  0  0  0  0  0  0
    4.2158   -3.1871    0.0000 H   0  0  0  0  0  0  0  0  0  0  0  0
    4.8246   -3.8181    0.0000 H   0  0  0  0  0  0  0  0  0  0  0  0
    5.4556   -3.2093    0.0000 H   0  0  0  0  0  0  0  0  0  0  0  0
    7.8128    3.2009    0.0000 H   0  0  0  0  0  0  0  0  0  0  0  0
    9.0179    1.0295    0.0000 H   0  0  0  0  0  0  0  0  0  0  0  0
    8.7790    2.0764    0.0000 H   0  0  0  0  0  0  0  0  0  0  0  0
    2.0000   -1.7584    0.0000 H   0  0  0  0  0  0  0  0  0  0  0  0
    8.4912   -1.9749    0.0000 H   0  0  0  0  0  0  0  0  0  0  0  0
  1 18  1  0  0  0  0
  1 23  1  0  0  0  0
  2 14  1  0  0  0  0
  2 48  1  0  0  0  0
  3 22  1  0  0  0  0
  3 51  1  0  0  0  0
  4 24  1  0  0  0  0
  4 52  1  0  0  0  0
  5 23  2  0  0  0  0
  6 24  2  0  0  0  0
  7  9  1  0  0  0  0
  7 11  1  0  0  0  0
  7 13  1  0  0  0  0
  7 15  1  0  0  0  0
  8  9  1  0  0  0  0
  8 10  1  0  0  0  0
  8 17  1  0  0  0  0
  8 18  1  0  0  0  0
  9 16  1  0  0  0  0
  9 27  1  0  0  0  0
 10 11  1  0  0  0  0
 10 12  1  0  0  0  0
 10 28  1  0  0  0  0
 11 24  1  0  0  0  0
 11 29  1  0  0  0  0
 12 20  1  0  0  0  0
 12 23  1  0  0  0  0
 12 25  1  0  0  0  0
 13 14  1  0  0  0  0
 13 30  1  0  0  0  0
 13 31  1  0  0  0  0
 14 19  1  0  0  0  0
 14 21  1  0  0  0  0
 15 21  1  0  0  0  0
 15 32  1  0  0  0  0
 15 33  1  0  0  0  0
 16 19  1  0  0  0  0
 16 34  1  0  0  0  0
 16 35  1  0  0  0  0
 17 22  1  0  0  0  0
 17 36  1  0  0  0  0
 17 37  1  0  0  0  0
 18 38  1  0  0  0  0
 18 39  1  0  0  0  0
 19 40  1  0  0  0  0
 19 41  1  0  0  0  0
 20 22  1  0  0  0  0
 20 42  1  0  0  0  0
 20 43  1  0  0  0  0
 21 26  2  0  0  0  0
 22 44  1  0  0  0  0
 25 45  1  0  0  0  0
 25 46  1  0  0  0  0
 25 47  1  0  0  0  0
 26 49  1  0  0  0  0
 26 50  1  0  0  0  0
M  END
>  <PUBCHEM_COMPOUND_CID>
131753151

>  <PUBCHEM_COMPOUND_CANONICALIZED>
1

>  <PUBCHEM_CACTVS_COMPLEXITY>
747

>  <PUBCHEM_CACTVS_HBOND_ACCEPTOR>
6

>  <PUBCHEM_CACTVS_HBOND_DONOR>
3

>  <PUBCHEM_CACTVS_ROTATABLE_BOND>
1

>  <PUBCHEM_CACTVS_SUBSKEYS>
AAADceB4OAAAAAAAAAAAAAAAAAAAAYMAAAA0YIAABgASAGjAAAAAGgAACAAAD1SggAICCAAABgCIAgDSCAAAAAAgAAAAAAEAAAgAFBIAAQACQAAEgAAAEAHK7vzPgAAAAAAAAADAAAYAACAAAYAACAAAAA==

>  <PUBCHEM_IUPAC_INCHI>
InChI=1S/C20H26O6/c1-10-5-18-8-20(10,25)4-3-12(18)19-7-11(21)6-17(2,16(24)26-9-19)14(19)13(18)15(22)23/h11-14,21,25H,1,3-9H2,2H3,(H,22,23)

>  <PUBCHEM_IUPAC_INCHIKEY>
MEKWLWHELUEYHS-UHFFFAOYSA-N

>  <PUBCHEM_EXACT_MASS>
362.173

>  <PUBCHEM_MOLECULAR_FORMULA>
C20H26O6

>  <PUBCHEM_MOLECULAR_WEIGHT>
362.422

>  <PUBCHEM_OPENEYE_CAN_SMILES>
CC12CC(CC3(C1C(C45C3CCC(C4)(C(=C)C5)O)C(=O)O)COC2=O)O

>  <PUBCHEM_OPENEYE_ISO_SMILES>
CC12CC(CC3(C1C(C45C3CCC(C4)(C(=C)C5)O)C(=O)O)COC2=O)O

>  <PUBCHEM_CACTVS_TPSA>
104

>  <PUBCHEM_MONOISOTOPIC_WEIGHT>
362.173

>  <PUBCHEM_TOTAL_CHARGE>
0

>  <PUBCHEM_HEAVY_ATOM_COUNT>
26

>  <PUBCHEM_ATOM_DEF_STEREO_COUNT>
0

>  <PUBCHEM_ATOM_UDEF_STEREO_COUNT>
8

>  <PUBCHEM_BOND_DEF_STEREO_COUNT>
0

>  <PUBCHEM_BOND_UDEF_STEREO_COUNT>
0

>  <PUBCHEM_ISOTOPIC_ATOM_COUNT>
0

>  <PUBCHEM_COMPONENT_COUNT>
1

>  <PUBCHEM_CACTVS_TAUTO_COUNT>
1

>  <PUBCHEM_COORDINATE_TYPE>
1
5
255

>  <PUBCHEM_BONDANNOTATIONS>
10  11  3
11  24  3
12  25  3
14  2  3
22  3  3
7  13  3
8  17  3
9  16  3

$$$$
