131752915
 OpenBabel06101807152D

 83 89  0  0  1  0  0  0  0  0999 V2000
    4.6016    4.4116    0.0000 O   0  0  0  0  0  0  0  0  0  0  0  0
   10.5026   -1.3996    0.0000 O   0  0  0  0  0  0  0  0  0  0  0  0
    6.3953   -0.7095    0.0000 O   0  0  0  0  0  0  0  0  0  0  0  0
    5.8983    6.7053    0.0000 O   0  0  0  0  0  0  0  0  0  0  0  0
    5.0322    6.2053    0.0000 O   0  0  0  0  0  0  0  0  0  0  0  0
    6.8937    5.6886    0.0000 O   0  0  0  0  0  0  0  0  0  0  0  0
   10.0840    2.2901    0.0000 O   0  0  0  0  0  0  0  0  0  0  0  0
    6.6932   -2.9321    0.0000 O   0  0  0  0  0  0  0  0  0  0  0  0
    8.7084   -4.5274    0.0000 O   0  0  0  0  0  0  0  0  0  0  0  0
   11.0902   -3.5614    0.0000 O   0  0  0  0  0  0  0  0  0  0  0  0
    8.6112    5.3637    0.0000 O   0  0  0  0  0  0  0  0  0  0  0  0
    2.5604    3.5769    0.0000 O   0  0  0  0  0  0  0  0  0  0  0  0
    9.8616    4.3109    0.0000 O   0  0  0  0  0  0  0  0  0  0  0  0
    4.4623   -0.0799    0.0000 O   0  0  0  0  0  0  0  0  0  0  0  0
    2.4017    1.5348    0.0000 O   0  0  0  0  0  0  0  0  0  0  0  0
    7.3255   -4.5446    0.0000 O   0  0  0  0  0  0  0  0  0  0  0  0
   12.1494   -2.1910    0.0000 O   0  0  0  0  0  0  0  0  0  0  0  0
    3.1186   -3.4037    0.0000 O   0  0  0  0  0  0  0  0  0  0  0  0
    4.3833   -6.6286    0.0000 O   0  0  0  0  0  0  0  0  0  0  0  0
    2.8200   -5.3812    0.0000 O   0  0  0  0  0  0  0  0  0  0  0  0
   13.3297   -6.3871    0.0000 O   0  0  0  0  0  0  0  0  0  0  0  0
   15.4482   -3.6464    0.0000 O   0  0  0  0  0  0  0  0  0  0  0  0
   15.1801   -5.6283    0.0000 O   0  0  0  0  0  0  0  0  0  0  0  0
    6.3761    3.7568    0.0000 C   0  0  3  0  0  0  0  0  0  0  0  0
    5.8983    5.7053    0.0000 C   0  0  0  0  0  0  0  0  0  0  0  0
    6.6349    4.7227    0.0000 C   0  0  3  0  0  0  0  0  0  0  0  0
    7.8635   -1.0219    0.0000 C   0  0  3  0  0  0  0  0  0  0  0  0
    5.1550    2.8911    0.0000 C   0  0  0  0  0  0  0  0  0  0  0  0
    9.2546   -0.4577    0.0000 C   0  0  3  0  0  0  0  0  0  0  0  0
    7.6241   -2.5670    0.0000 C   0  0  3  0  0  0  0  0  0  0  0  0
    7.6478    2.9622    0.0000 C   0  0  0  0  0  0  0  0  0  0  0  0
    8.8500   -3.5375    0.0000 C   0  0  3  0  0  0  0  0  0  0  0  0
    4.3260    3.4503    0.0000 C   0  0  0  0  0  0  0  0  0  0  0  0
    8.0665    4.5251    0.0000 C   0  0  0  0  0  0  0  0  0  0  0  0
   10.2990   -2.9498    0.0000 C   0  0  3  0  0  0  0  0  0  0  0  0
    5.0984    1.8510    0.0000 C   0  0  0  0  0  0  0  0  0  0  0  0
   10.0904    0.7891    0.0000 C   0  0  0  0  0  0  0  0  0  0  0  0
    8.4249    3.5915    0.0000 C   0  0  0  0  0  0  0  0  0  0  0  0
    9.2374    3.5296    0.0000 C   0  0  0  0  0  0  0  0  0  0  0  0
    5.3544    0.3720    0.0000 C   0  0  0  0  0  0  0  0  0  0  0  0
    3.3829    3.0082    0.0000 C   0  0  0  0  0  0  0  0  0  0  0  0
    4.1658    1.3872    0.0000 C   0  0  0  0  0  0  0  0  0  0  0  0
    3.3022    1.9697    0.0000 C   0  0  0  0  0  0  0  0  0  0  0  0
    6.5438   -3.9209    0.0000 C   0  0  0  0  0  0  0  0  0  0  0  0
   12.0154   -3.1820    0.0000 C   0  0  0  0  0  0  0  0  0  0  0  0
    5.6129   -4.2860    0.0000 C   0  0  0  0  0  0  0  0  0  0  0  0
   12.8066   -3.7936    0.0000 C   0  0  0  0  0  0  0  0  0  0  0  0
    5.4636   -5.2748    0.0000 C   0  0  0  0  0  0  0  0  0  0  0  0
    4.8312   -3.6623    0.0000 C   0  0  0  0  0  0  0  0  0  0  0  0
   13.7318   -3.4142    0.0000 C   0  0  0  0  0  0  0  0  0  0  0  0
   12.6725   -4.7846    0.0000 C   0  0  0  0  0  0  0  0  0  0  0  0
    3.9002   -4.0274    0.0000 C   0  0  0  0  0  0  0  0  0  0  0  0
    4.5326   -5.6399    0.0000 C   0  0  0  0  0  0  0  0  0  0  0  0
    3.7509   -5.0162    0.0000 C   0  0  0  0  0  0  0  0  0  0  0  0
   13.4637   -5.3961    0.0000 C   0  0  0  0  0  0  0  0  0  0  0  0
   14.5230   -4.0258    0.0000 C   0  0  0  0  0  0  0  0  0  0  0  0
   14.3890   -5.0168    0.0000 C   0  0  0  0  0  0  0  0  0  0  0  0
    6.8784    4.1203    0.0000 H   0  0  0  0  0  0  0  0  0  0  0  0
    7.3531   -1.3739    0.0000 H   0  0  0  0  0  0  0  0  0  0  0  0
    9.8659   -0.3548    0.0000 H   0  0  0  0  0  0  0  0  0  0  0  0
    7.5327   -3.1802    0.0000 H   0  0  0  0  0  0  0  0  0  0  0  0
    9.3384   -3.9195    0.0000 H   0  0  0  0  0  0  0  0  0  0  0  0
   10.2147   -3.5641    0.0000 H   0  0  0  0  0  0  0  0  0  0  0  0
   10.4681    0.2973    0.0000 H   0  0  0  0  0  0  0  0  0  0  0  0
    9.4969    0.9682    0.0000 H   0  0  0  0  0  0  0  0  0  0  0  0
    9.0238    3.4310    0.0000 H   0  0  0  0  0  0  0  0  0  0  0  0
    4.4953    5.8953    0.0000 H   0  0  0  0  0  0  0  0  0  0  0  0
    6.4352    7.0153    0.0000 H   0  0  0  0  0  0  0  0  0  0  0  0
    4.1249    0.7686    0.0000 H   0  0  0  0  0  0  0  0  0  0  0  0
    7.4926    5.8491    0.0000 H   0  0  0  0  0  0  0  0  0  0  0  0
    9.1960   -4.9103    0.0000 H   0  0  0  0  0  0  0  0  0  0  0  0
    2.0000    3.3116    0.0000 H   0  0  0  0  0  0  0  0  0  0  0  0
    2.3561    0.9165    0.0000 H   0  0  0  0  0  0  0  0  0  0  0  0
    5.9482   -5.6615    0.0000 H   0  0  0  0  0  0  0  0  0  0  0  0
    4.9238   -3.0492    0.0000 H   0  0  0  0  0  0  0  0  0  0  0  0
   13.8149   -2.7998    0.0000 H   0  0  0  0  0  0  0  0  0  0  0  0
   12.0989   -5.0198    0.0000 H   0  0  0  0  0  0  0  0  0  0  0  0
    2.5414   -3.6300    0.0000 H   0  0  0  0  0  0  0  0  0  0  0  0
    4.8679   -7.0153    0.0000 H   0  0  0  0  0  0  0  0  0  0  0  0
    2.7274   -5.9943    0.0000 H   0  0  0  0  0  0  0  0  0  0  0  0
   12.7560   -6.6224    0.0000 H   0  0  0  0  0  0  0  0  0  0  0  0
   15.5313   -3.0320    0.0000 H   0  0  0  0  0  0  0  0  0  0  0  0
   15.7538   -5.3931    0.0000 H   0  0  0  0  0  0  0  0  0  0  0  0
  1 26  1  0  0  0  0
  1 33  1  0  0  0  0
  2 29  1  0  0  0  0
  2 35  1  0  0  0  0
  3 27  1  0  0  0  0
  3 40  1  0  0  0  0
  4 25  1  0  0  0  0
  4 68  1  0  0  0  0
  5 25  1  0  0  0  0
  5 67  1  0  0  0  0
  6 26  1  0  0  0  0
  6 70  1  0  0  0  0
  7 37  1  0  0  0  0
  7 39  1  0  0  0  0
  8 30  1  0  0  0  0
  8 44  1  0  0  0  0
  9 32  1  0  0  0  0
  9 71  1  0  0  0  0
 10 35  1  0  0  0  0
 10 45  1  0  0  0  0
 11 34  2  0  0  0  0
 12 41  1  0  0  0  0
 12 72  1  0  0  0  0
 13 39  2  0  0  0  0
 14 40  2  0  0  0  0
 15 43  1  0  0  0  0
 15 73  1  0  0  0  0
 16 44  2  0  0  0  0
 17 45  2  0  0  0  0
 18 52  1  0  0  0  0
 18 78  1  0  0  0  0
 19 53  1  0  0  0  0
 19 79  1  0  0  0  0
 20 54  1  0  0  0  0
 20 80  1  0  0  0  0
 21 55  1  0  0  0  0
 21 81  1  0  0  0  0
 22 56  1  0  0  0  0
 22 82  1  0  0  0  0
 23 57  1  0  0  0  0
 23 83  1  0  0  0  0
 24 25  1  0  0  0  0
 24 28  1  0  0  0  0
 24 31  1  0  0  0  0
 24 58  1  0  0  0  0
 25 26  1  0  0  0  0
 26 34  1  0  0  0  0
 27 29  1  0  0  0  0
 27 30  1  0  0  0  0
 27 59  1  0  0  0  0
 28 33  2  0  0  0  0
 28 36  1  0  0  0  0
 29 37  1  0  0  0  0
 29 60  1  0  0  0  0
 30 32  1  0  0  0  0
 30 61  1  0  0  0  0
 31 38  2  0  0  0  0
 31 39  1  0  0  0  0
 32 35  1  0  0  0  0
 32 62  1  0  0  0  0
 33 41  1  0  0  0  0
 34 38  1  0  0  0  0
 35 63  1  0  0  0  0
 36 40  1  0  0  0  0
 36 42  2  0  0  0  0
 37 64  1  0  0  0  0
 37 65  1  0  0  0  0
 38 66  1  0  0  0  0
 41 43  2  0  0  0  0
 42 43  1  0  0  0  0
 42 69  1  0  0  0  0
 44 46  1  0  0  0  0
 45 47  1  0  0  0  0
 46 48  2  0  0  0  0
 46 49  1  0  0  0  0
 47 50  2  0  0  0  0
 47 51  1  0  0  0  0
 48 53  1  0  0  0  0
 48 74  1  0  0  0  0
 49 52  2  0  0  0  0
 49 75  1  0  0  0  0
 50 56  1  0  0  0  0
 50 76  1  0  0  0  0
 51 55  2  0  0  0  0
 51 77  1  0  0  0  0
 52 54  1  0  0  0  0
 53 54  2  0  0  0  0
 55 57  1  0  0  0  0
 56 57  2  0  0  0  0
M  END
>  <PUBCHEM_COMPOUND_CID>
131752915

>  <PUBCHEM_COMPOUND_CANONICALIZED>
1

>  <PUBCHEM_CACTVS_COMPLEXITY>
1640

>  <PUBCHEM_CACTVS_HBOND_ACCEPTOR>
23

>  <PUBCHEM_CACTVS_HBOND_DONOR>
12

>  <PUBCHEM_CACTVS_ROTATABLE_BOND>
6

>  <PUBCHEM_CACTVS_SUBSKEYS>
AAADceB8PgAAAAAAAAAAAAAAAAAAAAAAAAA0aMECAAAQAACRUAAAGgAACAAADRSwmAMwDoAABgCIAqDSCAICCAAkIAAAiAFGiMgdNzaGNR6ieSOl4BUPuYfK7PzOoAABCAAYQABAAAIQADCAAAAAAAAAAA==

>  <PUBCHEM_IUPAC_INCHI>
InChI=1S/C34H26O23/c35-12-1-8(2-13(36)21(12)41)28(45)55-27-24(44)32(56-29(46)9-3-14(37)22(42)15(38)4-9)53-17-7-52-30(47)11-6-18(40)34(51)33(49,50)20(11)19-10(31(48)54-25(17)27)5-16(39)23(43)26(19)57-34/h1-6,17,20,24-25,27,32,35-39,41-44,49-51H,7H2

>  <PUBCHEM_IUPAC_INCHIKEY>
XPOXLICDNPVKBQ-UHFFFAOYSA-N

>  <PUBCHEM_EXACT_MASS>
802.086

>  <PUBCHEM_MOLECULAR_FORMULA>
C34H26O23

>  <PUBCHEM_MOLECULAR_WEIGHT>
802.559

>  <PUBCHEM_OPENEYE_CAN_SMILES>
C1C2C(C(C(C(O2)OC(=O)C3=CC(=C(C(=C3)O)O)O)O)OC(=O)C4=CC(=C(C(=C4)O)O)O)OC(=O)C5=CC(=C(C6=C5C7C(=CC(=O)C(C7(O)O)(O6)O)C(=O)O1)O)O

>  <PUBCHEM_OPENEYE_ISO_SMILES>
C1C2C(C(C(C(O2)OC(=O)C3=CC(=C(C(=C3)O)O)O)O)OC(=O)C4=CC(=C(C(=C4)O)O)O)OC(=O)C5=CC(=C(C6=C5C7C(=CC(=O)C(C7(O)O)(O6)O)C(=O)O1)O)O

>  <PUBCHEM_CACTVS_TPSA>
384

>  <PUBCHEM_MONOISOTOPIC_WEIGHT>
802.086

>  <PUBCHEM_TOTAL_CHARGE>
0

>  <PUBCHEM_HEAVY_ATOM_COUNT>
57

>  <PUBCHEM_ATOM_DEF_STEREO_COUNT>
0

>  <PUBCHEM_ATOM_UDEF_STEREO_COUNT>
7

>  <PUBCHEM_BOND_DEF_STEREO_COUNT>
0

>  <PUBCHEM_BOND_UDEF_STEREO_COUNT>
0

>  <PUBCHEM_ISOTOPIC_ATOM_COUNT>
0

>  <PUBCHEM_COMPONENT_COUNT>
1

>  <PUBCHEM_CACTVS_TAUTO_COUNT>
1000

>  <PUBCHEM_COORDINATE_TYPE>
1
5
255

>  <PUBCHEM_BONDANNOTATIONS>
35  10  3
24  25  3
28  33  8
28  36  8
29  37  3
27  3  3
33  41  8
36  42  8
41  43  8
42  43  8
46  48  8
46  49  8
47  50  8
47  51  8
48  53  8
49  52  8
50  56  8
51  55  8
52  54  8
53  54  8
55  57  8
56  57  8
26  6  3
30  8  3
32  9  3

$$$$
