131751246
 OpenBabel06101807152D

 28 29  0  0  1  0  0  0  0  0999 V2000
    5.2619   -0.8474    0.0000 O   0  0  0  0  0  0  0  0  0  0  0  0
    4.9889   -2.6027    0.0000 O   0  0  0  0  0  0  0  0  0  0  0  0
    3.7320   -0.3474    0.0000 C   0  0  3  0  0  0  0  0  0  0  0  0
    2.8660    0.1526    0.0000 C   0  0  0  0  0  0  0  0  0  0  0  0
    4.6783   -0.0427    0.0000 C   0  0  0  0  0  0  0  0  0  0  0  0
    3.7320   -1.3474    0.0000 C   0  0  0  0  0  0  0  0  0  0  0  0
    4.3211    1.6521    0.0000 C   0  0  0  0  0  0  0  0  0  0  0  0
    4.9889    0.9078    0.0000 C   0  0  0  0  0  0  0  0  0  0  0  0
    4.6783   -1.6521    0.0000 C   0  0  0  0  0  0  0  0  0  0  0  0
    2.0000   -0.3474    0.0000 C   0  0  0  0  0  0  0  0  0  0  0  0
    2.8660   -1.8474    0.0000 C   0  0  0  0  0  0  0  0  0  0  0  0
    2.0000   -1.3474    0.0000 C   0  0  0  0  0  0  0  0  0  0  0  0
    4.6318    2.6027    0.0000 C   0  0  0  0  0  0  0  0  0  0  0  0
    3.3426    1.4459    0.0000 C   0  0  0  0  0  0  0  0  0  0  0  0
    3.7977    0.2691    0.0000 H   0  0  0  0  0  0  0  0  0  0  0  0
    3.2646    0.6275    0.0000 H   0  0  0  0  0  0  0  0  0  0  0  0
    2.4675    0.6275    0.0000 H   0  0  0  0  0  0  0  0  0  0  0  0
    4.1285    1.0628    0.0000 H   0  0  0  0  0  0  0  0  0  0  0  0
    5.5956    1.0357    0.0000 H   0  0  0  0  0  0  0  0  0  0  0  0
    1.4631   -0.0374    0.0000 H   0  0  0  0  0  0  0  0  0  0  0  0
    2.8660   -2.4674    0.0000 H   0  0  0  0  0  0  0  0  0  0  0  0
    1.4631   -1.6574    0.0000 H   0  0  0  0  0  0  0  0  0  0  0  0
    3.2147    2.0526    0.0000 H   0  0  0  0  0  0  0  0  0  0  0  0
    5.2211    2.4100    0.0000 H   0  0  0  0  0  0  0  0  0  0  0  0
    4.8244    3.1920    0.0000 H   0  0  0  0  0  0  0  0  0  0  0  0
    4.0424    2.7953    0.0000 H   0  0  0  0  0  0  0  0  0  0  0  0
    2.7359    1.3181    0.0000 H   0  0  0  0  0  0  0  0  0  0  0  0
    3.4704    0.8393    0.0000 H   0  0  0  0  0  0  0  0  0  0  0  0
  1  5  1  0  0  0  0
  1  9  1  0  0  0  0
  2  9  2  0  0  0  0
  3  4  1  0  0  0  0
  3  5  1  0  0  0  0
  3  6  1  0  0  0  0
  3 15  1  0  0  0  0
  4 10  1  0  0  0  0
  4 16  1  0  0  0  0
  4 17  1  0  0  0  0
  5  8  2  0  0  0  0
  6  9  1  0  0  0  0
  6 11  2  0  0  0  0
  7  8  1  0  0  0  0
  7 13  1  0  0  0  0
  7 14  1  0  0  0  0
  7 18  1  0  0  0  0
  8 19  1  0  0  0  0
 10 12  2  0  0  0  0
 10 20  1  0  0  0  0
 11 12  1  0  0  0  0
 11 21  1  0  0  0  0
 12 22  1  0  0  0  0
 13 24  1  0  0  0  0
 13 25  1  0  0  0  0
 13 26  1  0  0  0  0
 14 23  1  0  0  0  0
 14 27  1  0  0  0  0
 14 28  1  0  0  0  0
M  END
>  <PUBCHEM_COMPOUND_CID>
131751246

>  <PUBCHEM_COMPOUND_CANONICALIZED>
1

>  <PUBCHEM_CACTVS_COMPLEXITY>
345

>  <PUBCHEM_CACTVS_HBOND_ACCEPTOR>
2

>  <PUBCHEM_CACTVS_HBOND_DONOR>
0

>  <PUBCHEM_CACTVS_ROTATABLE_BOND>
1

>  <PUBCHEM_CACTVS_SUBSKEYS>
AAADccBwMAAAAAAAAAAAAAAAAAAAASAAAAAgAAAAAAAAAEAAAAAAGgAAAAAADQSAgAACCAAABACIAiDSCAAACAAgIAAICAEAAEgIBBIAIQACEAAEwAAIoYKKAAAKAAAAAAAAAAAAAAAAAAAAAAAAAAAAAA==

>  <PUBCHEM_IUPAC_OPENEYE_NAME>
(3E)-3-(2-methylpropylidene)-3a,4-dihydroisobenzofuran-1-one

>  <PUBCHEM_IUPAC_CAS_NAME>
(3E)-3-(2-methylpropylidene)-3a,4-dihydroisobenzofuran-1-one

>  <PUBCHEM_IUPAC_NAME>
(3E)-3-(2-methylpropylidene)-3a,4-dihydro-2-benzofuran-1-one

>  <PUBCHEM_IUPAC_SYSTEMATIC_NAME>
(3E)-3-(2-methylpropylidene)-3a,4-dihydro-2-benzofuran-1-one

>  <PUBCHEM_IUPAC_TRADITIONAL_NAME>
(3E)-3-(2-methylpropylidene)-3a,4-dihydroisobenzofuran-1-one

>  <PUBCHEM_IUPAC_INCHI>
InChI=1S/C12H14O2/c1-8(2)7-11-9-5-3-4-6-10(9)12(13)14-11/h3-4,6-9H,5H2,1-2H3/b11-7+

>  <PUBCHEM_IUPAC_INCHIKEY>
IVZVUDRUEPCTTL-YRNVUSSQSA-N

>  <PUBCHEM_EXACT_MASS>
190.099

>  <PUBCHEM_MOLECULAR_FORMULA>
C12H14O2

>  <PUBCHEM_MOLECULAR_WEIGHT>
190.242

>  <PUBCHEM_OPENEYE_CAN_SMILES>
CC(C)C=C1C2CC=CC=C2C(=O)O1

>  <PUBCHEM_OPENEYE_ISO_SMILES>
CC(C)/C=C/1\C2CC=CC=C2C(=O)O1

>  <PUBCHEM_CACTVS_TPSA>
26.3

>  <PUBCHEM_MONOISOTOPIC_WEIGHT>
190.099

>  <PUBCHEM_TOTAL_CHARGE>
0

>  <PUBCHEM_HEAVY_ATOM_COUNT>
14

>  <PUBCHEM_ATOM_DEF_STEREO_COUNT>
0

>  <PUBCHEM_ATOM_UDEF_STEREO_COUNT>
1

>  <PUBCHEM_BOND_DEF_STEREO_COUNT>
1

>  <PUBCHEM_BOND_UDEF_STEREO_COUNT>
0

>  <PUBCHEM_ISOTOPIC_ATOM_COUNT>
0

>  <PUBCHEM_COMPONENT_COUNT>
1

>  <PUBCHEM_CACTVS_TAUTO_COUNT>
3

>  <PUBCHEM_COORDINATE_TYPE>
1
5
255

>  <PUBCHEM_BONDANNOTATIONS>
3  4  3

$$$$
