131751261
 OpenBabel06101807152D

101101  0  0  1  0  0  0  0  0999 V2000
    3.3660    2.6340    0.0000 O   0  0  0  0  0  0  0  0  0  0  0  0
    2.8660    3.5000    0.0000 C   0  0  0  0  0  0  0  0  0  0  0  0
    3.8660    3.5000    0.0000 C   0  0  3  0  0  0  0  0  0  0  0  0
    4.7320    4.0000    0.0000 C   0  0  0  0  0  0  0  0  0  0  0  0
    2.8660    4.5000    0.0000 C   0  0  0  0  0  0  0  0  0  0  0  0
    2.0000    3.0000    0.0000 C   0  0  0  0  0  0  0  0  0  0  0  0
    5.5981    3.5000    0.0000 C   0  0  0  0  0  0  0  0  0  0  0  0
    6.4641    4.0000    0.0000 C   0  0  0  0  0  0  0  0  0  0  0  0
    6.4641    5.0000    0.0000 C   0  0  0  0  0  0  0  0  0  0  0  0
    7.3301    3.5000    0.0000 C   0  0  0  0  0  0  0  0  0  0  0  0
    7.3301    2.5000    0.0000 C   0  0  0  0  0  0  0  0  0  0  0  0
    8.1962    2.0000    0.0000 C   0  0  0  0  0  0  0  0  0  0  0  0
    8.1962    1.0000    0.0000 C   0  0  0  0  0  0  0  0  0  0  0  0
    7.3301    0.5000    0.0000 C   0  0  0  0  0  0  0  0  0  0  0  0
    9.0622    0.5000    0.0000 C   0  0  0  0  0  0  0  0  0  0  0  0
    9.9282    1.0000    0.0000 C   0  0  0  0  0  0  0  0  0  0  0  0
   10.7942    0.5000    0.0000 C   0  0  0  0  0  0  0  0  0  0  0  0
   11.6603    1.0000    0.0000 C   0  0  0  0  0  0  0  0  0  0  0  0
   21.1865   -3.5000    0.0000 C   0  0  0  0  0  0  0  0  0  0  0  0
   20.3205   -4.0000    0.0000 C   0  0  0  0  0  0  0  0  0  0  0  0
   19.4545   -2.5000    0.0000 C   0  0  0  0  0  0  0  0  0  0  0  0
   18.5885   -2.0000    0.0000 C   0  0  0  0  0  0  0  0  0  0  0  0
   22.0526   -4.0000    0.0000 C   0  0  0  0  0  0  0  0  0  0  0  0
   19.4545   -3.5000    0.0000 C   0  0  0  0  0  0  0  0  0  0  0  0
   18.5885   -1.0000    0.0000 C   0  0  0  0  0  0  0  0  0  0  0  0
   20.3205   -5.0000    0.0000 C   0  0  0  0  0  0  0  0  0  0  0  0
   22.9186   -3.5000    0.0000 C   0  0  0  0  0  0  0  0  0  0  0  0
   11.6603    2.0000    0.0000 C   0  0  0  0  0  0  0  0  0  0  0  0
   12.5263    0.5000    0.0000 C   0  0  0  0  0  0  0  0  0  0  0  0
   23.7846   -4.0000    0.0000 C   0  0  0  0  0  0  0  0  0  0  0  0
   19.4545   -0.5000    0.0000 C   0  0  0  0  0  0  0  0  0  0  0  0
   17.7224   -0.5000    0.0000 C   0  0  0  0  0  0  0  0  0  0  0  0
   24.6506   -3.5000    0.0000 C   0  0  0  0  0  0  0  0  0  0  0  0
   23.7846   -5.0000    0.0000 C   0  0  0  0  0  0  0  0  0  0  0  0
   13.3923    1.0000    0.0000 C   0  0  0  0  0  0  0  0  0  0  0  0
   17.7224    0.5000    0.0000 C   0  0  0  0  0  0  0  0  0  0  0  0
   16.8564    1.0000    0.0000 C   0  0  0  0  0  0  0  0  0  0  0  0
   14.2583    0.5000    0.0000 C   0  0  0  0  0  0  0  0  0  0  0  0
   15.9904    0.5000    0.0000 C   0  0  0  0  0  0  0  0  0  0  0  0
   15.1244    1.0000    0.0000 C   0  0  0  0  0  0  0  0  0  0  0  0
   15.9904   -0.5000    0.0000 C   0  0  0  0  0  0  0  0  0  0  0  0
    4.3044    3.0616    0.0000 H   0  0  0  0  0  0  0  0  0  0  0  0
    5.1306    4.4750    0.0000 H   0  0  0  0  0  0  0  0  0  0  0  0
    4.3335    4.4750    0.0000 H   0  0  0  0  0  0  0  0  0  0  0  0
    1.6900    3.5369    0.0000 H   0  0  0  0  0  0  0  0  0  0  0  0
    1.4631    2.6900    0.0000 H   0  0  0  0  0  0  0  0  0  0  0  0
    2.3100    2.4631    0.0000 H   0  0  0  0  0  0  0  0  0  0  0  0
    3.4860    4.5000    0.0000 H   0  0  0  0  0  0  0  0  0  0  0  0
    2.8660    5.1200    0.0000 H   0  0  0  0  0  0  0  0  0  0  0  0
    2.2460    4.5000    0.0000 H   0  0  0  0  0  0  0  0  0  0  0  0
    5.1996    3.0250    0.0000 H   0  0  0  0  0  0  0  0  0  0  0  0
    5.9966    3.0250    0.0000 H   0  0  0  0  0  0  0  0  0  0  0  0
    7.0841    5.0000    0.0000 H   0  0  0  0  0  0  0  0  0  0  0  0
    6.4641    5.6200    0.0000 H   0  0  0  0  0  0  0  0  0  0  0  0
    5.8441    5.0000    0.0000 H   0  0  0  0  0  0  0  0  0  0  0  0
    7.8671    3.8100    0.0000 H   0  0  0  0  0  0  0  0  0  0  0  0
    6.7196    2.6077    0.0000 H   0  0  0  0  0  0  0  0  0  0  0  0
    7.1181    1.9174    0.0000 H   0  0  0  0  0  0  0  0  0  0  0  0
    8.8067    1.8923    0.0000 H   0  0  0  0  0  0  0  0  0  0  0  0
    8.4082    2.5826    0.0000 H   0  0  0  0  0  0  0  0  0  0  0  0
    7.0201    1.0369    0.0000 H   0  0  0  0  0  0  0  0  0  0  0  0
    6.7932    0.1900    0.0000 H   0  0  0  0  0  0  0  0  0  0  0  0
    7.6401   -0.0369    0.0000 H   0  0  0  0  0  0  0  0  0  0  0  0
    9.0622   -0.1200    0.0000 H   0  0  0  0  0  0  0  0  0  0  0  0
    9.9282    1.6200    0.0000 H   0  0  0  0  0  0  0  0  0  0  0  0
   10.7942   -0.1200    0.0000 H   0  0  0  0  0  0  0  0  0  0  0  0
   21.5851   -3.0250    0.0000 H   0  0  0  0  0  0  0  0  0  0  0  0
   20.7880   -3.0250    0.0000 H   0  0  0  0  0  0  0  0  0  0  0  0
   20.0651   -2.6077    0.0000 H   0  0  0  0  0  0  0  0  0  0  0  0
   19.6665   -1.9174    0.0000 H   0  0  0  0  0  0  0  0  0  0  0  0
   17.9779   -1.8923    0.0000 H   0  0  0  0  0  0  0  0  0  0  0  0
   18.3764   -2.5826    0.0000 H   0  0  0  0  0  0  0  0  0  0  0  0
   21.6540   -4.4750    0.0000 H   0  0  0  0  0  0  0  0  0  0  0  0
   22.4511   -4.4750    0.0000 H   0  0  0  0  0  0  0  0  0  0  0  0
   18.9175   -3.8100    0.0000 H   0  0  0  0  0  0  0  0  0  0  0  0
   19.7005   -5.0000    0.0000 H   0  0  0  0  0  0  0  0  0  0  0  0
   20.3205   -5.6200    0.0000 H   0  0  0  0  0  0  0  0  0  0  0  0
   20.9405   -5.0000    0.0000 H   0  0  0  0  0  0  0  0  0  0  0  0
   22.9186   -2.8800    0.0000 H   0  0  0  0  0  0  0  0  0  0  0  0
   12.2803    2.0000    0.0000 H   0  0  0  0  0  0  0  0  0  0  0  0
   11.6603    2.6200    0.0000 H   0  0  0  0  0  0  0  0  0  0  0  0
   11.0403    2.0000    0.0000 H   0  0  0  0  0  0  0  0  0  0  0  0
   12.5263   -0.1200    0.0000 H   0  0  0  0  0  0  0  0  0  0  0  0
   19.7645   -1.0369    0.0000 H   0  0  0  0  0  0  0  0  0  0  0  0
   19.9914   -0.1900    0.0000 H   0  0  0  0  0  0  0  0  0  0  0  0
   19.1445    0.0369    0.0000 H   0  0  0  0  0  0  0  0  0  0  0  0
   17.1855   -0.8100    0.0000 H   0  0  0  0  0  0  0  0  0  0  0  0
   23.1646   -5.0000    0.0000 H   0  0  0  0  0  0  0  0  0  0  0  0
   24.9606   -4.0369    0.0000 H   0  0  0  0  0  0  0  0  0  0  0  0
   23.7846   -5.6200    0.0000 H   0  0  0  0  0  0  0  0  0  0  0  0
   24.4046   -5.0000    0.0000 H   0  0  0  0  0  0  0  0  0  0  0  0
   25.1876   -3.1900    0.0000 H   0  0  0  0  0  0  0  0  0  0  0  0
   24.3406   -2.9631    0.0000 H   0  0  0  0  0  0  0  0  0  0  0  0
   13.3923    1.6200    0.0000 H   0  0  0  0  0  0  0  0  0  0  0  0
   18.2594    0.8100    0.0000 H   0  0  0  0  0  0  0  0  0  0  0  0
   16.8564    1.6200    0.0000 H   0  0  0  0  0  0  0  0  0  0  0  0
   14.2583   -0.1200    0.0000 H   0  0  0  0  0  0  0  0  0  0  0  0
   15.1244    1.6200    0.0000 H   0  0  0  0  0  0  0  0  0  0  0  0
   15.3704   -0.5000    0.0000 H   0  0  0  0  0  0  0  0  0  0  0  0
   15.9904   -1.1200    0.0000 H   0  0  0  0  0  0  0  0  0  0  0  0
   16.6104   -0.5000    0.0000 H   0  0  0  0  0  0  0  0  0  0  0  0
  1  2  1  0  0  0  0
  1  3  1  0  0  0  0
  2  3  1  0  0  0  0
  2  5  1  0  0  0  0
  2  6  1  0  0  0  0
  3  4  1  0  0  0  0
  3 42  1  0  0  0  0
  4  7  1  0  0  0  0
  4 43  1  0  0  0  0
  4 44  1  0  0  0  0
  5 48  1  0  0  0  0
  5 49  1  0  0  0  0
  5 50  1  0  0  0  0
  6 45  1  0  0  0  0
  6 46  1  0  0  0  0
  6 47  1  0  0  0  0
  7  8  1  0  0  0  0
  7 51  1  0  0  0  0
  7 52  1  0  0  0  0
  8  9  1  0  0  0  0
  8 10  2  0  0  0  0
  9 53  1  0  0  0  0
  9 54  1  0  0  0  0
  9 55  1  0  0  0  0
 10 11  1  0  0  0  0
 10 56  1  0  0  0  0
 11 12  1  0  0  0  0
 11 57  1  0  0  0  0
 11 58  1  0  0  0  0
 12 13  1  0  0  0  0
 12 59  1  0  0  0  0
 12 60  1  0  0  0  0
 13 14  1  0  0  0  0
 13 15  2  0  0  0  0
 14 61  1  0  0  0  0
 14 62  1  0  0  0  0
 14 63  1  0  0  0  0
 15 16  1  0  0  0  0
 15 64  1  0  0  0  0
 16 17  2  0  0  0  0
 16 65  1  0  0  0  0
 17 18  1  0  0  0  0
 17 66  1  0  0  0  0
 18 28  1  0  0  0  0
 18 29  2  0  0  0  0
 19 20  1  0  0  0  0
 19 23  1  0  0  0  0
 19 67  1  0  0  0  0
 19 68  1  0  0  0  0
 20 24  2  0  0  0  0
 20 26  1  0  0  0  0
 21 22  1  0  0  0  0
 21 24  1  0  0  0  0
 21 69  1  0  0  0  0
 21 70  1  0  0  0  0
 22 25  1  0  0  0  0
 22 71  1  0  0  0  0
 22 72  1  0  0  0  0
 23 27  1  0  0  0  0
 23 73  1  0  0  0  0
 23 74  1  0  0  0  0
 24 75  1  0  0  0  0
 25 31  1  0  0  0  0
 25 32  2  0  0  0  0
 26 76  1  0  0  0  0
 26 77  1  0  0  0  0
 26 78  1  0  0  0  0
 27 30  2  0  0  0  0
 27 79  1  0  0  0  0
 28 80  1  0  0  0  0
 28 81  1  0  0  0  0
 28 82  1  0  0  0  0
 29 35  1  0  0  0  0
 29 83  1  0  0  0  0
 30 33  1  0  0  0  0
 30 34  1  0  0  0  0
 31 84  1  0  0  0  0
 31 85  1  0  0  0  0
 31 86  1  0  0  0  0
 32 36  1  0  0  0  0
 32 87  1  0  0  0  0
 33 89  1  0  0  0  0
 33 92  1  0  0  0  0
 33 93  1  0  0  0  0
 34 88  1  0  0  0  0
 34 90  1  0  0  0  0
 34 91  1  0  0  0  0
 35 38  2  0  0  0  0
 35 94  1  0  0  0  0
 36 37  2  0  0  0  0
 36 95  1  0  0  0  0
 37 39  1  0  0  0  0
 37 96  1  0  0  0  0
 38 40  1  0  0  0  0
 38 97  1  0  0  0  0
 39 40  2  0  0  0  0
 39 41  1  0  0  0  0
 40 98  1  0  0  0  0
 41 99  1  0  0  0  0
 41100  1  0  0  0  0
 41101  1  0  0  0  0
M  END
>  <PUBCHEM_COMPOUND_CID>
131751261

>  <PUBCHEM_COMPOUND_CANONICALIZED>
1

>  <PUBCHEM_CACTVS_COMPLEXITY>
1100

>  <PUBCHEM_CACTVS_HBOND_ACCEPTOR>
1

>  <PUBCHEM_CACTVS_HBOND_DONOR>
0

>  <PUBCHEM_CACTVS_ROTATABLE_BOND>
18

>  <PUBCHEM_CACTVS_SUBSKEYS>
AAADcfB8IAAAAAAAAAAAAAAAEgAAAAAAAAAAAAAAAAAAAAAAAAAAGgAAAAAADFSggAICAAAABACAAiBCAAAAAAAgAAAICAAAAAgIAAIAAQACAAAEgAAIgAOAwEAMAAAAAAAAAAAAAAAAAAAAAAAAAAAAAA==

>  <PUBCHEM_IUPAC_OPENEYE_NAME>
3-[(3Z,7Z,9E,11E,13E,15E,17Z,19E,23Z)-3,7,11,16,20,24,28-heptamethylnonacosa-3,7,9,11,13,15,17,19,23,27-decaenyl]-2,2-dimethyl-oxirane

>  <PUBCHEM_IUPAC_CAS_NAME>
3-[(3Z,7Z,9E,11E,13E,15E,17Z,19E,23Z)-3,7,11,16,20,24,28-heptamethylnonacosa-3,7,9,11,13,15,17,19,23,27-decaenyl]-2,2-dimethyloxirane

>  <PUBCHEM_IUPAC_NAME>
3-[(3Z,7Z,9E,11E,13E,15E,17Z,19E,23Z)-3,7,11,16,20,24,28-heptamethylnonacosa-3,7,9,11,13,15,17,19,23,27-decaenyl]-2,2-dimethyloxirane

>  <PUBCHEM_IUPAC_SYSTEMATIC_NAME>
3-[(3Z,7Z,9E,11E,13E,15E,17Z,19E,23Z)-3,7,11,16,20,24,28-heptamethylnonacosa-3,7,9,11,13,15,17,19,23,27-decaenyl]-2,2-dimethyl-oxirane

>  <PUBCHEM_IUPAC_TRADITIONAL_NAME>
3-[(3Z,7Z,9E,11E,13E,15E,17Z,19E,23Z)-3,7,11,16,20,24,28-heptamethylnonacosa-3,7,9,11,13,15,17,19,23,27-decaenyl]-2,2-dimethyl-oxirane

>  <PUBCHEM_IUPAC_INCHI>
InChI=1S/C40H60O/c1-32(2)18-13-21-35(5)24-16-27-36(6)25-14-22-33(3)19-11-12-20-34(4)23-15-26-37(7)28-17-29-38(8)30-31-39-40(9,10)41-39/h11-12,14-15,18-20,22-26,29,39H,13,16-17,21,27-28,30-31H2,1-10H3/b12-11+,22-14-,23-15+,33-19+,34-20+,35-24-,36-25+,37-26-,38-29-

>  <PUBCHEM_IUPAC_INCHIKEY>
WQKGZVZKMBRSEI-KSUSXTEYSA-N

>  <PUBCHEM_EXACT_MASS>
556.464

>  <PUBCHEM_MOLECULAR_FORMULA>
C40H60O

>  <PUBCHEM_MOLECULAR_WEIGHT>
556.919

>  <PUBCHEM_OPENEYE_CAN_SMILES>
CC(=CCCC(=CCCC(=CC=CC(=CC=CC=C(C)C=CC=C(C)CCC=C(C)CCC1C(O1)(C)C)C)C)C)C

>  <PUBCHEM_OPENEYE_ISO_SMILES>
CC(=CCC/C(=C\CC/C(=C/C=C\C(=C\C=C\C=C(/C)\C=C\C=C(\C)/CC/C=C(/C)\CCC1C(O1)(C)C)\C)/C)/C)C

>  <PUBCHEM_CACTVS_TPSA>
12.5

>  <PUBCHEM_MONOISOTOPIC_WEIGHT>
556.464

>  <PUBCHEM_TOTAL_CHARGE>
0

>  <PUBCHEM_HEAVY_ATOM_COUNT>
41

>  <PUBCHEM_ATOM_DEF_STEREO_COUNT>
0

>  <PUBCHEM_ATOM_UDEF_STEREO_COUNT>
1

>  <PUBCHEM_BOND_DEF_STEREO_COUNT>
9

>  <PUBCHEM_BOND_UDEF_STEREO_COUNT>
0

>  <PUBCHEM_ISOTOPIC_ATOM_COUNT>
0

>  <PUBCHEM_COMPONENT_COUNT>
1

>  <PUBCHEM_CACTVS_TAUTO_COUNT>
1001

>  <PUBCHEM_COORDINATE_TYPE>
1
5
255

>  <PUBCHEM_BONDANNOTATIONS>
3  4  3

$$$$
