131751687
 OpenBabel06101807152D

 58 60  0  0  1  0  0  0  0  0999 V2000
    4.2690   -1.5654    0.0000 O   0  0  0  0  0  0  0  0  0  0  0  0
    6.0010   -1.5654    0.0000 O   0  0  0  0  0  0  0  0  0  0  0  0
    8.3899    3.9064    0.0000 O   0  0  0  0  0  0  0  0  0  0  0  0
    4.2690   -4.5654    0.0000 O   0  0  0  0  0  0  0  0  0  0  0  0
    2.5369   -3.5654    0.0000 O   0  0  0  0  0  0  0  0  0  0  0  0
    6.0010   -3.5654    0.0000 O   0  0  0  0  0  0  0  0  0  0  0  0
    2.5369   -0.5654    0.0000 O   0  0  0  0  0  0  0  0  0  0  0  0
    6.9012    4.8754    0.0000 O   0  0  0  0  0  0  0  0  0  0  0  0
    5.1350   -0.0654    0.0000 O   0  0  0  0  0  0  0  0  0  0  0  0
    4.2690   -3.5654    0.0000 C   0  0  3  0  0  0  0  0  0  0  0  0
    3.4030   -3.0654    0.0000 C   0  0  3  0  0  0  0  0  0  0  0  0
    5.1350   -3.0654    0.0000 C   0  0  3  0  0  0  0  0  0  0  0  0
    3.4030   -2.0654    0.0000 C   0  0  3  0  0  0  0  0  0  0  0  0
    7.7331    2.4346    0.0000 C   0  0  3  0  0  0  0  0  0  0  0  0
    5.1350   -2.0654    0.0000 C   0  0  3  0  0  0  0  0  0  0  0  0
    8.5991    2.9346    0.0000 C   0  0  3  0  0  0  0  0  0  0  0  0
    7.7331    1.4346    0.0000 C   0  0  0  0  0  0  0  0  0  0  0  0
    6.8671    0.9346    0.0000 C   0  0  0  0  0  0  0  0  0  0  0  0
    6.9961    3.1016    0.0000 C   0  0  0  0  0  0  0  0  0  0  0  0
    2.5369   -1.5654    0.0000 C   0  0  0  0  0  0  0  0  0  0  0  0
    6.8671   -0.0654    0.0000 C   0  0  0  0  0  0  0  0  0  0  0  0
    9.4651    2.4346    0.0000 C   0  0  0  0  0  0  0  0  0  0  0  0
    7.4012    4.0094    0.0000 C   0  0  0  0  0  0  0  0  0  0  0  0
    9.4651    1.4346    0.0000 C   0  0  0  0  0  0  0  0  0  0  0  0
    6.0010   -0.5654    0.0000 C   0  0  0  0  0  0  0  0  0  0  0  0
    8.5991    0.9346    0.0000 C   0  0  0  0  0  0  0  0  0  0  0  0
    8.5991   -0.0654    0.0000 C   0  0  0  0  0  0  0  0  0  0  0  0
    7.7331   -0.5654    0.0000 C   0  0  0  0  0  0  0  0  0  0  0  0
    6.0176    2.8954    0.0000 C   0  0  0  0  0  0  0  0  0  0  0  0
   10.3312    0.9346    0.0000 C   0  0  0  0  0  0  0  0  0  0  0  0
    3.7320   -3.8754    0.0000 H   0  0  0  0  0  0  0  0  0  0  0  0
    3.4030   -3.6854    0.0000 H   0  0  0  0  0  0  0  0  0  0  0  0
    5.1350   -3.6854    0.0000 H   0  0  0  0  0  0  0  0  0  0  0  0
    3.4030   -1.4454    0.0000 H   0  0  0  0  0  0  0  0  0  0  0  0
    7.1664    2.1831    0.0000 H   0  0  0  0  0  0  0  0  0  0  0  0
    5.1350   -1.4454    0.0000 H   0  0  0  0  0  0  0  0  0  0  0  0
    9.1002    3.2996    0.0000 H   0  0  0  0  0  0  0  0  0  0  0  0
    7.9451    0.8519    0.0000 H   0  0  0  0  0  0  0  0  0  0  0  0
    8.3437    1.5422    0.0000 H   0  0  0  0  0  0  0  0  0  0  0  0
    6.6550    1.5172    0.0000 H   0  0  0  0  0  0  0  0  0  0  0  0
    6.2565    0.8269    0.0000 H   0  0  0  0  0  0  0  0  0  0  0  0
    1.9264   -1.4578    0.0000 H   0  0  0  0  0  0  0  0  0  0  0  0
    2.3249   -2.1481    0.0000 H   0  0  0  0  0  0  0  0  0  0  0  0
   10.0021    2.7446    0.0000 H   0  0  0  0  0  0  0  0  0  0  0  0
    8.3871    1.5172    0.0000 H   0  0  0  0  0  0  0  0  0  0  0  0
    7.9885    0.8269    0.0000 H   0  0  0  0  0  0  0  0  0  0  0  0
    3.7320   -4.8754    0.0000 H   0  0  0  0  0  0  0  0  0  0  0  0
    2.0000   -3.2554    0.0000 H   0  0  0  0  0  0  0  0  0  0  0  0
    8.8112   -0.6481    0.0000 H   0  0  0  0  0  0  0  0  0  0  0  0
    9.2097    0.0422    0.0000 H   0  0  0  0  0  0  0  0  0  0  0  0
    6.5380   -3.2554    0.0000 H   0  0  0  0  0  0  0  0  0  0  0  0
    7.7331   -1.1854    0.0000 H   0  0  0  0  0  0  0  0  0  0  0  0
    5.6035    3.3569    0.0000 H   0  0  0  0  0  0  0  0  0  0  0  0
    5.8250    2.3061    0.0000 H   0  0  0  0  0  0  0  0  0  0  0  0
   10.0212    0.3976    0.0000 H   0  0  0  0  0  0  0  0  0  0  0  0
   10.8681    0.6246    0.0000 H   0  0  0  0  0  0  0  0  0  0  0  0
   10.6412    1.4715    0.0000 H   0  0  0  0  0  0  0  0  0  0  0  0
    2.0000   -0.2554    0.0000 H   0  0  0  0  0  0  0  0  0  0  0  0
  1 13  1  0  0  0  0
  1 15  1  0  0  0  0
  2 15  1  0  0  0  0
  2 25  1  0  0  0  0
  3 16  1  0  0  0  0
  3 23  1  0  0  0  0
  4 10  1  0  0  0  0
  4 47  1  0  0  0  0
  5 11  1  0  0  0  0
  5 48  1  0  0  0  0
  6 12  1  0  0  0  0
  6 51  1  0  0  0  0
  7 20  1  0  0  0  0
  7 58  1  0  0  0  0
  8 23  2  0  0  0  0
  9 25  2  0  0  0  0
 10 11  1  0  0  0  0
 10 12  1  0  0  0  0
 10 31  1  0  0  0  0
 11 13  1  0  0  0  0
 11 32  1  0  0  0  0
 12 15  1  0  0  0  0
 12 33  1  0  0  0  0
 13 20  1  0  0  0  0
 13 34  1  0  0  0  0
 14 16  1  0  0  0  0
 14 17  1  0  0  0  0
 14 19  1  0  0  0  0
 14 35  1  0  0  0  0
 15 36  1  0  0  0  0
 16 22  1  0  0  0  0
 16 37  1  0  0  0  0
 17 18  1  0  0  0  0
 17 38  1  0  0  0  0
 17 39  1  0  0  0  0
 18 21  1  0  0  0  0
 18 40  1  0  0  0  0
 18 41  1  0  0  0  0
 19 23  1  0  0  0  0
 19 29  2  0  0  0  0
 20 42  1  0  0  0  0
 20 43  1  0  0  0  0
 21 25  1  0  0  0  0
 21 28  2  0  0  0  0
 22 24  2  0  0  0  0
 22 44  1  0  0  0  0
 24 26  1  0  0  0  0
 24 30  1  0  0  0  0
 26 27  1  0  0  0  0
 26 45  1  0  0  0  0
 26 46  1  0  0  0  0
 27 28  1  0  0  0  0
 27 49  1  0  0  0  0
 27 50  1  0  0  0  0
 28 52  1  0  0  0  0
 29 53  1  0  0  0  0
 29 54  1  0  0  0  0
 30 55  1  0  0  0  0
 30 56  1  0  0  0  0
 30 57  1  0  0  0  0
M  END
>  <PUBCHEM_COMPOUND_CID>
131751687

>  <PUBCHEM_COMPOUND_CANONICALIZED>
1

>  <PUBCHEM_CACTVS_COMPLEXITY>
756

>  <PUBCHEM_CACTVS_HBOND_ACCEPTOR>
9

>  <PUBCHEM_CACTVS_HBOND_DONOR>
4

>  <PUBCHEM_CACTVS_ROTATABLE_BOND>
4

>  <PUBCHEM_CACTVS_SUBSKEYS>
AAADceB4PAAAAAAAAAAAAAAAAAAAASAAAAAkAAAAAAAAAACAAAAAGgAACAAADRSwgAMCCAAABgCIAiDSCAAAAAAgAAAACAEAAEgRFBIAIQAiUAAFwAAPIYPK6DyOAAAAAAAAAAAAAAAAAAAAAAAAAAAAAA==

>  <PUBCHEM_IUPAC_OPENEYE_NAME>
[3,4,5-trihydroxy-6-(hydroxymethyl)tetrahydropyran-2-yl] (6E,10Z)-10-methyl-3-methylene-2-oxo-3a,4,5,8,9,11a-hexahydrocyclodeca[b]furan-6-carboxylate

>  <PUBCHEM_IUPAC_CAS_NAME>
(6E,10Z)-10-methyl-3-methylene-2-oxo-3a,4,5,8,9,11a-hexahydrocyclodeca[b]furan-6-carboxylic acid [3,4,5-trihydroxy-6-(hydroxymethyl)-2-oxanyl] ester

>  <PUBCHEM_IUPAC_NAME>
[3,4,5-trihydroxy-6-(hydroxymethyl)oxan-2-yl] (6E,10Z)-10-methyl-3-methylidene-2-oxo-3a,4,5,8,9,11a-hexahydrocyclodeca[b]furan-6-carboxylate

>  <PUBCHEM_IUPAC_SYSTEMATIC_NAME>
[6-(hydroxymethyl)-3,4,5-tris(oxidanyl)oxan-2-yl] (6E,10Z)-10-methyl-3-methylidene-2-oxidanylidene-3a,4,5,8,9,11a-hexahydrocyclodeca[b]furan-6-carboxylate

>  <PUBCHEM_IUPAC_TRADITIONAL_NAME>
(6E,10Z)-2-keto-10-methyl-3-methylene-3a,4,5,8,9,11a-hexahydrocyclodeca[b]furan-6-carboxylic acid (3,4,5-trihydroxy-6-methylol-tetrahydropyran-2-yl) ester

>  <PUBCHEM_IUPAC_INCHI>
InChI=1S/C21H28O9/c1-10-4-3-5-12(6-7-13-11(2)19(26)28-14(13)8-10)20(27)30-21-18(25)17(24)16(23)15(9-22)29-21/h5,8,13-18,21-25H,2-4,6-7,9H2,1H3/b10-8-,12-5+

>  <PUBCHEM_IUPAC_INCHIKEY>
SIOXYUXOHTZOOM-INAGUISBSA-N

>  <PUBCHEM_EXACT_MASS>
424.173

>  <PUBCHEM_MOLECULAR_FORMULA>
C21H28O9

>  <PUBCHEM_MOLECULAR_WEIGHT>
424.446

>  <PUBCHEM_OPENEYE_CAN_SMILES>
CC1=CC2C(CCC(=CCC1)C(=O)OC3C(C(C(C(O3)CO)O)O)O)C(=C)C(=O)O2

>  <PUBCHEM_OPENEYE_ISO_SMILES>
C/C/1=C/C2C(CC/C(=C\CC1)/C(=O)OC3C(C(C(C(O3)CO)O)O)O)C(=C)C(=O)O2

>  <PUBCHEM_CACTVS_TPSA>
143

>  <PUBCHEM_MONOISOTOPIC_WEIGHT>
424.173

>  <PUBCHEM_TOTAL_CHARGE>
0

>  <PUBCHEM_HEAVY_ATOM_COUNT>
30

>  <PUBCHEM_ATOM_DEF_STEREO_COUNT>
0

>  <PUBCHEM_ATOM_UDEF_STEREO_COUNT>
7

>  <PUBCHEM_BOND_DEF_STEREO_COUNT>
2

>  <PUBCHEM_BOND_UDEF_STEREO_COUNT>
0

>  <PUBCHEM_ISOTOPIC_ATOM_COUNT>
0

>  <PUBCHEM_COMPONENT_COUNT>
1

>  <PUBCHEM_CACTVS_TAUTO_COUNT>
1

>  <PUBCHEM_COORDINATE_TYPE>
1
5
255

>  <PUBCHEM_BONDANNOTATIONS>
13  20  3
14  17  3
16  22  3
15  2  3
10  4  3
11  5  3
12  6  3

$$$$
