131752338
 OpenBabel06101807152D

106108  0  0  1  0  0  0  0  0999 V2000
   12.9196    1.6008    0.0000 O   0  0  0  0  0  0  0  0  0  0  0  0
   13.7683    0.0908    0.0000 O   0  0  0  0  0  0  0  0  0  0  0  0
    6.8137    1.1340    0.0000 C   0  0  3  0  0  0  0  0  0  0  0  0
    6.8137    0.1340    0.0000 C   0  0  3  0  0  0  0  0  0  0  0  0
    7.6798    1.6340    0.0000 C   0  0  3  0  0  0  0  0  0  0  0  0
    8.5458    1.1340    0.0000 C   0  0  3  0  0  0  0  0  0  0  0  0
    5.8675   -0.1708    0.0000 C   0  0  3  0  0  0  0  0  0  0  0  0
    5.8675    1.4387    0.0000 C   0  0  0  0  0  0  0  0  0  0  0  0
    7.6798   -0.3660    0.0000 C   0  0  0  0  0  0  0  0  0  0  0  0
    8.5458    0.1340    0.0000 C   0  0  0  0  0  0  0  0  0  0  0  0
    5.2839    0.6340    0.0000 C   0  0  0  0  0  0  0  0  0  0  0  0
    9.4558    1.6408    0.0000 C   0  0  3  0  0  0  0  0  0  0  0  0
    7.6637    2.6755    0.0000 C   0  0  0  0  0  0  0  0  0  0  0  0
    6.8137    2.1340    0.0000 C   0  0  0  0  0  0  0  0  0  0  0  0
    6.8137   -0.8660    0.0000 C   0  0  0  0  0  0  0  0  0  0  0  0
    5.5568   -1.1213    0.0000 C   0  0  3  0  0  0  0  0  0  0  0  0
    9.4118    0.6340    0.0000 C   0  0  0  0  0  0  0  0  0  0  0  0
    8.5617    3.2032    0.0000 C   0  0  0  0  0  0  0  0  0  0  0  0
    9.4638    2.6824    0.0000 C   0  0  0  0  0  0  0  0  0  0  0  0
   10.3160    1.1308    0.0000 C   0  0  0  0  0  0  0  0  0  0  0  0
    4.5783   -1.3275    0.0000 C   0  0  0  0  0  0  0  0  0  0  0  0
    6.2247   -1.8656    0.0000 C   0  0  0  0  0  0  0  0  0  0  0  0
   10.3318    3.1791    0.0000 C   0  0  0  0  0  0  0  0  0  0  0  0
   11.1877    1.6208    0.0000 C   0  0  0  0  0  0  0  0  0  0  0  0
    4.2677   -2.2780    0.0000 C   0  0  0  0  0  0  0  0  0  0  0  0
   10.3356    4.1791    0.0000 C   0  0  0  0  0  0  0  0  0  0  0  0
   11.1958    2.6757    0.0000 C   0  0  0  0  0  0  0  0  0  0  0  0
   12.0479    1.1108    0.0000 C   0  0  0  0  0  0  0  0  0  0  0  0
    3.2892   -2.4842    0.0000 C   0  0  0  0  0  0  0  0  0  0  0  0
    2.9785   -3.4348    0.0000 C   0  0  0  0  0  0  0  0  0  0  0  0
   13.7798    1.0908    0.0000 C   0  0  0  0  0  0  0  0  0  0  0  0
    2.0000   -3.6410    0.0000 C   0  0  0  0  0  0  0  0  0  0  0  0
    3.6464   -4.1791    0.0000 C   0  0  0  0  0  0  0  0  0  0  0  0
   14.6516    1.5807    0.0000 C   0  0  0  0  0  0  0  0  0  0  0  0
   15.5118    1.0708    0.0000 C   0  0  0  0  0  0  0  0  0  0  0  0
   16.3835    1.5607    0.0000 C   0  0  0  0  0  0  0  0  0  0  0  0
   17.2437    1.0507    0.0000 C   0  0  0  0  0  0  0  0  0  0  0  0
   18.1155    1.5407    0.0000 C   0  0  0  0  0  0  0  0  0  0  0  0
   18.9756    1.0307    0.0000 C   0  0  0  0  0  0  0  0  0  0  0  0
   19.8474    1.5206    0.0000 C   0  0  0  0  0  0  0  0  0  0  0  0
    8.2143    1.9481    0.0000 H   0  0  0  0  0  0  0  0  0  0  0  0
    5.2550   -0.2670    0.0000 H   0  0  0  0  0  0  0  0  0  0  0  0
    6.1185    2.0056    0.0000 H   0  0  0  0  0  0  0  0  0  0  0  0
    5.3301    1.7479    0.0000 H   0  0  0  0  0  0  0  0  0  0  0  0
    7.2812   -0.8410    0.0000 H   0  0  0  0  0  0  0  0  0  0  0  0
    8.0783   -0.8410    0.0000 H   0  0  0  0  0  0  0  0  0  0  0  0
    8.7578   -0.4486    0.0000 H   0  0  0  0  0  0  0  0  0  0  0  0
    9.1564    0.2416    0.0000 H   0  0  0  0  0  0  0  0  0  0  0  0
    4.8230    1.0487    0.0000 H   0  0  0  0  0  0  0  0  0  0  0  0
    4.8230    0.2192    0.0000 H   0  0  0  0  0  0  0  0  0  0  0  0
    9.9957    1.9456    0.0000 H   0  0  0  0  0  0  0  0  0  0  0  0
    7.4457    3.2559    0.0000 H   0  0  0  0  0  0  0  0  0  0  0  0
    7.0545    2.5600    0.0000 H   0  0  0  0  0  0  0  0  0  0  0  0
    7.4337    2.1340    0.0000 H   0  0  0  0  0  0  0  0  0  0  0  0
    6.8137    2.7540    0.0000 H   0  0  0  0  0  0  0  0  0  0  0  0
    6.1937    2.1340    0.0000 H   0  0  0  0  0  0  0  0  0  0  0  0
    6.1937   -0.8660    0.0000 H   0  0  0  0  0  0  0  0  0  0  0  0
    6.8137   -1.4860    0.0000 H   0  0  0  0  0  0  0  0  0  0  0  0
    7.4337   -0.8660    0.0000 H   0  0  0  0  0  0  0  0  0  0  0  0
    5.3642   -1.7106    0.0000 H   0  0  0  0  0  0  0  0  0  0  0  0
    9.1018    0.0970    0.0000 H   0  0  0  0  0  0  0  0  0  0  0  0
    9.9487    0.3240    0.0000 H   0  0  0  0  0  0  0  0  0  0  0  0
    9.7218    1.1709    0.0000 H   0  0  0  0  0  0  0  0  0  0  0  0
    8.9590    3.6792    0.0000 H   0  0  0  0  0  0  0  0  0  0  0  0
    8.1608    3.6761    0.0000 H   0  0  0  0  0  0  0  0  0  0  0  0
    9.9120    0.6605    0.0000 H   0  0  0  0  0  0  0  0  0  0  0  0
   10.7090    0.6513    0.0000 H   0  0  0  0  0  0  0  0  0  0  0  0
    4.5578   -0.7078    0.0000 H   0  0  0  0  0  0  0  0  0  0  0  0
    3.9645   -1.2402    0.0000 H   0  0  0  0  0  0  0  0  0  0  0  0
    5.7632   -2.2796    0.0000 H   0  0  0  0  0  0  0  0  0  0  0  0
    6.6388   -2.3270    0.0000 H   0  0  0  0  0  0  0  0  0  0  0  0
    6.6862   -1.4515    0.0000 H   0  0  0  0  0  0  0  0  0  0  0  0
   11.5917    2.0911    0.0000 H   0  0  0  0  0  0  0  0  0  0  0  0
   10.7947    2.1003    0.0000 H   0  0  0  0  0  0  0  0  0  0  0  0
    4.2882   -2.8977    0.0000 H   0  0  0  0  0  0  0  0  0  0  0  0
    4.8815   -2.3654    0.0000 H   0  0  0  0  0  0  0  0  0  0  0  0
   10.8838    2.1400    0.0000 H   0  0  0  0  0  0  0  0  0  0  0  0
   11.7316    2.3637    0.0000 H   0  0  0  0  0  0  0  0  0  0  0  0
   11.5079    3.2115    0.0000 H   0  0  0  0  0  0  0  0  0  0  0  0
   10.9556    4.1767    0.0000 H   0  0  0  0  0  0  0  0  0  0  0  0
   10.3380    4.7991    0.0000 H   0  0  0  0  0  0  0  0  0  0  0  0
    9.7156    4.1814    0.0000 H   0  0  0  0  0  0  0  0  0  0  0  0
   11.6439    0.6405    0.0000 H   0  0  0  0  0  0  0  0  0  0  0  0
   12.4409    0.6313    0.0000 H   0  0  0  0  0  0  0  0  0  0  0  0
    2.8751   -2.0228    0.0000 H   0  0  0  0  0  0  0  0  0  0  0  0
    1.8721   -3.0343    0.0000 H   0  0  0  0  0  0  0  0  0  0  0  0
    3.1849   -4.5931    0.0000 H   0  0  0  0  0  0  0  0  0  0  0  0
    4.0604   -4.6405    0.0000 H   0  0  0  0  0  0  0  0  0  0  0  0
    1.3933   -3.7688    0.0000 H   0  0  0  0  0  0  0  0  0  0  0  0
    2.1279   -4.2476    0.0000 H   0  0  0  0  0  0  0  0  0  0  0  0
    4.1078   -3.7650    0.0000 H   0  0  0  0  0  0  0  0  0  0  0  0
   15.0556    2.0510    0.0000 H   0  0  0  0  0  0  0  0  0  0  0  0
   14.2586    2.0602    0.0000 H   0  0  0  0  0  0  0  0  0  0  0  0
   15.1078    0.6004    0.0000 H   0  0  0  0  0  0  0  0  0  0  0  0
   15.9048    0.5912    0.0000 H   0  0  0  0  0  0  0  0  0  0  0  0
   16.7875    2.0310    0.0000 H   0  0  0  0  0  0  0  0  0  0  0  0
   15.9905    2.0402    0.0000 H   0  0  0  0  0  0  0  0  0  0  0  0
   16.8397    0.5804    0.0000 H   0  0  0  0  0  0  0  0  0  0  0  0
   17.6367    0.5712    0.0000 H   0  0  0  0  0  0  0  0  0  0  0  0
   18.5194    2.0110    0.0000 H   0  0  0  0  0  0  0  0  0  0  0  0
   17.7224    2.0202    0.0000 H   0  0  0  0  0  0  0  0  0  0  0  0
   18.5716    0.5604    0.0000 H   0  0  0  0  0  0  0  0  0  0  0  0
   19.3686    0.5512    0.0000 H   0  0  0  0  0  0  0  0  0  0  0  0
   20.1512    0.9802    0.0000 H   0  0  0  0  0  0  0  0  0  0  0  0
   20.3879    1.8244    0.0000 H   0  0  0  0  0  0  0  0  0  0  0  0
   19.5436    2.0611    0.0000 H   0  0  0  0  0  0  0  0  0  0  0  0
  1 28  1  0  0  0  0
  1 31  1  0  0  0  0
  2 31  2  0  0  0  0
  3  4  1  0  0  0  0
  3  5  1  0  0  0  0
  3  8  1  0  0  0  0
  3 14  1  0  0  0  0
  4  7  1  0  0  0  0
  4  9  1  0  0  0  0
  4 15  1  0  0  0  0
  5  6  1  0  0  0  0
  5 13  1  0  0  0  0
  5 41  1  0  0  0  0
  6 10  1  0  0  0  0
  6 12  1  0  0  0  0
  6 17  1  0  0  0  0
  7 11  1  0  0  0  0
  7 16  1  0  0  0  0
  7 42  1  0  0  0  0
  8 11  1  0  0  0  0
  8 43  1  0  0  0  0
  8 44  1  0  0  0  0
  9 10  1  0  0  0  0
  9 45  1  0  0  0  0
  9 46  1  0  0  0  0
 10 47  1  0  0  0  0
 10 48  1  0  0  0  0
 11 49  1  0  0  0  0
 11 50  1  0  0  0  0
 12 19  1  0  0  0  0
 12 20  1  0  0  0  0
 12 51  1  0  0  0  0
 13 18  1  0  0  0  0
 13 52  1  0  0  0  0
 13 53  1  0  0  0  0
 14 54  1  0  0  0  0
 14 55  1  0  0  0  0
 14 56  1  0  0  0  0
 15 57  1  0  0  0  0
 15 58  1  0  0  0  0
 15 59  1  0  0  0  0
 16 21  1  0  0  0  0
 16 22  1  0  0  0  0
 16 60  1  0  0  0  0
 17 61  1  0  0  0  0
 17 62  1  0  0  0  0
 17 63  1  0  0  0  0
 18 19  1  0  0  0  0
 18 64  1  0  0  0  0
 18 65  1  0  0  0  0
 19 23  2  0  0  0  0
 20 24  1  0  0  0  0
 20 66  1  0  0  0  0
 20 67  1  0  0  0  0
 21 25  1  0  0  0  0
 21 68  1  0  0  0  0
 21 69  1  0  0  0  0
 22 70  1  0  0  0  0
 22 71  1  0  0  0  0
 22 72  1  0  0  0  0
 23 26  1  0  0  0  0
 23 27  1  0  0  0  0
 24 28  1  0  0  0  0
 24 73  1  0  0  0  0
 24 74  1  0  0  0  0
 25 29  1  0  0  0  0
 25 75  1  0  0  0  0
 25 76  1  0  0  0  0
 26 80  1  0  0  0  0
 26 81  1  0  0  0  0
 26 82  1  0  0  0  0
 27 77  1  0  0  0  0
 27 78  1  0  0  0  0
 27 79  1  0  0  0  0
 28 83  1  0  0  0  0
 28 84  1  0  0  0  0
 29 30  2  0  0  0  0
 29 85  1  0  0  0  0
 30 32  1  0  0  0  0
 30 33  1  0  0  0  0
 31 34  1  0  0  0  0
 32 86  1  0  0  0  0
 32 89  1  0  0  0  0
 32 90  1  0  0  0  0
 33 87  1  0  0  0  0
 33 88  1  0  0  0  0
 33 91  1  0  0  0  0
 34 35  1  0  0  0  0
 34 92  1  0  0  0  0
 34 93  1  0  0  0  0
 35 36  1  0  0  0  0
 35 94  1  0  0  0  0
 35 95  1  0  0  0  0
 36 37  1  0  0  0  0
 36 96  1  0  0  0  0
 36 97  1  0  0  0  0
 37 38  1  0  0  0  0
 37 98  1  0  0  0  0
 37 99  1  0  0  0  0
 38 39  1  0  0  0  0
 38100  1  0  0  0  0
 38101  1  0  0  0  0
 39 40  1  0  0  0  0
 39102  1  0  0  0  0
 39103  1  0  0  0  0
 40104  1  0  0  0  0
 40105  1  0  0  0  0
 40106  1  0  0  0  0
M  END
>  <PUBCHEM_COMPOUND_CID>
131752338

>  <PUBCHEM_COMPOUND_CANONICALIZED>
1

>  <PUBCHEM_CACTVS_COMPLEXITY>
889

>  <PUBCHEM_CACTVS_HBOND_ACCEPTOR>
2

>  <PUBCHEM_CACTVS_HBOND_DONOR>
0

>  <PUBCHEM_CACTVS_ROTATABLE_BOND>
15

>  <PUBCHEM_CACTVS_SUBSKEYS>
AAADcfB8MAAAAAAAAAAAAAAAAAAAAYAAAAAwYAAAAAAAAGDAAAAAGgAAAAAADwCggAICCAAABACIAiDSCAAAAAAgAAAACAEAAAgAABIAAQACAAAEgAAIAAOIyPCPgAAAAAAAAACAAAQAACAAAQAACAAAAA==

>  <PUBCHEM_IUPAC_OPENEYE_NAME>
3-[3-(1,5-dimethylhex-4-enyl)-7-isopropylidene-3a,5a,9b-trimethyl-2,3,4,5,6,8,9,9a-octahydro-1H-cyclopenta[a]naphthalen-6-yl]propyl octanoate

>  <PUBCHEM_IUPAC_CAS_NAME>
octanoic acid 3-[3a,5a,9b-trimethyl-3-(6-methylhept-5-en-2-yl)-7-propan-2-ylidene-2,3,4,5,6,8,9,9a-octahydro-1H-cyclopenta[a]naphthalen-6-yl]propyl ester

>  <PUBCHEM_IUPAC_NAME>
3-[3a,5a,9b-trimethyl-3-(6-methylhept-5-en-2-yl)-7-propan-2-ylidene-2,3,4,5,6,8,9,9a-octahydro-1H-cyclopenta[a]naphthalen-6-yl]propyl octanoate

>  <PUBCHEM_IUPAC_SYSTEMATIC_NAME>
3-[3a,5a,9b-trimethyl-3-(6-methylhept-5-en-2-yl)-7-propan-2-ylidene-2,3,4,5,6,8,9,9a-octahydro-1H-cyclopenta[a]naphthalen-6-yl]propyl octanoate

>  <PUBCHEM_IUPAC_TRADITIONAL_NAME>
caprylic acid 3-[3-(1,5-dimethylhex-4-enyl)-7-isopropylidene-3a,5a,9b-trimethyl-2,3,4,5,6,8,9,9a-octahydro-1H-benz[e]inden-6-yl]propyl ester

>  <PUBCHEM_IUPAC_INCHI>
InChI=1S/C38H66O2/c1-10-11-12-13-14-20-35(39)40-27-16-19-33-31(29(4)5)21-22-34-36(33,7)25-26-37(8)32(23-24-38(34,37)9)30(6)18-15-17-28(2)3/h17,30,32-34H,10-16,18-27H2,1-9H3

>  <PUBCHEM_IUPAC_INCHIKEY>
AFZHQMQGUKDWSJ-UHFFFAOYSA-N

>  <PUBCHEM_EXACT_MASS>
554.506

>  <PUBCHEM_MOLECULAR_FORMULA>
C38H66O2

>  <PUBCHEM_MOLECULAR_WEIGHT>
554.944

>  <PUBCHEM_OPENEYE_CAN_SMILES>
CCCCCCCC(=O)OCCCC1C(=C(C)C)CCC2C1(CCC3(C2(CCC3C(C)CCC=C(C)C)C)C)C

>  <PUBCHEM_OPENEYE_ISO_SMILES>
CCCCCCCC(=O)OCCCC1C(=C(C)C)CCC2C1(CCC3(C2(CCC3C(C)CCC=C(C)C)C)C)C

>  <PUBCHEM_CACTVS_TPSA>
26.3

>  <PUBCHEM_MONOISOTOPIC_WEIGHT>
554.506

>  <PUBCHEM_TOTAL_CHARGE>
0

>  <PUBCHEM_HEAVY_ATOM_COUNT>
40

>  <PUBCHEM_ATOM_DEF_STEREO_COUNT>
0

>  <PUBCHEM_ATOM_UDEF_STEREO_COUNT>
7

>  <PUBCHEM_BOND_DEF_STEREO_COUNT>
0

>  <PUBCHEM_BOND_UDEF_STEREO_COUNT>
0

>  <PUBCHEM_ISOTOPIC_ATOM_COUNT>
0

>  <PUBCHEM_COMPONENT_COUNT>
1

>  <PUBCHEM_CACTVS_TAUTO_COUNT>
1

>  <PUBCHEM_COORDINATE_TYPE>
1
5
255

>  <PUBCHEM_BONDANNOTATIONS>
12  20  3
16  22  3
3  14  3
4  15  3
5  13  3
6  17  3
7  11  3

$$$$
