131752610
 OpenBabel06101807152D

 88 94  0  0  1  0  0  0  0  0999 V2000
   10.3648   -0.4157    0.0000 O   0  0  0  0  0  0  0  0  0  0  0  0
   12.1572    1.6679    0.0000 O   0  0  0  0  0  0  0  0  0  0  0  0
    6.8671    1.5890    0.0000 O   0  0  0  0  0  0  0  0  0  0  0  0
    6.8671   -1.4110    0.0000 O   0  0  0  0  0  0  0  0  0  0  0  0
   10.4144   -1.4047    0.0000 O   0  0  0  0  0  0  0  0  0  0  0  0
   13.0391    0.1331    0.0000 O   0  0  0  0  0  0  0  0  0  0  0  0
    8.8607   -2.2708    0.0000 O   0  0  0  0  0  0  0  0  0  0  0  0
   11.6864    4.7210    0.0000 O   0  0  0  0  0  0  0  0  0  0  0  0
    5.1350    1.5890    0.0000 O   0  0  0  0  0  0  0  0  0  0  0  0
    5.1350   -1.4110    0.0000 O   0  0  0  0  0  0  0  0  0  0  0  0
    6.8671   -3.4110    0.0000 O   0  0  0  0  0  0  0  0  0  0  0  0
    5.1350   -4.4110    0.0000 O   0  0  0  0  0  0  0  0  0  0  0  0
    3.4030   -3.4110    0.0000 O   0  0  0  0  0  0  0  0  0  0  0  0
    2.5369   -1.9110    0.0000 O   0  0  0  0  0  0  0  0  0  0  0  0
   10.3691    0.6264    0.0000 C   0  0  3  0  0  0  0  0  0  0  0  0
    9.5089    0.1164    0.0000 C   0  0  3  0  0  0  0  0  0  0  0  0
    8.6372    0.6063    0.0000 C   0  0  3  0  0  0  0  0  0  0  0  0
   10.3575    1.6263    0.0000 C   0  0  3  0  0  0  0  0  0  0  0  0
    7.7331    0.0890    0.0000 C   0  0  3  0  0  0  0  0  0  0  0  0
   11.2692    0.1021    0.0000 C   0  0  3  0  0  0  0  0  0  0  0  0
    8.6256    1.6063    0.0000 C   0  0  0  0  0  0  0  0  0  0  0  0
    9.4858    2.1163    0.0000 C   0  0  0  0  0  0  0  0  0  0  0  0
    7.7371   -0.9526    0.0000 C   0  0  3  0  0  0  0  0  0  0  0  0
    9.5370   -0.9249    0.0000 C   0  0  0  0  0  0  0  0  0  0  0  0
   11.2452    2.1713    0.0000 C   0  0  3  0  0  0  0  0  0  0  0  0
   10.8088    0.1314    0.0000 C   0  0  0  0  0  0  0  0  0  0  0  0
    8.6451   -1.4630    0.0000 C   0  0  0  0  0  0  0  0  0  0  0  0
    6.8671   -0.4110    0.0000 C   0  0  3  0  0  0  0  0  0  0  0  0
   10.3460    2.6262    0.0000 C   0  0  0  0  0  0  0  0  0  0  0  0
    7.7331    1.0890    0.0000 C   0  0  0  0  0  0  0  0  0  0  0  0
   12.1692    0.6264    0.0000 C   0  0  0  0  0  0  0  0  0  0  0  0
    7.9183   -1.9361    0.0000 C   0  0  0  0  0  0  0  0  0  0  0  0
    6.0010    0.0890    0.0000 C   0  0  0  0  0  0  0  0  0  0  0  0
   11.2221    3.1710    0.0000 C   0  0  0  0  0  0  0  0  0  0  0  0
    6.9349   -2.1173    0.0000 C   0  0  0  0  0  0  0  0  0  0  0  0
    8.0995   -2.9195    0.0000 C   0  0  0  0  0  0  0  0  0  0  0  0
    6.0010    1.0890    0.0000 C   0  0  0  0  0  0  0  0  0  0  0  0
   10.3997    3.7399    0.0000 C   0  0  0  0  0  0  0  0  0  0  0  0
   12.0173    3.7773    0.0000 C   0  0  0  0  0  0  0  0  0  0  0  0
    6.0010   -1.9110    0.0000 C   0  0  3  0  0  0  0  0  0  0  0  0
    6.0010   -2.9110    0.0000 C   0  0  3  0  0  0  0  0  0  0  0  0
   10.6867    4.6979    0.0000 C   0  0  0  0  0  0  0  0  0  0  0  0
    5.1350   -3.4110    0.0000 C   0  0  3  0  0  0  0  0  0  0  0  0
    4.2690   -1.9110    0.0000 C   0  0  3  0  0  0  0  0  0  0  0  0
    4.2690   -2.9110    0.0000 C   0  0  3  0  0  0  0  0  0  0  0  0
    3.4030   -1.4110    0.0000 C   0  0  0  0  0  0  0  0  0  0  0  0
    9.1705    0.9225    0.0000 H   0  0  0  0  0  0  0  0  0  0  0  0
   11.5792   -0.4348    0.0000 H   0  0  0  0  0  0  0  0  0  0  0  0
    8.4068    2.1864    0.0000 H   0  0  0  0  0  0  0  0  0  0  0  0
    8.0163    1.4916    0.0000 H   0  0  0  0  0  0  0  0  0  0  0  0
    9.8788    2.5958    0.0000 H   0  0  0  0  0  0  0  0  0  0  0  0
    9.0818    2.5866    0.0000 H   0  0  0  0  0  0  0  0  0  0  0  0
    8.0976   -1.4570    0.0000 H   0  0  0  0  0  0  0  0  0  0  0  0
   11.7755    2.4926    0.0000 H   0  0  0  0  0  0  0  0  0  0  0  0
   10.8160   -0.4885    0.0000 H   0  0  0  0  0  0  0  0  0  0  0  0
   11.4288    0.1386    0.0000 H   0  0  0  0  0  0  0  0  0  0  0  0
   10.8017    0.7514    0.0000 H   0  0  0  0  0  0  0  0  0  0  0  0
    8.2534   -1.9435    0.0000 H   0  0  0  0  0  0  0  0  0  0  0  0
    9.0516   -1.9312    0.0000 H   0  0  0  0  0  0  0  0  0  0  0  0
    6.3301   -0.7210    0.0000 H   0  0  0  0  0  0  0  0  0  0  0  0
   10.9659    2.6334    0.0000 H   0  0  0  0  0  0  0  0  0  0  0  0
   10.3388    3.2462    0.0000 H   0  0  0  0  0  0  0  0  0  0  0  0
    9.7260    2.6191    0.0000 H   0  0  0  0  0  0  0  0  0  0  0  0
    8.3437    0.9813    0.0000 H   0  0  0  0  0  0  0  0  0  0  0  0
    7.9451    1.6716    0.0000 H   0  0  0  0  0  0  0  0  0  0  0  0
    5.3905    0.1967    0.0000 H   0  0  0  0  0  0  0  0  0  0  0  0
    5.7890   -0.4936    0.0000 H   0  0  0  0  0  0  0  0  0  0  0  0
    7.4898   -3.0319    0.0000 H   0  0  0  0  0  0  0  0  0  0  0  0
    8.2119   -3.5292    0.0000 H   0  0  0  0  0  0  0  0  0  0  0  0
    8.7093   -2.8071    0.0000 H   0  0  0  0  0  0  0  0  0  0  0  0
    6.8225   -1.5076    0.0000 H   0  0  0  0  0  0  0  0  0  0  0  0
    6.3252   -2.2297    0.0000 H   0  0  0  0  0  0  0  0  0  0  0  0
    7.0473   -2.7270    0.0000 H   0  0  0  0  0  0  0  0  0  0  0  0
    8.9731   -2.8805    0.0000 H   0  0  0  0  0  0  0  0  0  0  0  0
    9.8146    3.5347    0.0000 H   0  0  0  0  0  0  0  0  0  0  0  0
   12.6113    3.5994    0.0000 H   0  0  0  0  0  0  0  0  0  0  0  0
    6.5380   -2.2210    0.0000 H   0  0  0  0  0  0  0  0  0  0  0  0
    6.0010   -3.5310    0.0000 H   0  0  0  0  0  0  0  0  0  0  0  0
   10.3107    5.1909    0.0000 H   0  0  0  0  0  0  0  0  0  0  0  0
    4.5981   -3.7210    0.0000 H   0  0  0  0  0  0  0  0  0  0  0  0
    4.2690   -1.2910    0.0000 H   0  0  0  0  0  0  0  0  0  0  0  0
    4.2690   -3.5310    0.0000 H   0  0  0  0  0  0  0  0  0  0  0  0
    6.8671   -4.0310    0.0000 H   0  0  0  0  0  0  0  0  0  0  0  0
    3.8015   -0.9360    0.0000 H   0  0  0  0  0  0  0  0  0  0  0  0
    3.0044   -0.9360    0.0000 H   0  0  0  0  0  0  0  0  0  0  0  0
    4.5981   -4.7210    0.0000 H   0  0  0  0  0  0  0  0  0  0  0  0
    3.4030   -4.0310    0.0000 H   0  0  0  0  0  0  0  0  0  0  0  0
    2.0000   -1.6010    0.0000 H   0  0  0  0  0  0  0  0  0  0  0  0
  1 15  1  0  0  0  0
  1 20  1  0  0  0  0
  2 25  1  0  0  0  0
  2 31  1  0  0  0  0
  3 30  1  0  0  0  0
  3 37  1  0  0  0  0
  4 28  1  0  0  0  0
  4 40  1  0  0  0  0
  5 24  2  0  0  0  0
  6 31  2  0  0  0  0
  7 32  1  0  0  0  0
  7 74  1  0  0  0  0
  8 39  1  0  0  0  0
  8 42  1  0  0  0  0
  9 37  2  0  0  0  0
 10 40  1  0  0  0  0
 10 44  1  0  0  0  0
 11 41  1  0  0  0  0
 11 83  1  0  0  0  0
 12 43  1  0  0  0  0
 12 86  1  0  0  0  0
 13 45  1  0  0  0  0
 13 87  1  0  0  0  0
 14 46  1  0  0  0  0
 14 88  1  0  0  0  0
 15 16  1  0  0  0  0
 15 18  1  0  0  0  0
 15 20  1  0  0  0  0
 16 17  1  0  0  0  0
 16 24  1  0  0  0  0
 16 26  1  0  0  0  0
 17 19  1  0  0  0  0
 17 21  1  0  0  0  0
 17 47  1  0  0  0  0
 18 22  1  0  0  0  0
 18 25  1  0  0  0  0
 18 29  1  0  0  0  0
 19 23  1  0  0  0  0
 19 28  1  0  0  0  0
 19 30  1  0  0  0  0
 20 31  1  0  0  0  0
 20 48  1  0  0  0  0
 21 22  1  0  0  0  0
 21 49  1  0  0  0  0
 21 50  1  0  0  0  0
 22 51  1  0  0  0  0
 22 52  1  0  0  0  0
 23 27  1  0  0  0  0
 23 32  1  0  0  0  0
 23 53  1  0  0  0  0
 24 27  1  0  0  0  0
 25 34  1  0  0  0  0
 25 54  1  0  0  0  0
 26 55  1  0  0  0  0
 26 56  1  0  0  0  0
 26 57  1  0  0  0  0
 27 58  1  0  0  0  0
 27 59  1  0  0  0  0
 28 33  1  0  0  0  0
 28 60  1  0  0  0  0
 29 61  1  0  0  0  0
 29 62  1  0  0  0  0
 29 63  1  0  0  0  0
 30 64  1  0  0  0  0
 30 65  1  0  0  0  0
 32 35  1  0  0  0  0
 32 36  1  0  0  0  0
 33 37  1  0  0  0  0
 33 66  1  0  0  0  0
 33 67  1  0  0  0  0
 34 38  1  0  0  0  0
 34 39  2  0  0  0  0
 35 71  1  0  0  0  0
 35 72  1  0  0  0  0
 35 73  1  0  0  0  0
 36 68  1  0  0  0  0
 36 69  1  0  0  0  0
 36 70  1  0  0  0  0
 38 42  2  0  0  0  0
 38 75  1  0  0  0  0
 39 76  1  0  0  0  0
 40 41  1  0  0  0  0
 40 77  1  0  0  0  0
 41 43  1  0  0  0  0
 41 78  1  0  0  0  0
 42 79  1  0  0  0  0
 43 45  1  0  0  0  0
 43 80  1  0  0  0  0
 44 45  1  0  0  0  0
 44 46  1  0  0  0  0
 44 81  1  0  0  0  0
 45 82  1  0  0  0  0
 46 84  1  0  0  0  0
 46 85  1  0  0  0  0
M  END
>  <PUBCHEM_COMPOUND_CID>
131752610

>  <PUBCHEM_COMPOUND_CANONICALIZED>
1

>  <PUBCHEM_CACTVS_COMPLEXITY>
1290

>  <PUBCHEM_CACTVS_HBOND_ACCEPTOR>
14

>  <PUBCHEM_CACTVS_HBOND_DONOR>
5

>  <PUBCHEM_CACTVS_ROTATABLE_BOND>
5

>  <PUBCHEM_CACTVS_SUBSKEYS>
AAADcfB8PAAAAAAAAAAAAAAAEgAAASAAAAA0aJECBIAAAADRgAAAGgAACAAAD1SwmAMyDIAABkCIAqjSiAICCAAkIAAIiAFGCMgdNxYENQ6iWSCl4BEPKYPK7vzvgAAAAAAAAACAAAYAADAAAAAAAAAAAA==

>  <PUBCHEM_IUPAC_INCHI>
InChI=1S/C32H42O14/c1-28(2,40)17-9-18(34)30(4)16(5-7-29(3)24(14-6-8-41-12-14)45-26(39)25-32(29,30)46-25)31(17)13-42-20(35)10-19(31)44-27-23(38)22(37)21(36)15(11-33)43-27/h6,8,12,15-17,19,21-25,27,33,36-38,40H,5,7,9-11,13H2,1-4H3

>  <PUBCHEM_IUPAC_INCHIKEY>
MUZOGCSYWJPGRB-UHFFFAOYSA-N

>  <PUBCHEM_EXACT_MASS>
650.257

>  <PUBCHEM_MOLECULAR_FORMULA>
C32H42O14

>  <PUBCHEM_MOLECULAR_WEIGHT>
650.674

>  <PUBCHEM_OPENEYE_CAN_SMILES>
CC12CCC3C(C14C(O4)C(=O)OC2C5=COC=C5)(C(=O)CC(C36COC(=O)CC6OC7C(C(C(C(O7)CO)O)O)O)C(C)(C)O)C

>  <PUBCHEM_OPENEYE_ISO_SMILES>
CC12CCC3C(C14C(O4)C(=O)OC2C5=COC=C5)(C(=O)CC(C36COC(=O)CC6OC7C(C(C(C(O7)CO)O)O)O)C(C)(C)O)C

>  <PUBCHEM_CACTVS_TPSA>
215

>  <PUBCHEM_MONOISOTOPIC_WEIGHT>
650.257

>  <PUBCHEM_TOTAL_CHARGE>
0

>  <PUBCHEM_HEAVY_ATOM_COUNT>
46

>  <PUBCHEM_ATOM_DEF_STEREO_COUNT>
0

>  <PUBCHEM_ATOM_UDEF_STEREO_COUNT>
14

>  <PUBCHEM_BOND_DEF_STEREO_COUNT>
0

>  <PUBCHEM_BOND_UDEF_STEREO_COUNT>
0

>  <PUBCHEM_ISOTOPIC_ATOM_COUNT>
0

>  <PUBCHEM_COMPONENT_COUNT>
1

>  <PUBCHEM_CACTVS_TAUTO_COUNT>
2

>  <PUBCHEM_COORDINATE_TYPE>
1
5
255

>  <PUBCHEM_BONDANNOTATIONS>
15  1  3
41  11  3
43  12  3
45  13  3
16  26  3
17  21  3
18  29  3
19  30  3
20  31  3
23  32  3
25  34  3
34  38  8
34  39  8
38  42  8
28  4  3
40  4  3
44  46  3
8  39  8
8  42  8

$$$$
