131751202
 OpenBabel06101807152D

159163  0  0  1  0  0  0  0  0999 V2000
    9.4651    1.6550    0.0000 O   0  0  0  0  0  0  0  0  0  0  0  0
   19.8574   -4.3450    0.0000 O   0  0  0  0  0  0  0  0  0  0  0  0
    7.7331    1.6550    0.0000 O   0  0  0  0  0  0  0  0  0  0  0  0
   18.1254   -2.3450    0.0000 O   0  0  0  0  0  0  0  0  0  0  0  0
   20.7235   -2.8450    0.0000 O   0  0  0  0  0  0  0  0  0  0  0  0
    9.4651    4.6550    0.0000 O   0  0  0  0  0  0  0  0  0  0  0  0
   19.8574   -2.3450    0.0000 O   0  0  0  0  0  0  0  0  0  0  0  0
    6.0010    2.6550    0.0000 O   0  0  0  0  0  0  0  0  0  0  0  0
   18.1254   -5.3450    0.0000 O   0  0  0  0  0  0  0  0  0  0  0  0
    9.4651   -0.3450    0.0000 O   0  0  0  0  0  0  0  0  0  0  0  0
    7.7331   -1.3450    0.0000 O   0  0  0  0  0  0  0  0  0  0  0  0
    6.0010   -0.3450    0.0000 O   0  0  0  0  0  0  0  0  0  0  0  0
   16.3933   -4.3450    0.0000 O   0  0  0  0  0  0  0  0  0  0  0  0
    7.7331    2.6550    0.0000 O   0  0  0  0  0  0  0  0  0  0  0  0
   11.1972    2.6550    0.0000 O   0  0  0  0  0  0  0  0  0  0  0  0
    5.1350    4.1550    0.0000 O   0  0  0  0  0  0  0  0  0  0  0  0
   11.1972    4.6550    0.0000 O   0  0  0  0  0  0  0  0  0  0  0  0
   21.5895   -5.3450    0.0000 O   0  0  0  0  0  0  0  0  0  0  0  0
   23.3215   -4.3450    0.0000 O   0  0  0  0  0  0  0  0  0  0  0  0
   23.3215   -2.3450    0.0000 O   0  0  0  0  0  0  0  0  0  0  0  0
   16.3933   -1.3450    0.0000 O   0  0  0  0  0  0  0  0  0  0  0  0
    4.2690    1.6550    0.0000 O   0  0  0  0  0  0  0  0  0  0  0  0
    2.5369    2.6550    0.0000 O   0  0  0  0  0  0  0  0  0  0  0  0
    2.5369    4.6550    0.0000 O   0  0  0  0  0  0  0  0  0  0  0  0
   22.4555   -0.8450    0.0000 O   0  0  0  0  0  0  0  0  0  0  0  0
   18.9914   -3.8450    0.0000 C   0  0  3  0  0  0  0  0  0  0  0  0
    9.4651    2.6550    0.0000 C   0  0  3  0  0  0  0  0  0  0  0  0
   18.1254   -4.3450    0.0000 C   0  0  3  0  0  0  0  0  0  0  0  0
    8.5991    1.1550    0.0000 C   0  0  3  0  0  0  0  0  0  0  0  0
    8.5991    0.1550    0.0000 C   0  0  3  0  0  0  0  0  0  0  0  0
    6.8671    1.1550    0.0000 C   0  0  3  0  0  0  0  0  0  0  0  0
    7.7331   -0.3450    0.0000 C   0  0  3  0  0  0  0  0  0  0  0  0
    6.8671    0.1550    0.0000 C   0  0  3  0  0  0  0  0  0  0  0  0
   18.9914   -2.8450    0.0000 C   0  0  3  0  0  0  0  0  0  0  0  0
   17.2594   -3.8450    0.0000 C   0  0  3  0  0  0  0  0  0  0  0  0
    8.5991    3.1550    0.0000 C   0  0  3  0  0  0  0  0  0  0  0  0
   10.3312    3.1550    0.0000 C   0  0  3  0  0  0  0  0  0  0  0  0
   17.2594   -2.8450    0.0000 C   0  0  3  0  0  0  0  0  0  0  0  0
   20.7235   -3.8450    0.0000 C   0  0  3  0  0  0  0  0  0  0  0  0
   21.5895   -4.3450    0.0000 C   0  0  3  0  0  0  0  0  0  0  0  0
    8.5991    4.1550    0.0000 C   0  0  3  0  0  0  0  0  0  0  0  0
   22.4555   -3.8450    0.0000 C   0  0  3  0  0  0  0  0  0  0  0  0
   22.4555   -2.8450    0.0000 C   0  0  3  0  0  0  0  0  0  0  0  0
   10.3312    4.1550    0.0000 C   0  0  3  0  0  0  0  0  0  0  0  0
   21.5895   -2.3450    0.0000 C   0  0  3  0  0  0  0  0  0  0  0  0
    6.0010    1.6550    0.0000 C   0  0  0  0  0  0  0  0  0  0  0  0
   19.8574   -1.3450    0.0000 C   0  0  3  0  0  0  0  0  0  0  0  0
    5.1350    3.1550    0.0000 C   0  0  3  0  0  0  0  0  0  0  0  0
   16.3933   -2.3450    0.0000 C   0  0  0  0  0  0  0  0  0  0  0  0
    4.2690    2.6550    0.0000 C   0  0  3  0  0  0  0  0  0  0  0  0
    3.4030    3.1550    0.0000 C   0  0  3  0  0  0  0  0  0  0  0  0
    3.4030    4.1550    0.0000 C   0  0  3  0  0  0  0  0  0  0  0  0
    7.7331    4.6550    0.0000 C   0  0  0  0  0  0  0  0  0  0  0  0
    4.2690    4.6550    0.0000 C   0  0  3  0  0  0  0  0  0  0  0  0
   21.5895   -1.3450    0.0000 C   0  0  0  0  0  0  0  0  0  0  0  0
   19.8574   -0.3450    0.0000 C   0  0  0  0  0  0  0  0  0  0  0  0
   18.8574   -1.3450    0.0000 C   0  0  0  0  0  0  0  0  0  0  0  0
   20.8574   -1.3450    0.0000 C   0  0  0  0  0  0  0  0  0  0  0  0
   18.9914    0.1550    0.0000 C   0  0  0  0  0  0  0  0  0  0  0  0
    4.2690    5.6550    0.0000 C   0  0  0  0  0  0  0  0  0  0  0  0
   12.0632    4.1550    0.0000 C   0  0  0  0  0  0  0  0  0  0  0  0
   18.9914    1.1550    0.0000 C   0  0  0  0  0  0  0  0  0  0  0  0
   12.9292    4.6550    0.0000 C   0  0  0  0  0  0  0  0  0  0  0  0
   21.3574   -0.4790    0.0000 C   0  0  0  0  0  0  0  0  0  0  0  0
   18.1254    1.6550    0.0000 C   0  0  0  0  0  0  0  0  0  0  0  0
   13.7953    4.1550    0.0000 C   0  0  0  0  0  0  0  0  0  0  0  0
   12.9292    5.6550    0.0000 C   0  0  0  0  0  0  0  0  0  0  0  0
   18.1254    2.6550    0.0000 C   0  0  0  0  0  0  0  0  0  0  0  0
   14.6613    4.6550    0.0000 C   0  0  0  0  0  0  0  0  0  0  0  0
   17.2594    1.1550    0.0000 C   0  0  0  0  0  0  0  0  0  0  0  0
   17.2594    3.1550    0.0000 C   0  0  0  0  0  0  0  0  0  0  0  0
   15.5273    4.1550    0.0000 C   0  0  0  0  0  0  0  0  0  0  0  0
   16.3933    4.6550    0.0000 C   0  0  0  0  0  0  0  0  0  0  0  0
   17.2594    4.1550    0.0000 C   0  0  0  0  0  0  0  0  0  0  0  0
   16.3933    5.6550    0.0000 C   0  0  0  0  0  0  0  0  0  0  0  0
   18.9914   -4.4650    0.0000 H   0  0  0  0  0  0  0  0  0  0  0  0
    8.9282    2.3450    0.0000 H   0  0  0  0  0  0  0  0  0  0  0  0
   17.5885   -4.6550    0.0000 H   0  0  0  0  0  0  0  0  0  0  0  0
    8.5991    1.7750    0.0000 H   0  0  0  0  0  0  0  0  0  0  0  0
    8.5991   -0.4650    0.0000 H   0  0  0  0  0  0  0  0  0  0  0  0
    6.8671    1.7750    0.0000 H   0  0  0  0  0  0  0  0  0  0  0  0
    8.2700   -0.6550    0.0000 H   0  0  0  0  0  0  0  0  0  0  0  0
    6.8671   -0.4650    0.0000 H   0  0  0  0  0  0  0  0  0  0  0  0
   18.9914   -2.2250    0.0000 H   0  0  0  0  0  0  0  0  0  0  0  0
   16.7224   -3.5350    0.0000 H   0  0  0  0  0  0  0  0  0  0  0  0
    8.5991    2.5350    0.0000 H   0  0  0  0  0  0  0  0  0  0  0  0
   10.3312    2.5350    0.0000 H   0  0  0  0  0  0  0  0  0  0  0  0
   17.2594   -2.2250    0.0000 H   0  0  0  0  0  0  0  0  0  0  0  0
   20.1865   -3.5350    0.0000 H   0  0  0  0  0  0  0  0  0  0  0  0
   22.1264   -4.6550    0.0000 H   0  0  0  0  0  0  0  0  0  0  0  0
    8.5991    4.7750    0.0000 H   0  0  0  0  0  0  0  0  0  0  0  0
   22.4555   -4.4650    0.0000 H   0  0  0  0  0  0  0  0  0  0  0  0
   22.9925   -3.1550    0.0000 H   0  0  0  0  0  0  0  0  0  0  0  0
   10.8681    3.8450    0.0000 H   0  0  0  0  0  0  0  0  0  0  0  0
   21.0526   -2.0350    0.0000 H   0  0  0  0  0  0  0  0  0  0  0  0
    5.3905    1.7627    0.0000 H   0  0  0  0  0  0  0  0  0  0  0  0
    5.7890    1.0724    0.0000 H   0  0  0  0  0  0  0  0  0  0  0  0
    5.1350    2.5350    0.0000 H   0  0  0  0  0  0  0  0  0  0  0  0
   15.7828   -2.2373    0.0000 H   0  0  0  0  0  0  0  0  0  0  0  0
   16.1813   -2.9276    0.0000 H   0  0  0  0  0  0  0  0  0  0  0  0
    3.7320    2.3450    0.0000 H   0  0  0  0  0  0  0  0  0  0  0  0
    2.8660    3.4650    0.0000 H   0  0  0  0  0  0  0  0  0  0  0  0
    3.4030    4.7750    0.0000 H   0  0  0  0  0  0  0  0  0  0  0  0
    8.0431    5.1919    0.0000 H   0  0  0  0  0  0  0  0  0  0  0  0
    7.1962    4.9650    0.0000 H   0  0  0  0  0  0  0  0  0  0  0  0
    7.4231    4.1181    0.0000 H   0  0  0  0  0  0  0  0  0  0  0  0
    4.8059    4.9650    0.0000 H   0  0  0  0  0  0  0  0  0  0  0  0
   21.3774   -0.7624    0.0000 H   0  0  0  0  0  0  0  0  0  0  0  0
   20.9789   -1.4527    0.0000 H   0  0  0  0  0  0  0  0  0  0  0  0
   17.5885   -5.6550    0.0000 H   0  0  0  0  0  0  0  0  0  0  0  0
   20.4680   -0.4527    0.0000 H   0  0  0  0  0  0  0  0  0  0  0  0
   20.0695    0.2376    0.0000 H   0  0  0  0  0  0  0  0  0  0  0  0
    9.4651   -0.9650    0.0000 H   0  0  0  0  0  0  0  0  0  0  0  0
    7.1962   -1.6550    0.0000 H   0  0  0  0  0  0  0  0  0  0  0  0
    5.4641   -0.0350    0.0000 H   0  0  0  0  0  0  0  0  0  0  0  0
   15.8564   -4.0350    0.0000 H   0  0  0  0  0  0  0  0  0  0  0  0
    7.1962    2.9650    0.0000 H   0  0  0  0  0  0  0  0  0  0  0  0
   11.1972    2.0350    0.0000 H   0  0  0  0  0  0  0  0  0  0  0  0
   22.1264   -5.6550    0.0000 H   0  0  0  0  0  0  0  0  0  0  0  0
   18.8574   -0.7250    0.0000 H   0  0  0  0  0  0  0  0  0  0  0  0
   18.2374   -1.3450    0.0000 H   0  0  0  0  0  0  0  0  0  0  0  0
   18.8574   -1.9650    0.0000 H   0  0  0  0  0  0  0  0  0  0  0  0
   23.8585   -4.0350    0.0000 H   0  0  0  0  0  0  0  0  0  0  0  0
   23.8585   -2.6550    0.0000 H   0  0  0  0  0  0  0  0  0  0  0  0
   21.1674   -1.8819    0.0000 H   0  0  0  0  0  0  0  0  0  0  0  0
   18.3808    0.2627    0.0000 H   0  0  0  0  0  0  0  0  0  0  0  0
   18.7794   -0.4276    0.0000 H   0  0  0  0  0  0  0  0  0  0  0  0
    4.8890    5.6550    0.0000 H   0  0  0  0  0  0  0  0  0  0  0  0
    4.2690    6.2750    0.0000 H   0  0  0  0  0  0  0  0  0  0  0  0
    3.6490    5.6550    0.0000 H   0  0  0  0  0  0  0  0  0  0  0  0
   11.6647    3.6800    0.0000 H   0  0  0  0  0  0  0  0  0  0  0  0
   12.4617    3.6800    0.0000 H   0  0  0  0  0  0  0  0  0  0  0  0
   15.8564   -1.0350    0.0000 H   0  0  0  0  0  0  0  0  0  0  0  0
    3.7320    1.3450    0.0000 H   0  0  0  0  0  0  0  0  0  0  0  0
    2.0000    2.9650    0.0000 H   0  0  0  0  0  0  0  0  0  0  0  0
    2.5369    5.2750    0.0000 H   0  0  0  0  0  0  0  0  0  0  0  0
   22.4555   -0.2250    0.0000 H   0  0  0  0  0  0  0  0  0  0  0  0
   19.5284    1.4650    0.0000 H   0  0  0  0  0  0  0  0  0  0  0  0
   21.9774   -0.4790    0.0000 H   0  0  0  0  0  0  0  0  0  0  0  0
   21.0474    0.0580    0.0000 H   0  0  0  0  0  0  0  0  0  0  0  0
   13.7953    3.5350    0.0000 H   0  0  0  0  0  0  0  0  0  0  0  0
   13.5492    5.6550    0.0000 H   0  0  0  0  0  0  0  0  0  0  0  0
   12.9292    6.2750    0.0000 H   0  0  0  0  0  0  0  0  0  0  0  0
   12.3092    5.6550    0.0000 H   0  0  0  0  0  0  0  0  0  0  0  0
   18.7360    2.5473    0.0000 H   0  0  0  0  0  0  0  0  0  0  0  0
   18.3374    3.2376    0.0000 H   0  0  0  0  0  0  0  0  0  0  0  0
   15.0598    5.1300    0.0000 H   0  0  0  0  0  0  0  0  0  0  0  0
   14.2628    5.1300    0.0000 H   0  0  0  0  0  0  0  0  0  0  0  0
   16.9494    1.6919    0.0000 H   0  0  0  0  0  0  0  0  0  0  0  0
   16.7224    0.8450    0.0000 H   0  0  0  0  0  0  0  0  0  0  0  0
   17.5694    0.6181    0.0000 H   0  0  0  0  0  0  0  0  0  0  0  0
   16.6488    3.2627    0.0000 H   0  0  0  0  0  0  0  0  0  0  0  0
   17.0473    2.5724    0.0000 H   0  0  0  0  0  0  0  0  0  0  0  0
   15.1288    3.6800    0.0000 H   0  0  0  0  0  0  0  0  0  0  0  0
   15.9258    3.6800    0.0000 H   0  0  0  0  0  0  0  0  0  0  0  0
   17.7963    4.4650    0.0000 H   0  0  0  0  0  0  0  0  0  0  0  0
   17.0133    5.6550    0.0000 H   0  0  0  0  0  0  0  0  0  0  0  0
   16.3933    6.2750    0.0000 H   0  0  0  0  0  0  0  0  0  0  0  0
   15.7733    5.6550    0.0000 H   0  0  0  0  0  0  0  0  0  0  0  0
  1 27  1  0  0  0  0
  1 29  1  0  0  0  0
  2 26  1  0  0  0  0
  2 39  1  0  0  0  0
  3 29  1  0  0  0  0
  3 31  1  0  0  0  0
  4 34  1  0  0  0  0
  4 38  1  0  0  0  0
  5 39  1  0  0  0  0
  5 45  1  0  0  0  0
  6 41  1  0  0  0  0
  6 44  1  0  0  0  0
  7 34  1  0  0  0  0
  7 47  1  0  0  0  0
  8 46  1  0  0  0  0
  8 48  1  0  0  0  0
  9 28  1  0  0  0  0
  9110  1  0  0  0  0
 10 30  1  0  0  0  0
 10113  1  0  0  0  0
 11 32  1  0  0  0  0
 11114  1  0  0  0  0
 12 33  1  0  0  0  0
 12115  1  0  0  0  0
 13 35  1  0  0  0  0
 13116  1  0  0  0  0
 14 36  1  0  0  0  0
 14117  1  0  0  0  0
 15 37  1  0  0  0  0
 15118  1  0  0  0  0
 16 48  1  0  0  0  0
 16 54  1  0  0  0  0
 17 44  1  0  0  0  0
 17 61  1  0  0  0  0
 18 40  1  0  0  0  0
 18119  1  0  0  0  0
 19 42  1  0  0  0  0
 19123  1  0  0  0  0
 20 43  1  0  0  0  0
 20124  1  0  0  0  0
 21 49  1  0  0  0  0
 21133  1  0  0  0  0
 22 50  1  0  0  0  0
 22134  1  0  0  0  0
 23 51  1  0  0  0  0
 23135  1  0  0  0  0
 24 52  1  0  0  0  0
 24136  1  0  0  0  0
 25 55  1  0  0  0  0
 25137  1  0  0  0  0
 26 28  1  0  0  0  0
 26 34  1  0  0  0  0
 26 76  1  0  0  0  0
 27 36  1  0  0  0  0
 27 37  1  0  0  0  0
 27 77  1  0  0  0  0
 28 35  1  0  0  0  0
 28 78  1  0  0  0  0
 29 30  1  0  0  0  0
 29 79  1  0  0  0  0
 30 32  1  0  0  0  0
 30 80  1  0  0  0  0
 31 33  1  0  0  0  0
 31 46  1  0  0  0  0
 31 81  1  0  0  0  0
 32 33  1  0  0  0  0
 32 82  1  0  0  0  0
 33 83  1  0  0  0  0
 34 84  1  0  0  0  0
 35 38  1  0  0  0  0
 35 85  1  0  0  0  0
 36 41  1  0  0  0  0
 36 86  1  0  0  0  0
 37 44  1  0  0  0  0
 37 87  1  0  0  0  0
 38 49  1  0  0  0  0
 38 88  1  0  0  0  0
 39 40  1  0  0  0  0
 39 89  1  0  0  0  0
 40 42  1  0  0  0  0
 40 90  1  0  0  0  0
 41 53  1  0  0  0  0
 41 91  1  0  0  0  0
 42 43  1  0  0  0  0
 42 92  1  0  0  0  0
 43 45  1  0  0  0  0
 43 93  1  0  0  0  0
 44 94  1  0  0  0  0
 45 55  1  0  0  0  0
 45 95  1  0  0  0  0
 46 96  1  0  0  0  0
 46 97  1  0  0  0  0
 47 56  1  0  0  0  0
 47 57  1  0  0  0  0
 47 58  1  0  0  0  0
 48 50  1  0  0  0  0
 48 98  1  0  0  0  0
 49 99  1  0  0  0  0
 49100  1  0  0  0  0
 50 51  1  0  0  0  0
 50101  1  0  0  0  0
 51 52  1  0  0  0  0
 51102  1  0  0  0  0
 52 54  1  0  0  0  0
 52103  1  0  0  0  0
 53104  1  0  0  0  0
 53105  1  0  0  0  0
 53106  1  0  0  0  0
 54 60  1  0  0  0  0
 54107  1  0  0  0  0
 55108  1  0  0  0  0
 55109  1  0  0  0  0
 56 59  1  0  0  0  0
 56111  1  0  0  0  0
 56112  1  0  0  0  0
 57120  1  0  0  0  0
 57121  1  0  0  0  0
 57122  1  0  0  0  0
 58 64  2  0  0  0  0
 58125  1  0  0  0  0
 59 62  1  0  0  0  0
 59126  1  0  0  0  0
 59127  1  0  0  0  0
 60128  1  0  0  0  0
 60129  1  0  0  0  0
 60130  1  0  0  0  0
 61 63  1  0  0  0  0
 61131  1  0  0  0  0
 61132  1  0  0  0  0
 62 65  2  0  0  0  0
 62138  1  0  0  0  0
 63 66  2  0  0  0  0
 63 67  1  0  0  0  0
 64139  1  0  0  0  0
 64140  1  0  0  0  0
 65 68  1  0  0  0  0
 65 70  1  0  0  0  0
 66 69  1  0  0  0  0
 66141  1  0  0  0  0
 67142  1  0  0  0  0
 67143  1  0  0  0  0
 67144  1  0  0  0  0
 68 71  1  0  0  0  0
 68145  1  0  0  0  0
 68146  1  0  0  0  0
 69 72  1  0  0  0  0
 69147  1  0  0  0  0
 69148  1  0  0  0  0
 70149  1  0  0  0  0
 70150  1  0  0  0  0
 70151  1  0  0  0  0
 71 74  1  0  0  0  0
 71152  1  0  0  0  0
 71153  1  0  0  0  0
 72 73  1  0  0  0  0
 72154  1  0  0  0  0
 72155  1  0  0  0  0
 73 74  2  0  0  0  0
 73 75  1  0  0  0  0
 74156  1  0  0  0  0
 75157  1  0  0  0  0
 75158  1  0  0  0  0
 75159  1  0  0  0  0
M  END
>  <PUBCHEM_COMPOUND_CID>
131751202

>  <PUBCHEM_COMPOUND_CANONICALIZED>
1

>  <PUBCHEM_CACTVS_COMPLEXITY>
1840

>  <PUBCHEM_CACTVS_HBOND_ACCEPTOR>
25

>  <PUBCHEM_CACTVS_HBOND_DONOR>
15

>  <PUBCHEM_CACTVS_ROTATABLE_BOND>
24

>  <PUBCHEM_CACTVS_SUBSKEYS>
AAADcfB8PgAAAAAAAAAAAAAAAAAAAAAAAAAkSJEiQAAAAAAAAAAAGgAACAAADFSwgAMCCAAABgCAAiBCAAAAAAAgAAAICAAAAAgRFAIAIQAiUAAFgAAPIAPAYAwMAAAAAAAAAAAAAAAAAAAAAAAAAAAAAA==

>  <PUBCHEM_IUPAC_OPENEYE_NAME>
2-[[6-[2-[(2E,6Z,10E)-14-[4,5-dihydroxy-6-(hydroxymethyl)-3-[3,4,5-trihydroxy-6-(hydroxymethyl)tetrahydropyran-2-yl]oxy-tetrahydropyran-2-yl]oxy-2,6,10,14-tetramethyl-hexadeca-2,6,10,15-tetraenoxy]-3,5-dihydroxy-6-methyl-tetrahydropyran-4-yl]oxy-3,4,5-trihydroxy-tetrahydropyran-2-yl]methoxy]-6-methyl-tetrahydropyran-3,4,5-triol

>  <PUBCHEM_IUPAC_CAS_NAME>
2-[[6-[[2-[(2E,6Z,10E)-14-[[4,5-dihydroxy-6-(hydroxymethyl)-3-[[3,4,5-trihydroxy-6-(hydroxymethyl)-2-oxanyl]oxy]-2-oxanyl]oxy]-2,6,10,14-tetramethylhexadeca-2,6,10,15-tetraenoxy]-3,5-dihydroxy-6-methyl-4-oxanyl]oxy]-3,4,5-trihydroxy-2-oxanyl]methoxy]-6-methyloxane-3,4,5-triol

>  <PUBCHEM_IUPAC_NAME>
2-[[6-[2-[(2E,6Z,10E)-14-[4,5-dihydroxy-6-(hydroxymethyl)-3-[3,4,5-trihydroxy-6-(hydroxymethyl)oxan-2-yl]oxyoxan-2-yl]oxy-2,6,10,14-tetramethylhexadeca-2,6,10,15-tetraenoxy]-3,5-dihydroxy-6-methyloxan-4-yl]oxy-3,4,5-trihydroxyoxan-2-yl]methoxy]-6-methyloxane-3,4,5-triol

>  <PUBCHEM_IUPAC_SYSTEMATIC_NAME>
2-[[6-[2-[(2E,6Z,10E)-14-[6-(hydroxymethyl)-3-[6-(hydroxymethyl)-3,4,5-tris(oxidanyl)oxan-2-yl]oxy-4,5-bis(oxidanyl)oxan-2-yl]oxy-2,6,10,14-tetramethyl-hexadeca-2,6,10,15-tetraenoxy]-6-methyl-3,5-bis(oxidanyl)oxan-4-yl]oxy-3,4,5-tris(oxidanyl)oxan-2-yl]methoxy]-6-methyl-oxane-3,4,5-triol

>  <PUBCHEM_IUPAC_TRADITIONAL_NAME>
2-[[6-[2-[(2E,6Z,10E)-14-[4,5-dihydroxy-6-methylol-3-(3,4,5-trihydroxy-6-methylol-tetrahydropyran-2-yl)oxy-tetrahydropyran-2-yl]oxy-2,6,10,14-tetramethyl-hexadeca-2,6,10,15-tetraenoxy]-3,5-dihydroxy-6-methyl-tetrahydropyran-4-yl]oxy-3,4,5-trihydroxy-tetrahydropyran-2-yl]methoxy]-6-methyl-tetrahydropyran-3,4,5-triol

>  <PUBCHEM_IUPAC_INCHI>
InChI=1S/C50H84O25/c1-8-50(7,75-49-44(38(61)33(56)28(19-52)71-49)74-47-40(63)36(59)32(55)27(18-51)70-47)17-11-16-23(3)13-9-12-22(2)14-10-15-24(4)20-66-46-42(65)43(31(54)26(6)69-46)73-48-41(64)37(60)34(57)29(72-48)21-67-45-39(62)35(58)30(53)25(5)68-45/h8,12,15-16,25-49,51-65H,1,9-11,13-14,17-21H2,2-7H3/b22-12-,23-16+,24-15+

>  <PUBCHEM_IUPAC_INCHIKEY>
NFBYZSYLZUMCFV-CVVMOWQVSA-N

>  <PUBCHEM_EXACT_MASS>
1084.53

>  <PUBCHEM_MOLECULAR_FORMULA>
C50H84O25

>  <PUBCHEM_MOLECULAR_WEIGHT>
1085.197

>  <PUBCHEM_OPENEYE_CAN_SMILES>
CC1C(C(C(C(O1)OCC2C(C(C(C(O2)OC3C(C(OC(C3O)OCC(=CCCC(=CCCC(=CCCC(C)(C=C)OC4C(C(C(C(O4)CO)O)O)OC5C(C(C(C(O5)CO)O)O)O)C)C)C)C)O)O)O)O)O)O)O

>  <PUBCHEM_OPENEYE_ISO_SMILES>
CC1C(C(C(C(O1)OCC2C(C(C(C(O2)OC3C(C(OC(C3O)OC/C(=C/CC/C(=C\CC/C(=C/CCC(C)(C=C)OC4C(C(C(C(O4)CO)O)O)OC5C(C(C(C(O5)CO)O)O)O)/C)/C)/C)C)O)O)O)O)O)O)O

>  <PUBCHEM_CACTVS_TPSA>
396

>  <PUBCHEM_MONOISOTOPIC_WEIGHT>
1084.53

>  <PUBCHEM_TOTAL_CHARGE>
0

>  <PUBCHEM_HEAVY_ATOM_COUNT>
75

>  <PUBCHEM_ATOM_DEF_STEREO_COUNT>
0

>  <PUBCHEM_ATOM_UDEF_STEREO_COUNT>
26

>  <PUBCHEM_BOND_DEF_STEREO_COUNT>
3

>  <PUBCHEM_BOND_UDEF_STEREO_COUNT>
0

>  <PUBCHEM_ISOTOPIC_ATOM_COUNT>
0

>  <PUBCHEM_COMPONENT_COUNT>
1

>  <PUBCHEM_CACTVS_TAUTO_COUNT>
1

>  <PUBCHEM_COORDINATE_TYPE>
1
5
255

>  <PUBCHEM_BONDANNOTATIONS>
27  1  3
29  1  3
30  10  3
32  11  3
33  12  3
35  13  3
36  14  3
37  15  3
44  17  3
40  18  3
42  19  3
26  2  3
39  2  3
43  20  3
50  22  3
51  23  3
52  24  3
31  46  3
38  49  3
41  53  3
45  55  3
47  57  3
54  60  3
34  7  3
48  8  3
28  9  3

$$$$
