131753022
 OpenBabel06101807152D

103104  0  0  1  0  0  0  0  0999 V2000
    7.7331   -3.9050    0.0000 O   0  0  0  0  0  0  0  0  0  0  0  0
    5.1350   -1.4050    0.0000 O   0  0  0  0  0  0  0  0  0  0  0  0
    6.0010   -2.9050    0.0000 O   0  0  0  0  0  0  0  0  0  0  0  0
    9.4651   -3.9050    0.0000 O   0  0  0  0  0  0  0  0  0  0  0  0
    6.0010   -5.9050    0.0000 O   0  0  0  0  0  0  0  0  0  0  0  0
    7.7331   -6.9050    0.0000 O   0  0  0  0  0  0  0  0  0  0  0  0
    9.4651   -5.9050    0.0000 O   0  0  0  0  0  0  0  0  0  0  0  0
    4.2690   -3.9050    0.0000 O   0  0  0  0  0  0  0  0  0  0  0  0
    2.5369   -2.9050    0.0000 O   0  0  0  0  0  0  0  0  0  0  0  0
    2.5369   -0.9050    0.0000 O   0  0  0  0  0  0  0  0  0  0  0  0
    5.1350    0.5950    0.0000 O   0  0  0  0  0  0  0  0  0  0  0  0
   11.1972   -2.9050    0.0000 O   0  0  0  0  0  0  0  0  0  0  0  0
   11.1972   -0.9050    0.0000 O   0  0  0  0  0  0  0  0  0  0  0  0
   10.3312    0.5950    0.0000 O   0  0  0  0  0  0  0  0  0  0  0  0
    6.8671   -4.4050    0.0000 C   0  0  3  0  0  0  0  0  0  0  0  0
    6.8671   -5.4050    0.0000 C   0  0  3  0  0  0  0  0  0  0  0  0
    7.7331   -5.9050    0.0000 C   0  0  3  0  0  0  0  0  0  0  0  0
    8.5991   -5.4050    0.0000 C   0  0  3  0  0  0  0  0  0  0  0  0
    4.2690   -2.9050    0.0000 C   0  0  3  0  0  0  0  0  0  0  0  0
    5.1350   -2.4050    0.0000 C   0  0  3  0  0  0  0  0  0  0  0  0
    3.4030   -2.4050    0.0000 C   0  0  3  0  0  0  0  0  0  0  0  0
    3.4030   -1.4050    0.0000 C   0  0  3  0  0  0  0  0  0  0  0  0
    8.5991   -4.4050    0.0000 C   0  0  3  0  0  0  0  0  0  0  0  0
    4.2690   -0.9050    0.0000 C   0  0  3  0  0  0  0  0  0  0  0  0
    6.0010   -3.9050    0.0000 C   0  0  0  0  0  0  0  0  0  0  0  0
    4.2690    0.0950    0.0000 C   0  0  0  0  0  0  0  0  0  0  0  0
    9.4651   -2.9050    0.0000 C   0  0  0  0  0  0  0  0  0  0  0  0
   10.3312   -2.4050    0.0000 C   0  0  3  0  0  0  0  0  0  0  0  0
   10.3312   -1.4050    0.0000 C   0  0  0  0  0  0  0  0  0  0  0  0
   12.9292    2.0950    0.0000 C   0  0  0  0  0  0  0  0  0  0  0  0
   12.0632    1.5950    0.0000 C   0  0  0  0  0  0  0  0  0  0  0  0
   12.9292    3.0950    0.0000 C   0  0  0  0  0  0  0  0  0  0  0  0
   12.0632    0.5950    0.0000 C   0  0  0  0  0  0  0  0  0  0  0  0
   13.7953    3.5950    0.0000 C   0  0  0  0  0  0  0  0  0  0  0  0
   11.1972    0.0950    0.0000 C   0  0  0  0  0  0  0  0  0  0  0  0
   13.7953    4.5950    0.0000 C   0  0  0  0  0  0  0  0  0  0  0  0
   14.6613    5.0950    0.0000 C   0  0  0  0  0  0  0  0  0  0  0  0
   14.6613    6.0950    0.0000 C   0  0  0  0  0  0  0  0  0  0  0  0
   15.5273    6.5950    0.0000 C   0  0  0  0  0  0  0  0  0  0  0  0
   16.3933    6.0950    0.0000 C   0  0  0  0  0  0  0  0  0  0  0  0
   17.2594    6.5950    0.0000 C   0  0  0  0  0  0  0  0  0  0  0  0
   18.1254    6.0950    0.0000 C   0  0  0  0  0  0  0  0  0  0  0  0
   18.1254    5.0950    0.0000 C   0  0  0  0  0  0  0  0  0  0  0  0
   18.9914    4.5950    0.0000 C   0  0  0  0  0  0  0  0  0  0  0  0
   18.9914    3.5950    0.0000 C   0  0  0  0  0  0  0  0  0  0  0  0
   18.1254    3.0950    0.0000 C   0  0  0  0  0  0  0  0  0  0  0  0
   18.1254    2.0950    0.0000 C   0  0  0  0  0  0  0  0  0  0  0  0
    6.8671   -3.7850    0.0000 H   0  0  0  0  0  0  0  0  0  0  0  0
    6.8671   -6.0250    0.0000 H   0  0  0  0  0  0  0  0  0  0  0  0
    7.1962   -6.2150    0.0000 H   0  0  0  0  0  0  0  0  0  0  0  0
    8.5991   -6.0250    0.0000 H   0  0  0  0  0  0  0  0  0  0  0  0
    3.7320   -3.2150    0.0000 H   0  0  0  0  0  0  0  0  0  0  0  0
    5.1350   -3.0250    0.0000 H   0  0  0  0  0  0  0  0  0  0  0  0
    2.8660   -2.0950    0.0000 H   0  0  0  0  0  0  0  0  0  0  0  0
    3.4030   -0.7850    0.0000 H   0  0  0  0  0  0  0  0  0  0  0  0
    9.1360   -4.7150    0.0000 H   0  0  0  0  0  0  0  0  0  0  0  0
    4.8059   -0.5950    0.0000 H   0  0  0  0  0  0  0  0  0  0  0  0
    5.3905   -3.7973    0.0000 H   0  0  0  0  0  0  0  0  0  0  0  0
    5.7890   -4.4876    0.0000 H   0  0  0  0  0  0  0  0  0  0  0  0
    4.0569    0.6776    0.0000 H   0  0  0  0  0  0  0  0  0  0  0  0
    3.6584   -0.0127    0.0000 H   0  0  0  0  0  0  0  0  0  0  0  0
    5.4641   -5.5950    0.0000 H   0  0  0  0  0  0  0  0  0  0  0  0
    7.1962   -7.2150    0.0000 H   0  0  0  0  0  0  0  0  0  0  0  0
   10.0021   -5.5950    0.0000 H   0  0  0  0  0  0  0  0  0  0  0  0
    3.7320   -4.2150    0.0000 H   0  0  0  0  0  0  0  0  0  0  0  0
    2.0000   -2.5950    0.0000 H   0  0  0  0  0  0  0  0  0  0  0  0
    2.5369   -0.2850    0.0000 H   0  0  0  0  0  0  0  0  0  0  0  0
    9.2531   -2.3224    0.0000 H   0  0  0  0  0  0  0  0  0  0  0  0
    8.8546   -3.0127    0.0000 H   0  0  0  0  0  0  0  0  0  0  0  0
   10.3312   -3.0250    0.0000 H   0  0  0  0  0  0  0  0  0  0  0  0
    5.1350    1.2150    0.0000 H   0  0  0  0  0  0  0  0  0  0  0  0
   10.1191   -0.8224    0.0000 H   0  0  0  0  0  0  0  0  0  0  0  0
    9.7206   -1.5127    0.0000 H   0  0  0  0  0  0  0  0  0  0  0  0
   11.7341   -2.5950    0.0000 H   0  0  0  0  0  0  0  0  0  0  0  0
   13.1413    1.5124    0.0000 H   0  0  0  0  0  0  0  0  0  0  0  0
   13.5398    2.2027    0.0000 H   0  0  0  0  0  0  0  0  0  0  0  0
   11.8512    2.1776    0.0000 H   0  0  0  0  0  0  0  0  0  0  0  0
   11.4526    1.4873    0.0000 H   0  0  0  0  0  0  0  0  0  0  0  0
   12.7172    3.6776    0.0000 H   0  0  0  0  0  0  0  0  0  0  0  0
   12.3187    2.9873    0.0000 H   0  0  0  0  0  0  0  0  0  0  0  0
   12.2753    0.0124    0.0000 H   0  0  0  0  0  0  0  0  0  0  0  0
   12.6738    0.7027    0.0000 H   0  0  0  0  0  0  0  0  0  0  0  0
   14.0073    3.0124    0.0000 H   0  0  0  0  0  0  0  0  0  0  0  0
   14.4058    3.7027    0.0000 H   0  0  0  0  0  0  0  0  0  0  0  0
   13.5832    5.1776    0.0000 H   0  0  0  0  0  0  0  0  0  0  0  0
   13.1847    4.4873    0.0000 H   0  0  0  0  0  0  0  0  0  0  0  0
   14.8733    4.5124    0.0000 H   0  0  0  0  0  0  0  0  0  0  0  0
   15.2719    5.2027    0.0000 H   0  0  0  0  0  0  0  0  0  0  0  0
   14.1244    6.4050    0.0000 H   0  0  0  0  0  0  0  0  0  0  0  0
   15.5273    7.2150    0.0000 H   0  0  0  0  0  0  0  0  0  0  0  0
   15.9948    5.6200    0.0000 H   0  0  0  0  0  0  0  0  0  0  0  0
   16.7919    5.6200    0.0000 H   0  0  0  0  0  0  0  0  0  0  0  0
   17.2594    7.2150    0.0000 H   0  0  0  0  0  0  0  0  0  0  0  0
   18.6623    6.4050    0.0000 H   0  0  0  0  0  0  0  0  0  0  0  0
   17.5148    5.2027    0.0000 H   0  0  0  0  0  0  0  0  0  0  0  0
   17.9133    4.5124    0.0000 H   0  0  0  0  0  0  0  0  0  0  0  0
   19.5284    4.9050    0.0000 H   0  0  0  0  0  0  0  0  0  0  0  0
   19.5284    3.2850    0.0000 H   0  0  0  0  0  0  0  0  0  0  0  0
   17.9133    3.6776    0.0000 H   0  0  0  0  0  0  0  0  0  0  0  0
   17.5148    2.9873    0.0000 H   0  0  0  0  0  0  0  0  0  0  0  0
   17.5054    2.0950    0.0000 H   0  0  0  0  0  0  0  0  0  0  0  0
   18.1254    1.4750    0.0000 H   0  0  0  0  0  0  0  0  0  0  0  0
   18.7454    2.0950    0.0000 H   0  0  0  0  0  0  0  0  0  0  0  0
  1 15  1  0  0  0  0
  1 23  1  0  0  0  0
  2 20  1  0  0  0  0
  2 24  1  0  0  0  0
  3 20  1  0  0  0  0
  3 25  1  0  0  0  0
  4 23  1  0  0  0  0
  4 27  1  0  0  0  0
  5 16  1  0  0  0  0
  5 62  1  0  0  0  0
  6 17  1  0  0  0  0
  6 63  1  0  0  0  0
  7 18  1  0  0  0  0
  7 64  1  0  0  0  0
  8 19  1  0  0  0  0
  8 65  1  0  0  0  0
  9 21  1  0  0  0  0
  9 66  1  0  0  0  0
 10 22  1  0  0  0  0
 10 67  1  0  0  0  0
 11 26  1  0  0  0  0
 11 71  1  0  0  0  0
 12 28  1  0  0  0  0
 12 74  1  0  0  0  0
 13 29  1  0  0  0  0
 13 35  1  0  0  0  0
 14 35  2  0  0  0  0
 15 16  1  0  0  0  0
 15 25  1  0  0  0  0
 15 48  1  0  0  0  0
 16 17  1  0  0  0  0
 16 49  1  0  0  0  0
 17 18  1  0  0  0  0
 17 50  1  0  0  0  0
 18 23  1  0  0  0  0
 18 51  1  0  0  0  0
 19 20  1  0  0  0  0
 19 21  1  0  0  0  0
 19 52  1  0  0  0  0
 20 53  1  0  0  0  0
 21 22  1  0  0  0  0
 21 54  1  0  0  0  0
 22 24  1  0  0  0  0
 22 55  1  0  0  0  0
 23 56  1  0  0  0  0
 24 26  1  0  0  0  0
 24 57  1  0  0  0  0
 25 58  1  0  0  0  0
 25 59  1  0  0  0  0
 26 60  1  0  0  0  0
 26 61  1  0  0  0  0
 27 28  1  0  0  0  0
 27 68  1  0  0  0  0
 27 69  1  0  0  0  0
 28 29  1  0  0  0  0
 28 70  1  0  0  0  0
 29 72  1  0  0  0  0
 29 73  1  0  0  0  0
 30 31  1  0  0  0  0
 30 32  1  0  0  0  0
 30 75  1  0  0  0  0
 30 76  1  0  0  0  0
 31 33  1  0  0  0  0
 31 77  1  0  0  0  0
 31 78  1  0  0  0  0
 32 34  1  0  0  0  0
 32 79  1  0  0  0  0
 32 80  1  0  0  0  0
 33 35  1  0  0  0  0
 33 81  1  0  0  0  0
 33 82  1  0  0  0  0
 34 36  1  0  0  0  0
 34 83  1  0  0  0  0
 34 84  1  0  0  0  0
 36 37  1  0  0  0  0
 36 85  1  0  0  0  0
 36 86  1  0  0  0  0
 37 38  1  0  0  0  0
 37 87  1  0  0  0  0
 37 88  1  0  0  0  0
 38 39  2  0  0  0  0
 38 89  1  0  0  0  0
 39 40  1  0  0  0  0
 39 90  1  0  0  0  0
 40 41  1  0  0  0  0
 40 91  1  0  0  0  0
 40 92  1  0  0  0  0
 41 42  2  0  0  0  0
 41 93  1  0  0  0  0
 42 43  1  0  0  0  0
 42 94  1  0  0  0  0
 43 44  1  0  0  0  0
 43 95  1  0  0  0  0
 43 96  1  0  0  0  0
 44 45  2  0  0  0  0
 44 97  1  0  0  0  0
 45 46  1  0  0  0  0
 45 98  1  0  0  0  0
 46 47  1  0  0  0  0
 46 99  1  0  0  0  0
 46100  1  0  0  0  0
 47101  1  0  0  0  0
 47102  1  0  0  0  0
 47103  1  0  0  0  0
M  END
>  <PUBCHEM_COMPOUND_CID>
131753022

>  <PUBCHEM_COMPOUND_CANONICALIZED>
1

>  <PUBCHEM_CACTVS_COMPLEXITY>
929

>  <PUBCHEM_CACTVS_HBOND_ACCEPTOR>
14

>  <PUBCHEM_CACTVS_HBOND_DONOR>
8

>  <PUBCHEM_CACTVS_ROTATABLE_BOND>
23

>  <PUBCHEM_CACTVS_SUBSKEYS>
AAADcfB8PAAAAAAAAAAAAAAAAAAAAAAAAAAkSAAAAAAAAAAAAAAAGgAACAAACBSwgAMCCAAABgCIACDSCAAAAAAgAAAICAEAAAgREBIAAQAiQAAFgAAPAAPI6KyAAAAAAAAAAAAAAAAAAAAAAAAAAAAAAA==

>  <PUBCHEM_IUPAC_OPENEYE_NAME>
[2-hydroxy-3-[3,4,5-trihydroxy-6-[[3,4,5-trihydroxy-6-(hydroxymethyl)tetrahydropyran-2-yl]oxymethyl]tetrahydropyran-2-yl]oxy-propyl] (9Z,12Z,15Z)-octadeca-9,12,15-trienoate

>  <PUBCHEM_IUPAC_CAS_NAME>
(9Z,12Z,15Z)-octadeca-9,12,15-trienoic acid [2-hydroxy-3-[[3,4,5-trihydroxy-6-[[3,4,5-trihydroxy-6-(hydroxymethyl)-2-oxanyl]oxymethyl]-2-oxanyl]oxy]propyl] ester

>  <PUBCHEM_IUPAC_NAME>
[2-hydroxy-3-[3,4,5-trihydroxy-6-[[3,4,5-trihydroxy-6-(hydroxymethyl)oxan-2-yl]oxymethyl]oxan-2-yl]oxypropyl] (9Z,12Z,15Z)-octadeca-9,12,15-trienoate

>  <PUBCHEM_IUPAC_SYSTEMATIC_NAME>
[3-[6-[[6-(hydroxymethyl)-3,4,5-tris(oxidanyl)oxan-2-yl]oxymethyl]-3,4,5-tris(oxidanyl)oxan-2-yl]oxy-2-oxidanyl-propyl] (9Z,12Z,15Z)-octadeca-9,12,15-trienoate

>  <PUBCHEM_IUPAC_TRADITIONAL_NAME>
(9Z,12Z,15Z)-octadeca-9,12,15-trienoic acid [2-hydroxy-3-[3,4,5-trihydroxy-6-[(3,4,5-trihydroxy-6-methylol-tetrahydropyran-2-yl)oxymethyl]tetrahydropyran-2-yl]oxy-propyl] ester

>  <PUBCHEM_IUPAC_INCHI>
InChI=1S/C33H56O14/c1-2-3-4-5-6-7-8-9-10-11-12-13-14-15-16-17-25(36)43-19-22(35)20-44-32-31(42)29(40)27(38)24(47-32)21-45-33-30(41)28(39)26(37)23(18-34)46-33/h3-4,6-7,9-10,22-24,26-35,37-42H,2,5,8,11-21H2,1H3/b4-3-,7-6-,10-9-

>  <PUBCHEM_IUPAC_INCHIKEY>
MPSGDHOYFIUPSO-PDBXOOCHSA-N

>  <PUBCHEM_EXACT_MASS>
676.367

>  <PUBCHEM_MOLECULAR_FORMULA>
C33H56O14

>  <PUBCHEM_MOLECULAR_WEIGHT>
676.797

>  <PUBCHEM_OPENEYE_CAN_SMILES>
CCC=CCC=CCC=CCCCCCCCC(=O)OCC(COC1C(C(C(C(O1)COC2C(C(C(C(O2)CO)O)O)O)O)O)O)O

>  <PUBCHEM_OPENEYE_ISO_SMILES>
CC/C=C\C/C=C\C/C=C\CCCCCCCC(=O)OCC(COC1C(C(C(C(O1)COC2C(C(C(C(O2)CO)O)O)O)O)O)O)O

>  <PUBCHEM_CACTVS_TPSA>
225

>  <PUBCHEM_MONOISOTOPIC_WEIGHT>
676.367

>  <PUBCHEM_TOTAL_CHARGE>
0

>  <PUBCHEM_HEAVY_ATOM_COUNT>
47

>  <PUBCHEM_ATOM_DEF_STEREO_COUNT>
0

>  <PUBCHEM_ATOM_UDEF_STEREO_COUNT>
11

>  <PUBCHEM_BOND_DEF_STEREO_COUNT>
3

>  <PUBCHEM_BOND_UDEF_STEREO_COUNT>
0

>  <PUBCHEM_ISOTOPIC_ATOM_COUNT>
0

>  <PUBCHEM_COMPONENT_COUNT>
1

>  <PUBCHEM_CACTVS_TAUTO_COUNT>
1

>  <PUBCHEM_COORDINATE_TYPE>
1
5
255

>  <PUBCHEM_BONDANNOTATIONS>
22  10  3
28  12  3
15  25  3
24  26  3
20  3  3
23  4  3
16  5  3
17  6  3
18  7  3
19  8  3
21  9  3

$$$$
