131751157
 OpenBabel06101807152D

 48 53  0  0  1  0  0  0  0  0999 V2000
    5.7614    0.3486    0.0000 O   0  0  0  0  0  0  0  0  0  0  0  0
    8.7646   -1.0568    0.0000 O   0  0  0  0  0  0  0  0  0  0  0  0
    6.5163   -2.4171    0.0000 O   0  0  0  0  0  0  0  0  0  0  0  0
    2.1286   -1.2161    0.0000 O   0  0  0  0  0  0  0  0  0  0  0  0
    7.3427    1.7780    0.0000 O   0  0  0  0  0  0  0  0  0  0  0  0
    4.8417    2.2628    0.0000 O   0  0  0  0  0  0  0  0  0  0  0  0
    6.0502    2.7013    0.0000 O   0  0  0  0  0  0  0  0  0  0  0  0
    6.1853   -0.7086    0.0000 C   0  0  3  0  0  0  0  0  0  0  0  0
    6.4789    0.2000    0.0000 C   0  0  3  0  0  0  0  0  0  0  0  0
    4.9326    0.2016    0.0000 C   0  0  3  0  0  0  0  0  0  0  0  0
    5.2297   -0.7121    0.0000 C   0  0  3  0  0  0  0  0  0  0  0  0
    7.4429    0.4065    0.0000 C   0  0  3  0  0  0  0  0  0  0  0  0
    5.7063    0.7619    0.0000 C   0  0  3  0  0  0  0  0  0  0  0  0
    8.1038   -0.3252    0.0000 C   0  0  3  0  0  0  0  0  0  0  0  0
    6.8365   -1.4698    0.0000 C   0  0  3  0  0  0  0  0  0  0  0  0
    7.8006   -1.2633    0.0000 C   0  0  3  0  0  0  0  0  0  0  0  0
    4.1868   -0.6543    0.0000 C   0  0  0  0  0  0  0  0  0  0  0  0
    4.7012   -1.5141    0.0000 C   0  0  0  0  0  0  0  0  0  0  0  0
    4.0324    0.5385    0.0000 C   0  0  0  0  0  0  0  0  0  0  0  0
    3.0796   -0.9067    0.0000 C   0  0  3  0  0  0  0  0  0  0  0  0
    6.6816    1.0278    0.0000 C   0  0  0  0  0  0  0  0  0  0  0  0
    3.7441   -1.6006    0.0000 C   0  0  0  0  0  0  0  0  0  0  0  0
    3.2085    0.0454    0.0000 C   0  0  0  0  0  0  0  0  0  0  0  0
    8.1321    1.1311    0.0000 C   0  0  0  0  0  0  0  0  0  0  0  0
    5.7073    1.7619    0.0000 C   0  0  0  0  0  0  0  0  0  0  0  0
    2.4549    0.7028    0.0000 C   0  0  0  0  0  0  0  0  0  0  0  0
    6.8945   -0.2601    0.0000 H   0  0  0  0  0  0  0  0  0  0  0  0
    5.5247   -1.2574    0.0000 H   0  0  0  0  0  0  0  0  0  0  0  0
    6.2589    1.0430    0.0000 H   0  0  0  0  0  0  0  0  0  0  0  0
    8.5639    0.0904    0.0000 H   0  0  0  0  0  0  0  0  0  0  0  0
    6.2278   -1.5874    0.0000 H   0  0  0  0  0  0  0  0  0  0  0  0
    7.9304   -1.8696    0.0000 H   0  0  0  0  0  0  0  0  0  0  0  0
    4.1314   -1.2718    0.0000 H   0  0  0  0  0  0  0  0  0  0  0  0
    4.7571   -0.8975    0.0000 H   0  0  0  0  0  0  0  0  0  0  0  0
    4.6182   -2.1285    0.0000 H   0  0  0  0  0  0  0  0  0  0  0  0
    5.2818   -1.7316    0.0000 H   0  0  0  0  0  0  0  0  0  0  0  0
    4.3736    1.0562    0.0000 H   0  0  0  0  0  0  0  0  0  0  0  0
    3.6036    0.9863    0.0000 H   0  0  0  0  0  0  0  0  0  0  0  0
    3.2120   -1.9189    0.0000 H   0  0  0  0  0  0  0  0  0  0  0  0
    3.9360   -2.1901    0.0000 H   0  0  0  0  0  0  0  0  0  0  0  0
    8.5813    0.7039    0.0000 H   0  0  0  0  0  0  0  0  0  0  0  0
    8.5593    1.5804    0.0000 H   0  0  0  0  0  0  0  0  0  0  0  0
    7.6828    1.5584    0.0000 H   0  0  0  0  0  0  0  0  0  0  0  0
    6.9257   -2.8828    0.0000 H   0  0  0  0  0  0  0  0  0  0  0  0
    2.0000   -1.8226    0.0000 H   0  0  0  0  0  0  0  0  0  0  0  0
    2.5743    1.3112    0.0000 H   0  0  0  0  0  0  0  0  0  0  0  0
    1.8684    0.5020    0.0000 H   0  0  0  0  0  0  0  0  0  0  0  0
    4.8424    2.8828    0.0000 H   0  0  0  0  0  0  0  0  0  0  0  0
  1  8  1  0  0  0  0
  1 21  1  0  0  0  0
  2 14  1  0  0  0  0
  2 16  1  0  0  0  0
  3 15  1  0  0  0  0
  3 44  1  0  0  0  0
  4 20  1  0  0  0  0
  4 45  1  0  0  0  0
  5 21  2  0  0  0  0
  6 25  1  0  0  0  0
  6 48  1  0  0  0  0
  7 25  2  0  0  0  0
  8  9  1  0  0  0  0
  8 11  1  0  0  0  0
  8 15  1  0  0  0  0
  9 12  1  0  0  0  0
  9 13  1  0  0  0  0
  9 27  1  0  0  0  0
 10 11  1  0  0  0  0
 10 13  1  0  0  0  0
 10 17  1  0  0  0  0
 10 19  1  0  0  0  0
 11 18  1  0  0  0  0
 11 28  1  0  0  0  0
 12 14  1  0  0  0  0
 12 21  1  0  0  0  0
 12 24  1  0  0  0  0
 13 25  1  0  0  0  0
 13 29  1  0  0  0  0
 14 16  1  0  0  0  0
 14 30  1  0  0  0  0
 15 16  1  0  0  0  0
 15 31  1  0  0  0  0
 16 32  1  0  0  0  0
 17 20  1  0  0  0  0
 17 33  1  0  0  0  0
 17 34  1  0  0  0  0
 18 22  1  0  0  0  0
 18 35  1  0  0  0  0
 18 36  1  0  0  0  0
 19 23  1  0  0  0  0
 19 37  1  0  0  0  0
 19 38  1  0  0  0  0
 20 22  1  0  0  0  0
 20 23  1  0  0  0  0
 22 39  1  0  0  0  0
 22 40  1  0  0  0  0
 23 26  2  0  0  0  0
 24 41  1  0  0  0  0
 24 42  1  0  0  0  0
 24 43  1  0  0  0  0
 26 46  1  0  0  0  0
 26 47  1  0  0  0  0
M  END
>  <PUBCHEM_COMPOUND_CID>
131751157

>  <PUBCHEM_COMPOUND_CANONICALIZED>
1

>  <PUBCHEM_CACTVS_COMPLEXITY>
808

>  <PUBCHEM_CACTVS_HBOND_ACCEPTOR>
7

>  <PUBCHEM_CACTVS_HBOND_DONOR>
3

>  <PUBCHEM_CACTVS_ROTATABLE_BOND>
1

>  <PUBCHEM_CACTVS_SUBSKEYS>
AAADceB4OAAAAAAAAAAAAAAAEgAAAaMEAAAwYAAABokSAGDAAAAAGgAACAAAD1SggAICCAAABgCIAgDSCAAAAAAgAAAAAAEAAAgBFBYAAQACQAAFoAADEAHK7vzPgAAAAAAAAADCAAYQADCAAYAADAAAAA==

>  <PUBCHEM_IUPAC_INCHI>
InChI=1S/C19H22O7/c1-7-5-17-6-18(7,24)4-3-8(17)19-11(9(17)14(21)22)16(2,15(23)26-19)13-10(25-13)12(19)20/h8-13,20,24H,1,3-6H2,2H3,(H,21,22)

>  <PUBCHEM_IUPAC_INCHIKEY>
GHWOQFZWXKNOMS-UHFFFAOYSA-N

>  <PUBCHEM_EXACT_MASS>
362.137

>  <PUBCHEM_MOLECULAR_FORMULA>
C19H22O7

>  <PUBCHEM_MOLECULAR_WEIGHT>
362.378

>  <PUBCHEM_OPENEYE_CAN_SMILES>
CC12C3C(C45CC(=C)C(C4)(CCC5C3(C(C6C1O6)O)OC2=O)O)C(=O)O

>  <PUBCHEM_OPENEYE_ISO_SMILES>
CC12C3C(C45CC(=C)C(C4)(CCC5C3(C(C6C1O6)O)OC2=O)O)C(=O)O

>  <PUBCHEM_CACTVS_TPSA>
117

>  <PUBCHEM_MONOISOTOPIC_WEIGHT>
362.137

>  <PUBCHEM_TOTAL_CHARGE>
0

>  <PUBCHEM_HEAVY_ATOM_COUNT>
26

>  <PUBCHEM_ATOM_DEF_STEREO_COUNT>
0

>  <PUBCHEM_ATOM_UDEF_STEREO_COUNT>
10

>  <PUBCHEM_BOND_DEF_STEREO_COUNT>
0

>  <PUBCHEM_BOND_UDEF_STEREO_COUNT>
0

>  <PUBCHEM_ISOTOPIC_ATOM_COUNT>
0

>  <PUBCHEM_COMPONENT_COUNT>
1

>  <PUBCHEM_CACTVS_TAUTO_COUNT>
1

>  <PUBCHEM_COORDINATE_TYPE>
1
5
255

>  <PUBCHEM_BONDANNOTATIONS>
8  1  3
10  19  3
11  18  3
12  24  3
13  25  3
14  2  3
16  2  3
15  3  3
20  4  3
9  13  3

$$$$
