131751913
 OpenBabel06101807152D

 40 40  0  0  1  0  0  0  0  0999 V2000
    3.3660   -0.5005    0.0000 O   0  0  0  0  0  0  0  0  0  0  0  0
    3.8660   -4.3665    0.0000 O   0  0  0  0  0  0  0  0  0  0  0  0
    6.4641   -1.8665    0.0000 O   0  0  0  0  0  0  0  0  0  0  0  0
    3.8660    3.8296    0.0000 O   0  0  0  0  0  0  0  0  0  0  0  0
    5.3660    2.9636    0.0000 O   0  0  0  0  0  0  0  0  0  0  0  0
    3.0000   -1.8665    0.0000 C   0  0  0  0  0  0  0  0  0  0  0  0
    3.8660   -1.3665    0.0000 C   0  0  3  0  0  0  0  0  0  0  0  0
    3.0000   -2.8665    0.0000 C   0  0  0  0  0  0  0  0  0  0  0  0
    4.7320   -1.8665    0.0000 C   0  0  0  0  0  0  0  0  0  0  0  0
    2.0000   -1.8665    0.0000 C   0  0  0  0  0  0  0  0  0  0  0  0
    2.2340   -1.2238    0.0000 C   0  0  0  0  0  0  0  0  0  0  0  0
    3.8660   -3.3665    0.0000 C   0  0  0  0  0  0  0  0  0  0  0  0
    4.3660   -0.5005    0.0000 C   0  0  0  0  0  0  0  0  0  0  0  0
    4.7320   -2.8665    0.0000 C   0  0  0  0  0  0  0  0  0  0  0  0
    5.5981   -1.3665    0.0000 C   0  0  0  0  0  0  0  0  0  0  0  0
    3.8660    0.3655    0.0000 C   0  0  0  0  0  0  0  0  0  0  0  0
    4.3660    1.2315    0.0000 C   0  0  0  0  0  0  0  0  0  0  0  0
    5.3660    1.2315    0.0000 C   0  0  0  0  0  0  0  0  0  0  0  0
    3.8660    2.0976    0.0000 C   0  0  0  0  0  0  0  0  0  0  0  0
    4.3660    2.9636    0.0000 C   0  0  0  0  0  0  0  0  0  0  0  0
    2.3894   -2.7589    0.0000 H   0  0  0  0  0  0  0  0  0  0  0  0
    2.7880   -3.4492    0.0000 H   0  0  0  0  0  0  0  0  0  0  0  0
    2.0000   -1.2465    0.0000 H   0  0  0  0  0  0  0  0  0  0  0  0
    1.3800   -1.8665    0.0000 H   0  0  0  0  0  0  0  0  0  0  0  0
    2.0000   -2.4865    0.0000 H   0  0  0  0  0  0  0  0  0  0  0  0
    2.6325   -0.7488    0.0000 H   0  0  0  0  0  0  0  0  0  0  0  0
    1.7590   -0.8252    0.0000 H   0  0  0  0  0  0  0  0  0  0  0  0
    1.8354   -1.6987    0.0000 H   0  0  0  0  0  0  0  0  0  0  0  0
    4.9860   -0.5005    0.0000 H   0  0  0  0  0  0  0  0  0  0  0  0
    5.2690   -3.1765    0.0000 H   0  0  0  0  0  0  0  0  0  0  0  0
    5.9966   -0.8916    0.0000 H   0  0  0  0  0  0  0  0  0  0  0  0
    5.1996   -0.8916    0.0000 H   0  0  0  0  0  0  0  0  0  0  0  0
    2.7460   -0.5005    0.0000 H   0  0  0  0  0  0  0  0  0  0  0  0
    3.2460    0.3655    0.0000 H   0  0  0  0  0  0  0  0  0  0  0  0
    7.0010   -1.5565    0.0000 H   0  0  0  0  0  0  0  0  0  0  0  0
    5.3660    0.6115    0.0000 H   0  0  0  0  0  0  0  0  0  0  0  0
    5.9860    1.2315    0.0000 H   0  0  0  0  0  0  0  0  0  0  0  0
    5.3660    1.8515    0.0000 H   0  0  0  0  0  0  0  0  0  0  0  0
    3.2460    2.0976    0.0000 H   0  0  0  0  0  0  0  0  0  0  0  0
    4.1760    4.3665    0.0000 H   0  0  0  0  0  0  0  0  0  0  0  0
  1  7  1  0  0  0  0
  1 33  1  0  0  0  0
  2 12  2  0  0  0  0
  3 15  1  0  0  0  0
  3 35  1  0  0  0  0
  4 20  1  0  0  0  0
  4 40  1  0  0  0  0
  5 20  2  0  0  0  0
  6  7  1  0  0  0  0
  6  8  1  0  0  0  0
  6 10  1  0  0  0  0
  6 11  1  0  0  0  0
  7  9  1  0  0  0  0
  7 13  1  0  0  0  0
  8 12  1  0  0  0  0
  8 21  1  0  0  0  0
  8 22  1  0  0  0  0
  9 14  2  0  0  0  0
  9 15  1  0  0  0  0
 10 23  1  0  0  0  0
 10 24  1  0  0  0  0
 10 25  1  0  0  0  0
 11 26  1  0  0  0  0
 11 27  1  0  0  0  0
 11 28  1  0  0  0  0
 12 14  1  0  0  0  0
 13 16  2  0  0  0  0
 13 29  1  0  0  0  0
 14 30  1  0  0  0  0
 15 31  1  0  0  0  0
 15 32  1  0  0  0  0
 16 17  1  0  0  0  0
 16 34  1  0  0  0  0
 17 18  1  0  0  0  0
 17 19  2  0  0  0  0
 18 36  1  0  0  0  0
 18 37  1  0  0  0  0
 18 38  1  0  0  0  0
 19 20  1  0  0  0  0
 19 39  1  0  0  0  0
M  END
>  <PUBCHEM_COMPOUND_CID>
131751913

>  <PUBCHEM_COMPOUND_CANONICALIZED>
1

>  <PUBCHEM_CACTVS_COMPLEXITY>
510

>  <PUBCHEM_CACTVS_HBOND_ACCEPTOR>
5

>  <PUBCHEM_CACTVS_HBOND_DONOR>
3

>  <PUBCHEM_CACTVS_ROTATABLE_BOND>
4

>  <PUBCHEM_CACTVS_SUBSKEYS>
AAADceBwOAAAAAAAAAAAAAAAAAAAAAAAAAAgAAAAAAAAAAAAAAAAGgAACAAADkSggAICCAAAAgCIAqDSCAAAAAAgAAAICAEAAEgIFBIAAQAAUAAFgAAIkQOKyCAPgAAAAAAAAAAAAAAAAAAAAAAAAAAAAA==

>  <PUBCHEM_IUPAC_OPENEYE_NAME>
(2E,4E)-5-[1-hydroxy-2-(hydroxymethyl)-6,6-dimethyl-4-oxo-cyclohex-2-en-1-yl]-3-methyl-penta-2,4-dienoic acid

>  <PUBCHEM_IUPAC_CAS_NAME>
(2E,4E)-5-[1-hydroxy-2-(hydroxymethyl)-6,6-dimethyl-4-oxo-1-cyclohex-2-enyl]-3-methylpenta-2,4-dienoic acid

>  <PUBCHEM_IUPAC_NAME>
(2E,4E)-5-[1-hydroxy-2-(hydroxymethyl)-6,6-dimethyl-4-oxocyclohex-2-en-1-yl]-3-methylpenta-2,4-dienoic acid

>  <PUBCHEM_IUPAC_SYSTEMATIC_NAME>
(2E,4E)-5-[2-(hydroxymethyl)-6,6-dimethyl-1-oxidanyl-4-oxidanylidene-cyclohex-2-en-1-yl]-3-methyl-penta-2,4-dienoic acid

>  <PUBCHEM_IUPAC_TRADITIONAL_NAME>
(2E,4E)-5-(1-hydroxy-4-keto-6,6-dimethyl-2-methylol-cyclohex-2-en-1-yl)-3-methyl-penta-2,4-dienoic acid

>  <PUBCHEM_IUPAC_INCHI>
InChI=1S/C15H20O5/c1-10(6-13(18)19)4-5-15(20)11(9-16)7-12(17)8-14(15,2)3/h4-7,16,20H,8-9H2,1-3H3,(H,18,19)/b5-4+,10-6+

>  <PUBCHEM_IUPAC_INCHIKEY>
ZGHRCSAIMSBFLK-UMCKCUICSA-N

>  <PUBCHEM_EXACT_MASS>
280.131

>  <PUBCHEM_MOLECULAR_FORMULA>
C15H20O5

>  <PUBCHEM_MOLECULAR_WEIGHT>
280.32

>  <PUBCHEM_OPENEYE_CAN_SMILES>
CC(=CC(=O)O)C=CC1(C(=CC(=O)CC1(C)C)CO)O

>  <PUBCHEM_OPENEYE_ISO_SMILES>
C/C(=C\C(=O)O)/C=C/C1(C(=CC(=O)CC1(C)C)CO)O

>  <PUBCHEM_CACTVS_TPSA>
94.8

>  <PUBCHEM_MONOISOTOPIC_WEIGHT>
280.131

>  <PUBCHEM_TOTAL_CHARGE>
0

>  <PUBCHEM_HEAVY_ATOM_COUNT>
20

>  <PUBCHEM_ATOM_DEF_STEREO_COUNT>
0

>  <PUBCHEM_ATOM_UDEF_STEREO_COUNT>
1

>  <PUBCHEM_BOND_DEF_STEREO_COUNT>
2

>  <PUBCHEM_BOND_UDEF_STEREO_COUNT>
0

>  <PUBCHEM_ISOTOPIC_ATOM_COUNT>
0

>  <PUBCHEM_COMPONENT_COUNT>
1

>  <PUBCHEM_CACTVS_TAUTO_COUNT>
2

>  <PUBCHEM_COORDINATE_TYPE>
1
5
255

>  <PUBCHEM_BONDANNOTATIONS>
7  1  3

$$$$
