131752777
 OpenBabel06101807152D

104112  0  0  1  0  0  0  0  0999 V2000
    8.8083   -1.0118    0.0000 O   0  0  0  0  0  0  0  0  0  0  0  0
   12.0134    1.8554    0.0000 O   0  0  0  0  0  0  0  0  0  0  0  0
    6.8671    1.9600    0.0000 O   0  0  0  0  0  0  0  0  0  0  0  0
    5.1350    1.9600    0.0000 O   0  0  0  0  0  0  0  0  0  0  0  0
    6.8671   -0.0400    0.0000 O   0  0  0  0  0  0  0  0  0  0  0  0
    5.1350   -1.0400    0.0000 O   0  0  0  0  0  0  0  0  0  0  0  0
    3.4030   -0.0400    0.0000 O   0  0  0  0  0  0  0  0  0  0  0  0
   12.0910    5.4043    0.0000 O   0  0  0  0  0  0  0  0  0  0  0  0
    2.5369    1.4600    0.0000 O   0  0  0  0  0  0  0  0  0  0  0  0
   13.4949   -1.2832    0.0000 O   0  0  0  0  0  0  0  0  0  0  0  0
   12.7805    2.1064    0.0000 O   0  0  0  0  0  0  0  0  0  0  0  0
   12.0534   -2.6686    0.0000 O   0  0  0  0  0  0  0  0  0  0  0  0
    9.7970   -5.1148    0.0000 O   0  0  0  0  0  0  0  0  0  0  0  0
    4.6239    4.2899    0.0000 O   0  0  0  0  0  0  0  0  0  0  0  0
   10.4048    1.8021    0.0000 C   0  0  3  0  0  0  0  0  0  0  0  0
   10.2022   -0.2070    0.0000 C   0  0  3  0  0  0  0  0  0  0  0  0
    9.4651    0.4600    0.0000 C   0  0  0  0  0  0  0  0  0  0  0  0
    9.4651    1.4600    0.0000 C   0  0  0  0  0  0  0  0  0  0  0  0
   11.2285    1.2455    0.0000 C   0  0  3  0  0  0  0  0  0  0  0  0
    9.7970   -1.1148    0.0000 C   0  0  3  0  0  0  0  0  0  0  0  0
   10.6780    2.7579    0.0000 C   0  0  0  0  0  0  0  0  0  0  0  0
    8.5991   -0.0400    0.0000 C   0  0  0  0  0  0  0  0  0  0  0  0
    8.5991    1.9600    0.0000 C   0  0  0  0  0  0  0  0  0  0  0  0
   11.1807   -0.0008    0.0000 C   0  0  0  0  0  0  0  0  0  0  0  0
   11.6775    2.7910    0.0000 C   0  0  0  0  0  0  0  0  0  0  0  0
    7.7331    1.4600    0.0000 C   0  0  0  0  0  0  0  0  0  0  0  0
    7.7331    0.4600    0.0000 C   0  0  0  0  0  0  0  0  0  0  0  0
   11.4347    0.2670    0.0000 C   0  0  0  0  0  0  0  0  0  0  0  0
    9.7970   -2.1148    0.0000 C   0  0  0  0  0  0  0  0  0  0  0  0
    6.0010    1.4600    0.0000 C   0  0  3  0  0  0  0  0  0  0  0  0
   10.1496    3.6068    0.0000 C   0  0  0  0  0  0  0  0  0  0  0  0
    6.0010    0.4600    0.0000 C   0  0  3  0  0  0  0  0  0  0  0  0
    5.1350   -0.0400    0.0000 C   0  0  3  0  0  0  0  0  0  0  0  0
    4.2690    0.4600    0.0000 C   0  0  3  0  0  0  0  0  0  0  0  0
    4.2690    1.4600    0.0000 C   0  0  3  0  0  0  0  0  0  0  0  0
   12.1485    3.6732    0.0000 C   0  0  0  0  0  0  0  0  0  0  0  0
   11.4913    0.9497    0.0000 C   0  0  0  0  0  0  0  0  0  0  0  0
   11.8485   -0.7451    0.0000 C   0  0  0  0  0  0  0  0  0  0  0  0
   10.6206    4.4890    0.0000 C   0  0  0  0  0  0  0  0  0  0  0  0
   12.3852   -0.0437    0.0000 C   0  0  0  0  0  0  0  0  0  0  0  0
   10.6904   -0.4009    0.0000 C   0  0  0  0  0  0  0  0  0  0  0  0
   10.6631   -2.6148    0.0000 C   0  0  0  0  0  0  0  0  0  0  0  0
    8.9311   -2.6149    0.0000 C   0  0  0  0  0  0  0  0  0  0  0  0
   11.6200    4.5221    0.0000 C   0  0  0  0  0  0  0  0  0  0  0  0
    3.4030    1.9600    0.0000 C   0  0  0  0  0  0  0  0  0  0  0  0
    9.1501    3.5737    0.0000 C   0  0  0  0  0  0  0  0  0  0  0  0
   12.8270   -0.5389    0.0000 C   0  0  0  0  0  0  0  0  0  0  0  0
   12.4698    1.1559    0.0000 C   0  0  0  0  0  0  0  0  0  0  0  0
   12.5914   -1.0222    0.0000 C   0  0  0  0  0  0  0  0  0  0  0  0
   10.8967   -1.3794    0.0000 C   0  0  0  0  0  0  0  0  0  0  0  0
   10.6631   -3.6148    0.0000 C   0  0  0  0  0  0  0  0  0  0  0  0
    8.9310   -3.6148    0.0000 C   0  0  0  0  0  0  0  0  0  0  0  0
   13.1377    0.4116    0.0000 C   0  0  0  0  0  0  0  0  0  0  0  0
   11.8471   -1.6900    0.0000 C   0  0  0  0  0  0  0  0  0  0  0  0
    9.7970   -4.1148    0.0000 C   0  0  0  0  0  0  0  0  0  0  0  0
    8.6217    4.4226    0.0000 C   0  0  0  0  0  0  0  0  0  0  0  0
    7.6222    4.3894    0.0000 C   0  0  0  0  0  0  0  0  0  0  0  0
    7.0938    5.2384    0.0000 C   0  0  0  0  0  0  0  0  0  0  0  0
    7.1512    3.5073    0.0000 C   0  0  0  0  0  0  0  0  0  0  0  0
    6.0943    5.2053    0.0000 C   0  0  0  0  0  0  0  0  0  0  0  0
    6.1518    3.4742    0.0000 C   0  0  0  0  0  0  0  0  0  0  0  0
    5.6233    4.3231    0.0000 C   0  0  0  0  0  0  0  0  0  0  0  0
   10.3290    1.1867    0.0000 H   0  0  0  0  0  0  0  0  0  0  0  0
   10.5917   -0.6894    0.0000 H   0  0  0  0  0  0  0  0  0  0  0  0
   10.7140    0.8994    0.0000 H   0  0  0  0  0  0  0  0  0  0  0  0
   10.4034   -1.2440    0.0000 H   0  0  0  0  0  0  0  0  0  0  0  0
    8.5991    2.5800    0.0000 H   0  0  0  0  0  0  0  0  0  0  0  0
    7.1962    0.1500    0.0000 H   0  0  0  0  0  0  0  0  0  0  0  0
    6.0010    2.0800    0.0000 H   0  0  0  0  0  0  0  0  0  0  0  0
    6.0010   -0.1600    0.0000 H   0  0  0  0  0  0  0  0  0  0  0  0
    4.5981   -0.3500    0.0000 H   0  0  0  0  0  0  0  0  0  0  0  0
    4.2690   -0.1600    0.0000 H   0  0  0  0  0  0  0  0  0  0  0  0
    4.2690    2.0800    0.0000 H   0  0  0  0  0  0  0  0  0  0  0  0
   12.7681    3.6937    0.0000 H   0  0  0  0  0  0  0  0  0  0  0  0
   11.0773    1.4112    0.0000 H   0  0  0  0  0  0  0  0  0  0  0  0
   11.6559   -1.3344    0.0000 H   0  0  0  0  0  0  0  0  0  0  0  0
   10.2929    5.0153    0.0000 H   0  0  0  0  0  0  0  0  0  0  0  0
   12.8467    0.3704    0.0000 H   0  0  0  0  0  0  0  0  0  0  0  0
   10.1011   -0.2083    0.0000 H   0  0  0  0  0  0  0  0  0  0  0  0
   11.2000   -2.3048    0.0000 H   0  0  0  0  0  0  0  0  0  0  0  0
    8.3942   -2.3049    0.0000 H   0  0  0  0  0  0  0  0  0  0  0  0
    3.8015    2.4350    0.0000 H   0  0  0  0  0  0  0  0  0  0  0  0
    3.0044    2.4350    0.0000 H   0  0  0  0  0  0  0  0  0  0  0  0
    8.8581    3.0267    0.0000 H   0  0  0  0  0  0  0  0  0  0  0  0
    6.8671   -0.6600    0.0000 H   0  0  0  0  0  0  0  0  0  0  0  0
    4.5981   -1.3500    0.0000 H   0  0  0  0  0  0  0  0  0  0  0  0
    3.4030   -0.6600    0.0000 H   0  0  0  0  0  0  0  0  0  0  0  0
   13.1808   -1.2148    0.0000 H   0  0  0  0  0  0  0  0  0  0  0  0
   10.4352   -1.7935    0.0000 H   0  0  0  0  0  0  0  0  0  0  0  0
   11.2000   -3.9248    0.0000 H   0  0  0  0  0  0  0  0  0  0  0  0
    8.3941   -3.9248    0.0000 H   0  0  0  0  0  0  0  0  0  0  0  0
   13.7443    0.5395    0.0000 H   0  0  0  0  0  0  0  0  0  0  0  0
    8.9137    4.9696    0.0000 H   0  0  0  0  0  0  0  0  0  0  0  0
   12.7107    5.4248    0.0000 H   0  0  0  0  0  0  0  0  0  0  0  0
    2.0000    1.7700    0.0000 H   0  0  0  0  0  0  0  0  0  0  0  0
   14.1015   -1.1554    0.0000 H   0  0  0  0  0  0  0  0  0  0  0  0
   13.3872    2.2343    0.0000 H   0  0  0  0  0  0  0  0  0  0  0  0
   12.6427   -2.8612    0.0000 H   0  0  0  0  0  0  0  0  0  0  0  0
    9.2601   -5.4248    0.0000 H   0  0  0  0  0  0  0  0  0  0  0  0
    7.3858    5.7853    0.0000 H   0  0  0  0  0  0  0  0  0  0  0  0
    7.4788    2.9810    0.0000 H   0  0  0  0  0  0  0  0  0  0  0  0
    5.7667    5.7316    0.0000 H   0  0  0  0  0  0  0  0  0  0  0  0
    5.8597    2.9272    0.0000 H   0  0  0  0  0  0  0  0  0  0  0  0
    4.2962    4.8163    0.0000 H   0  0  0  0  0  0  0  0  0  0  0  0
  1 20  1  0  0  0  0
  1 22  1  0  0  0  0
  2 19  1  0  0  0  0
  2 25  1  0  0  0  0
  3 26  1  0  0  0  0
  3 30  1  0  0  0  0
  4 30  1  0  0  0  0
  4 35  1  0  0  0  0
  5 32  1  0  0  0  0
  5 85  1  0  0  0  0
  6 33  1  0  0  0  0
  6 86  1  0  0  0  0
  7 34  1  0  0  0  0
  7 87  1  0  0  0  0
  8 44  1  0  0  0  0
  8 94  1  0  0  0  0
  9 45  1  0  0  0  0
  9 95  1  0  0  0  0
 10 47  1  0  0  0  0
 10 96  1  0  0  0  0
 11 48  1  0  0  0  0
 11 97  1  0  0  0  0
 12 54  1  0  0  0  0
 12 98  1  0  0  0  0
 13 55  1  0  0  0  0
 13 99  1  0  0  0  0
 14 62  1  0  0  0  0
 14104  1  0  0  0  0
 15 18  1  0  0  0  0
 15 19  1  0  0  0  0
 15 21  1  0  0  0  0
 15 63  1  0  0  0  0
 16 17  1  0  0  0  0
 16 20  1  0  0  0  0
 16 24  1  0  0  0  0
 16 64  1  0  0  0  0
 17 18  2  0  0  0  0
 17 22  1  0  0  0  0
 18 23  1  0  0  0  0
 19 28  1  0  0  0  0
 19 65  1  0  0  0  0
 20 29  1  0  0  0  0
 20 66  1  0  0  0  0
 21 25  1  0  0  0  0
 21 31  2  0  0  0  0
 22 27  2  0  0  0  0
 23 26  2  0  0  0  0
 23 67  1  0  0  0  0
 24 37  2  0  0  0  0
 24 38  1  0  0  0  0
 25 36  2  0  0  0  0
 26 27  1  0  0  0  0
 27 68  1  0  0  0  0
 28 40  2  0  0  0  0
 28 41  1  0  0  0  0
 29 42  2  0  0  0  0
 29 43  1  0  0  0  0
 30 32  1  0  0  0  0
 30 69  1  0  0  0  0
 31 39  1  0  0  0  0
 31 46  1  0  0  0  0
 32 33  1  0  0  0  0
 32 70  1  0  0  0  0
 33 34  1  0  0  0  0
 33 71  1  0  0  0  0
 34 35  1  0  0  0  0
 34 72  1  0  0  0  0
 35 45  1  0  0  0  0
 35 73  1  0  0  0  0
 36 44  1  0  0  0  0
 36 74  1  0  0  0  0
 37 48  1  0  0  0  0
 37 75  1  0  0  0  0
 38 47  2  0  0  0  0
 38 76  1  0  0  0  0
 39 44  2  0  0  0  0
 39 77  1  0  0  0  0
 40 49  1  0  0  0  0
 40 78  1  0  0  0  0
 41 50  2  0  0  0  0
 41 79  1  0  0  0  0
 42 51  1  0  0  0  0
 42 80  1  0  0  0  0
 43 52  2  0  0  0  0
 43 81  1  0  0  0  0
 45 82  1  0  0  0  0
 45 83  1  0  0  0  0
 46 56  2  0  0  0  0
 46 84  1  0  0  0  0
 47 53  1  0  0  0  0
 48 53  2  0  0  0  0
 49 54  2  0  0  0  0
 49 88  1  0  0  0  0
 50 54  1  0  0  0  0
 50 89  1  0  0  0  0
 51 55  2  0  0  0  0
 51 90  1  0  0  0  0
 52 55  1  0  0  0  0
 52 91  1  0  0  0  0
 53 92  1  0  0  0  0
 56 57  1  0  0  0  0
 56 93  1  0  0  0  0
 57 58  2  0  0  0  0
 57 59  1  0  0  0  0
 58 60  1  0  0  0  0
 58100  1  0  0  0  0
 59 61  2  0  0  0  0
 59101  1  0  0  0  0
 60 62  2  0  0  0  0
 60102  1  0  0  0  0
 61 62  1  0  0  0  0
 61103  1  0  0  0  0
M  END
>  <PUBCHEM_COMPOUND_CID>
131752777

>  <PUBCHEM_COMPOUND_CANONICALIZED>
1

>  <PUBCHEM_CACTVS_COMPLEXITY>
1450

>  <PUBCHEM_CACTVS_HBOND_ACCEPTOR>
14

>  <PUBCHEM_CACTVS_HBOND_DONOR>
10

>  <PUBCHEM_CACTVS_ROTATABLE_BOND>
9

>  <PUBCHEM_CACTVS_SUBSKEYS>
AAADcfB8PAAAAAAAAAAAAAAAAAAAASJAAAA0YMGDAAAAAEgBVAAAGgAACAAADRSwmAMwDoAABgCAAiBCAAACCAAgIAAIiAAGCIgdNyKGMRqieCClwBUPuAfA4PwOoAABCAAYAABAAAIQADAAAAAAAAAAAA==

>  <PUBCHEM_IUPAC_OPENEYE_NAME>
2-[[3-(3,5-dihydroxyphenyl)-4-[6-hydroxy-2-(4-hydroxyphenyl)-4-[(E)-2-(4-hydroxyphenyl)vinyl]-2,3-dihydrobenzofuran-3-yl]-2-(4-hydroxyphenyl)-2,3-dihydrobenzofuran-6-yl]oxy]-6-(hydroxymethyl)tetrahydropyran-3,4,5-triol

>  <PUBCHEM_IUPAC_CAS_NAME>
2-[[3-(3,5-dihydroxyphenyl)-4-[6-hydroxy-2-(4-hydroxyphenyl)-4-[(E)-2-(4-hydroxyphenyl)ethenyl]-2,3-dihydrobenzofuran-3-yl]-2-(4-hydroxyphenyl)-2,3-dihydrobenzofuran-6-yl]oxy]-6-(hydroxymethyl)oxane-3,4,5-triol

>  <PUBCHEM_IUPAC_NAME>
2-[[3-(3,5-dihydroxyphenyl)-4-[6-hydroxy-2-(4-hydroxyphenyl)-4-[(E)-2-(4-hydroxyphenyl)ethenyl]-2,3-dihydro-1-benzofuran-3-yl]-2-(4-hydroxyphenyl)-2,3-dihydro-1-benzofuran-6-yl]oxy]-6-(hydroxymethyl)oxane-3,4,5-triol

>  <PUBCHEM_IUPAC_SYSTEMATIC_NAME>
2-[[3-[3,5-bis(oxidanyl)phenyl]-2-(4-hydroxyphenyl)-4-[2-(4-hydroxyphenyl)-4-[(E)-2-(4-hydroxyphenyl)ethenyl]-6-oxidanyl-2,3-dihydro-1-benzofuran-3-yl]-2,3-dihydro-1-benzofuran-6-yl]oxy]-6-(hydroxymethyl)oxane-3,4,5-triol

>  <PUBCHEM_IUPAC_TRADITIONAL_NAME>
2-[3-(3,5-dihydroxyphenyl)-4-[6-hydroxy-2-(4-hydroxyphenyl)-4-[(E)-2-(4-hydroxyphenyl)vinyl]coumaran-3-yl]-2-(4-hydroxyphenyl)coumaran-6-yl]oxy-6-methylol-tetrahydropyran-3,4,5-triol

>  <PUBCHEM_IUPAC_INCHI>
InChI=1S/C48H42O14/c49-22-38-43(56)44(57)45(58)48(62-38)59-34-20-35(41-37(21-34)61-46(24-5-11-29(51)12-6-24)40(41)27-16-31(53)18-32(54)17-27)42-39-26(4-1-23-2-9-28(50)10-3-23)15-33(55)19-36(39)60-47(42)25-7-13-30(52)14-8-25/h1-21,38,40,42-58H,22H2/b4-1+

>  <PUBCHEM_IUPAC_INCHIKEY>
LIMXEMROHIJDBW-DAFODLJHSA-N

>  <PUBCHEM_EXACT_MASS>
842.257

>  <PUBCHEM_MOLECULAR_FORMULA>
C48H42O14

>  <PUBCHEM_MOLECULAR_WEIGHT>
842.85

>  <PUBCHEM_OPENEYE_CAN_SMILES>
C1=CC(=CC=C1C=CC2=CC(=CC3=C2C(C(O3)C4=CC=C(C=C4)O)C5=CC(=CC6=C5C(C(O6)C7=CC=C(C=C7)O)C8=CC(=CC(=C8)O)O)OC9C(C(C(C(O9)CO)O)O)O)O)O

>  <PUBCHEM_OPENEYE_ISO_SMILES>
C1=CC(=CC=C1/C=C/C2=CC(=CC3=C2C(C(O3)C4=CC=C(C=C4)O)C5=CC(=CC6=C5C(C(O6)C7=CC=C(C=C7)O)C8=CC(=CC(=C8)O)O)OC9C(C(C(C(O9)CO)O)O)O)O)O

>  <PUBCHEM_CACTVS_TPSA>
239

>  <PUBCHEM_MONOISOTOPIC_WEIGHT>
842.257

>  <PUBCHEM_TOTAL_CHARGE>
0

>  <PUBCHEM_HEAVY_ATOM_COUNT>
62

>  <PUBCHEM_ATOM_DEF_STEREO_COUNT>
0

>  <PUBCHEM_ATOM_UDEF_STEREO_COUNT>
9

>  <PUBCHEM_BOND_DEF_STEREO_COUNT>
1

>  <PUBCHEM_BOND_UDEF_STEREO_COUNT>
0

>  <PUBCHEM_ISOTOPIC_ATOM_COUNT>
0

>  <PUBCHEM_COMPONENT_COUNT>
1

>  <PUBCHEM_CACTVS_TAUTO_COUNT>
998

>  <PUBCHEM_COORDINATE_TYPE>
1
5
255

>  <PUBCHEM_BONDANNOTATIONS>
15  18  3
16  24  3
17  18  8
17  22  8
18  23  8
19  28  3
20  29  3
21  25  8
21  31  8
22  27  8
23  26  8
24  37  8
24  38  8
25  36  8
26  27  8
28  40  8
28  41  8
29  42  8
29  43  8
30  3  3
31  39  8
35  45  3
36  44  8
37  48  8
38  47  8
39  44  8
40  49  8
41  50  8
42  51  8
43  52  8
47  53  8
48  53  8
49  54  8
32  5  3
50  54  8
51  55  8
52  55  8
57  58  8
57  59  8
58  60  8
59  61  8
33  6  3
60  62  8
61  62  8
34  7  3

$$$$
