131752835
 OpenBabel06101807152D

111117  0  0  1  0  0  0  0  0999 V2000
   11.1972   -3.6913    0.0000 O   0  0  0  0  0  0  0  0  0  0  0  0
   10.3312   -5.1913    0.0000 O   0  0  0  0  0  0  0  0  0  0  0  0
    9.4651   -1.6913    0.0000 O   0  0  0  0  0  0  0  0  0  0  0  0
   11.1972   -1.6913    0.0000 O   0  0  0  0  0  0  0  0  0  0  0  0
    9.4651   -4.6913    0.0000 O   0  0  0  0  0  0  0  0  0  0  0  0
   12.9292   -4.6913    0.0000 O   0  0  0  0  0  0  0  0  0  0  0  0
    7.7331   -3.6913    0.0000 O   0  0  0  0  0  0  0  0  0  0  0  0
   12.9292   -6.6913    0.0000 O   0  0  0  0  0  0  0  0  0  0  0  0
   11.1972   -7.6913    0.0000 O   0  0  0  0  0  0  0  0  0  0  0  0
    9.4588    5.3813    0.0000 O   0  0  0  0  0  0  0  0  0  0  0  0
    8.5991   -6.1913    0.0000 O   0  0  0  0  0  0  0  0  0  0  0  0
   10.3191    3.8780    0.0000 O   0  0  0  0  0  0  0  0  0  0  0  0
    6.8550    3.8913    0.0000 O   0  0  0  0  0  0  0  0  0  0  0  0
    6.8627    5.8913    0.0000 O   0  0  0  0  0  0  0  0  0  0  0  0
    8.5832    2.8847    0.0000 O   0  0  0  0  0  0  0  0  0  0  0  0
   12.0632    0.8087    0.0000 O   0  0  0  0  0  0  0  0  0  0  0  0
    9.4665    7.3813    0.0000 O   0  0  0  0  0  0  0  0  0  0  0  0
    9.4651   -0.6913    0.0000 O   0  0  0  0  0  0  0  0  0  0  0  0
    8.5610    0.8056    0.0000 O   0  0  0  0  0  0  0  0  0  0  0  0
    7.7331   -7.6913    0.0000 O   0  0  0  0  0  0  0  0  0  0  0  0
   15.5273   -0.1913    0.0000 O   0  0  0  0  0  0  0  0  0  0  0  0
   15.5273   -2.1913    0.0000 O   0  0  0  0  0  0  0  0  0  0  0  0
    2.5369   -4.6913    0.0000 O   0  0  0  0  0  0  0  0  0  0  0  0
   10.3312   -3.1913    0.0000 C   0  0  3  0  0  0  0  0  0  0  0  0
    9.4651   -3.6913    0.0000 C   0  0  3  0  0  0  0  0  0  0  0  0
   11.1972   -4.6913    0.0000 C   0  0  3  0  0  0  0  0  0  0  0  0
   12.0632   -5.1913    0.0000 C   0  0  3  0  0  0  0  0  0  0  0  0
    8.5991   -3.1913    0.0000 C   0  0  3  0  0  0  0  0  0  0  0  0
   12.0632   -6.1913    0.0000 C   0  0  3  0  0  0  0  0  0  0  0  0
   10.3312   -2.1913    0.0000 C   0  0  3  0  0  0  0  0  0  0  0  0
   11.1972   -6.6913    0.0000 C   0  0  3  0  0  0  0  0  0  0  0  0
    8.5991   -2.1913    0.0000 C   0  0  3  0  0  0  0  0  0  0  0  0
   10.3312   -6.1913    0.0000 C   0  0  3  0  0  0  0  0  0  0  0  0
    9.4651   -6.6913    0.0000 C   0  0  0  0  0  0  0  0  0  0  0  0
    7.7331   -1.6913    0.0000 C   0  0  0  0  0  0  0  0  0  0  0  0
    7.7229    4.3880    0.0000 C   0  0  3  0  0  0  0  0  0  0  0  0
    7.7268    5.3880    0.0000 C   0  0  3  0  0  0  0  0  0  0  0  0
    8.5870    3.8846    0.0000 C   0  0  3  0  0  0  0  0  0  0  0  0
    8.5947    5.8846    0.0000 C   0  0  3  0  0  0  0  0  0  0  0  0
    9.4550    4.3813    0.0000 C   0  0  3  0  0  0  0  0  0  0  0  0
   11.1972   -0.6913    0.0000 C   0  0  0  0  0  0  0  0  0  0  0  0
    8.5986    6.8846    0.0000 C   0  0  0  0  0  0  0  0  0  0  0  0
   12.0632   -0.1913    0.0000 C   0  0  0  0  0  0  0  0  0  0  0  0
   10.3312   -0.1913    0.0000 C   0  0  0  0  0  0  0  0  0  0  0  0
   10.3312    0.8087    0.0000 C   0  0  0  0  0  0  0  0  0  0  0  0
   11.1972    1.3087    0.0000 C   0  0  0  0  0  0  0  0  0  0  0  0
   10.3152    2.8780    0.0000 C   0  0  0  0  0  0  0  0  0  0  0  0
    7.7331   -6.6913    0.0000 C   0  0  0  0  0  0  0  0  0  0  0  0
   11.2132    2.3502    0.0000 C   0  0  0  0  0  0  0  0  0  0  0  0
   12.9292   -0.6913    0.0000 C   0  0  0  0  0  0  0  0  0  0  0  0
    9.4212    1.3156    0.0000 C   0  0  0  0  0  0  0  0  0  0  0  0
    9.4131    2.3572    0.0000 C   0  0  0  0  0  0  0  0  0  0  0  0
    6.8671   -6.1913    0.0000 C   0  0  0  0  0  0  0  0  0  0  0  0
   13.7953   -0.1913    0.0000 C   0  0  0  0  0  0  0  0  0  0  0  0
   12.9292   -1.6913    0.0000 C   0  0  0  0  0  0  0  0  0  0  0  0
   14.6613   -0.6913    0.0000 C   0  0  0  0  0  0  0  0  0  0  0  0
   13.7953   -2.1913    0.0000 C   0  0  0  0  0  0  0  0  0  0  0  0
    6.0010   -6.6913    0.0000 C   0  0  0  0  0  0  0  0  0  0  0  0
   14.6613   -1.6913    0.0000 C   0  0  0  0  0  0  0  0  0  0  0  0
    5.1350   -6.1913    0.0000 C   0  0  0  0  0  0  0  0  0  0  0  0
    5.1350   -5.1913    0.0000 C   0  0  0  0  0  0  0  0  0  0  0  0
    4.2690   -6.6913    0.0000 C   0  0  0  0  0  0  0  0  0  0  0  0
    4.2690   -4.6913    0.0000 C   0  0  0  0  0  0  0  0  0  0  0  0
    3.4030   -6.1913    0.0000 C   0  0  0  0  0  0  0  0  0  0  0  0
    3.4030   -5.1913    0.0000 C   0  0  0  0  0  0  0  0  0  0  0  0
   10.3312   -3.8113    0.0000 H   0  0  0  0  0  0  0  0  0  0  0  0
    8.9282   -4.0013    0.0000 H   0  0  0  0  0  0  0  0  0  0  0  0
   10.6603   -4.3813    0.0000 H   0  0  0  0  0  0  0  0  0  0  0  0
   12.6002   -5.5013    0.0000 H   0  0  0  0  0  0  0  0  0  0  0  0
    8.5991   -3.8113    0.0000 H   0  0  0  0  0  0  0  0  0  0  0  0
   12.0632   -6.8113    0.0000 H   0  0  0  0  0  0  0  0  0  0  0  0
   10.8681   -2.5013    0.0000 H   0  0  0  0  0  0  0  0  0  0  0  0
   10.6603   -7.0013    0.0000 H   0  0  0  0  0  0  0  0  0  0  0  0
    8.5991   -1.5713    0.0000 H   0  0  0  0  0  0  0  0  0  0  0  0
    9.7942   -5.8813    0.0000 H   0  0  0  0  0  0  0  0  0  0  0  0
    9.0666   -7.1662    0.0000 H   0  0  0  0  0  0  0  0  0  0  0  0
    9.8637   -7.1662    0.0000 H   0  0  0  0  0  0  0  0  0  0  0  0
    8.0431   -1.1543    0.0000 H   0  0  0  0  0  0  0  0  0  0  0  0
    7.1962   -1.3813    0.0000 H   0  0  0  0  0  0  0  0  0  0  0  0
    7.4231   -2.2282    0.0000 H   0  0  0  0  0  0  0  0  0  0  0  0
    8.9282   -5.0013    0.0000 H   0  0  0  0  0  0  0  0  0  0  0  0
   13.4662   -5.0013    0.0000 H   0  0  0  0  0  0  0  0  0  0  0  0
    7.1962   -3.3813    0.0000 H   0  0  0  0  0  0  0  0  0  0  0  0
   12.9292   -7.3113    0.0000 H   0  0  0  0  0  0  0  0  0  0  0  0
    7.1872    4.7000    0.0000 H   0  0  0  0  0  0  0  0  0  0  0  0
   10.6603   -8.0013    0.0000 H   0  0  0  0  0  0  0  0  0  0  0  0
    7.7292    6.0080    0.0000 H   0  0  0  0  0  0  0  0  0  0  0  0
    8.0489    3.5767    0.0000 H   0  0  0  0  0  0  0  0  0  0  0  0
    9.1329    6.1926    0.0000 H   0  0  0  0  0  0  0  0  0  0  0  0
    9.4526    3.7613    0.0000 H   0  0  0  0  0  0  0  0  0  0  0  0
    8.3888    7.4680    0.0000 H   0  0  0  0  0  0  0  0  0  0  0  0
    7.9876    6.7793    0.0000 H   0  0  0  0  0  0  0  0  0  0  0  0
    6.3192    4.2034    0.0000 H   0  0  0  0  0  0  0  0  0  0  0  0
    6.8651    6.5113    0.0000 H   0  0  0  0  0  0  0  0  0  0  0  0
    8.0450    2.5767    0.0000 H   0  0  0  0  0  0  0  0  0  0  0  0
   11.7537    2.6540    0.0000 H   0  0  0  0  0  0  0  0  0  0  0  0
    8.8750    2.6651    0.0000 H   0  0  0  0  0  0  0  0  0  0  0  0
    9.4689    8.0013    0.0000 H   0  0  0  0  0  0  0  0  0  0  0  0
    6.8671   -5.5713    0.0000 H   0  0  0  0  0  0  0  0  0  0  0  0
   13.7953    0.4287    0.0000 H   0  0  0  0  0  0  0  0  0  0  0  0
   12.3923   -2.0013    0.0000 H   0  0  0  0  0  0  0  0  0  0  0  0
    8.0205    1.1094    0.0000 H   0  0  0  0  0  0  0  0  0  0  0  0
   13.7953   -2.8113    0.0000 H   0  0  0  0  0  0  0  0  0  0  0  0
    6.0010   -7.3113    0.0000 H   0  0  0  0  0  0  0  0  0  0  0  0
   15.5273    0.4287    0.0000 H   0  0  0  0  0  0  0  0  0  0  0  0
   16.0643   -1.8813    0.0000 H   0  0  0  0  0  0  0  0  0  0  0  0
    5.6720   -4.8813    0.0000 H   0  0  0  0  0  0  0  0  0  0  0  0
    4.2690   -7.3113    0.0000 H   0  0  0  0  0  0  0  0  0  0  0  0
    4.2690   -4.0713    0.0000 H   0  0  0  0  0  0  0  0  0  0  0  0
    2.8660   -6.5013    0.0000 H   0  0  0  0  0  0  0  0  0  0  0  0
    2.0000   -5.0013    0.0000 H   0  0  0  0  0  0  0  0  0  0  0  0
  1 24  1  0  0  0  0
  1 26  1  0  0  0  0
  2 26  1  0  0  0  0
  2 33  1  0  0  0  0
  3 30  1  0  0  0  0
  3 32  1  0  0  0  0
  4 30  1  0  0  0  0
  4 41  1  0  0  0  0
  5 25  1  0  0  0  0
  5 81  1  0  0  0  0
  6 27  1  0  0  0  0
  6 82  1  0  0  0  0
  7 28  1  0  0  0  0
  7 83  1  0  0  0  0
  8 29  1  0  0  0  0
  8 84  1  0  0  0  0
  9 31  1  0  0  0  0
  9 86  1  0  0  0  0
 10 39  1  0  0  0  0
 10 40  1  0  0  0  0
 11 34  1  0  0  0  0
 11 48  1  0  0  0  0
 12 40  1  0  0  0  0
 12 47  1  0  0  0  0
 13 36  1  0  0  0  0
 13 93  1  0  0  0  0
 14 37  1  0  0  0  0
 14 94  1  0  0  0  0
 15 38  1  0  0  0  0
 15 95  1  0  0  0  0
 16 43  1  0  0  0  0
 16 46  1  0  0  0  0
 17 42  1  0  0  0  0
 17 98  1  0  0  0  0
 18 44  2  0  0  0  0
 19 51  1  0  0  0  0
 19102  1  0  0  0  0
 20 48  2  0  0  0  0
 21 56  1  0  0  0  0
 21105  1  0  0  0  0
 22 59  1  0  0  0  0
 22106  1  0  0  0  0
 23 65  1  0  0  0  0
 23111  1  0  0  0  0
 24 25  1  0  0  0  0
 24 30  1  0  0  0  0
 24 66  1  0  0  0  0
 25 28  1  0  0  0  0
 25 67  1  0  0  0  0
 26 27  1  0  0  0  0
 26 68  1  0  0  0  0
 27 29  1  0  0  0  0
 27 69  1  0  0  0  0
 28 32  1  0  0  0  0
 28 70  1  0  0  0  0
 29 31  1  0  0  0  0
 29 71  1  0  0  0  0
 30 72  1  0  0  0  0
 31 33  1  0  0  0  0
 31 73  1  0  0  0  0
 32 35  1  0  0  0  0
 32 74  1  0  0  0  0
 33 34  1  0  0  0  0
 33 75  1  0  0  0  0
 34 76  1  0  0  0  0
 34 77  1  0  0  0  0
 35 78  1  0  0  0  0
 35 79  1  0  0  0  0
 35 80  1  0  0  0  0
 36 37  1  0  0  0  0
 36 38  1  0  0  0  0
 36 85  1  0  0  0  0
 37 39  1  0  0  0  0
 37 87  1  0  0  0  0
 38 40  1  0  0  0  0
 38 88  1  0  0  0  0
 39 42  1  0  0  0  0
 39 89  1  0  0  0  0
 40 90  1  0  0  0  0
 41 43  2  0  0  0  0
 41 44  1  0  0  0  0
 42 91  1  0  0  0  0
 42 92  1  0  0  0  0
 43 50  1  0  0  0  0
 44 45  1  0  0  0  0
 45 46  1  0  0  0  0
 45 51  2  0  0  0  0
 46 49  2  0  0  0  0
 47 49  1  0  0  0  0
 47 52  2  0  0  0  0
 48 53  1  0  0  0  0
 49 96  1  0  0  0  0
 50 54  2  0  0  0  0
 50 55  1  0  0  0  0
 51 52  1  0  0  0  0
 52 97  1  0  0  0  0
 53 58  2  0  0  0  0
 53 99  1  0  0  0  0
 54 56  1  0  0  0  0
 54100  1  0  0  0  0
 55 57  2  0  0  0  0
 55101  1  0  0  0  0
 56 59  2  0  0  0  0
 57 59  1  0  0  0  0
 57103  1  0  0  0  0
 58 60  1  0  0  0  0
 58104  1  0  0  0  0
 60 61  2  0  0  0  0
 60 62  1  0  0  0  0
 61 63  1  0  0  0  0
 61107  1  0  0  0  0
 62 64  2  0  0  0  0
 62108  1  0  0  0  0
 63 65  2  0  0  0  0
 63109  1  0  0  0  0
 64 65  1  0  0  0  0
 64110  1  0  0  0  0
M  END
>  <PUBCHEM_COMPOUND_CID>
131752835

>  <PUBCHEM_COMPOUND_CANONICALIZED>
1

>  <PUBCHEM_CACTVS_COMPLEXITY>
1670

>  <PUBCHEM_CACTVS_HBOND_ACCEPTOR>
23

>  <PUBCHEM_CACTVS_HBOND_DONOR>
13

>  <PUBCHEM_CACTVS_ROTATABLE_BOND>
13

>  <PUBCHEM_CACTVS_SUBSKEYS>
AAADcfB8PgAAAAAAAAAAAAAAAAAAAAAAAAA0aNECAAAAAACBUAAAGgAACAAADBSwmAMyDoAABgCIAqDSCAICCAAkIAAIiAFGiMgdNzaGNR6ieWGl4BUPuYfI7LzOIAABCAAIQABAAAIQABCAAAAAAAAAAA==

>  <PUBCHEM_IUPAC_OPENEYE_NAME>
[6-[2-[2-(3,4-dihydroxyphenyl)-5-hydroxy-4-oxo-7-[3,4,5-trihydroxy-6-(hydroxymethyl)tetrahydropyran-2-yl]oxy-chromen-3-yl]oxy-4,5-dihydroxy-6-methyl-tetrahydropyran-3-yl]oxy-3,4,5-trihydroxy-tetrahydropyran-2-yl]methyl (E)-3-(4-hydroxyphenyl)prop-2-enoate

>  <PUBCHEM_IUPAC_CAS_NAME>
(E)-3-(4-hydroxyphenyl)-2-propenoic acid [6-[[2-[[2-(3,4-dihydroxyphenyl)-5-hydroxy-4-oxo-7-[[3,4,5-trihydroxy-6-(hydroxymethyl)-2-oxanyl]oxy]-1-benzopyran-3-yl]oxy]-4,5-dihydroxy-6-methyl-3-oxanyl]oxy]-3,4,5-trihydroxy-2-oxanyl]methyl ester

>  <PUBCHEM_IUPAC_NAME>
[6-[2-[2-(3,4-dihydroxyphenyl)-5-hydroxy-4-oxo-7-[3,4,5-trihydroxy-6-(hydroxymethyl)oxan-2-yl]oxychromen-3-yl]oxy-4,5-dihydroxy-6-methyloxan-3-yl]oxy-3,4,5-trihydroxyoxan-2-yl]methyl (E)-3-(4-hydroxyphenyl)prop-2-enoate

>  <PUBCHEM_IUPAC_SYSTEMATIC_NAME>
[6-[2-[2-[3,4-bis(oxidanyl)phenyl]-7-[6-(hydroxymethyl)-3,4,5-tris(oxidanyl)oxan-2-yl]oxy-5-oxidanyl-4-oxidanylidene-chromen-3-yl]oxy-6-methyl-4,5-bis(oxidanyl)oxan-3-yl]oxy-3,4,5-tris(oxidanyl)oxan-2-yl]methyl (E)-3-(4-hydroxyphenyl)prop-2-enoate

>  <PUBCHEM_IUPAC_TRADITIONAL_NAME>
(E)-3-(4-hydroxyphenyl)acrylic acid [6-[2-[2-(3,4-dihydroxyphenyl)-5-hydroxy-4-keto-7-(3,4,5-trihydroxy-6-methylol-tetrahydropyran-2-yl)oxy-chromen-3-yl]oxy-4,5-dihydroxy-6-methyl-tetrahydropyran-3-yl]oxy-3,4,5-trihydroxy-tetrahydropyran-2-yl]methyl ester

>  <PUBCHEM_IUPAC_INCHI>
InChI=1S/C42H46O23/c1-15-28(49)34(55)39(65-41-36(57)33(54)30(51)25(63-41)14-58-26(48)9-4-16-2-6-18(44)7-3-16)42(59-15)64-38-31(52)27-22(47)11-19(60-40-35(56)32(53)29(50)24(13-43)62-40)12-23(27)61-37(38)17-5-8-20(45)21(46)10-17/h2-12,15,24-25,28-30,32-36,39-47,49-51,53-57H,13-14H2,1H3/b9-4+

>  <PUBCHEM_IUPAC_INCHIKEY>
SHRUKDVTMUBNTL-RUDMXATFSA-N

>  <PUBCHEM_EXACT_MASS>
918.243

>  <PUBCHEM_MOLECULAR_FORMULA>
C42H46O23

>  <PUBCHEM_MOLECULAR_WEIGHT>
918.807

>  <PUBCHEM_OPENEYE_CAN_SMILES>
CC1C(C(C(C(O1)OC2=C(OC3=CC(=CC(=C3C2=O)O)OC4C(C(C(C(O4)CO)O)O)O)C5=CC(=C(C=C5)O)O)OC6C(C(C(C(O6)COC(=O)C=CC7=CC=C(C=C7)O)O)O)O)O)O

>  <PUBCHEM_OPENEYE_ISO_SMILES>
CC1C(C(C(C(O1)OC2=C(OC3=CC(=CC(=C3C2=O)O)OC4C(C(C(C(O4)CO)O)O)O)C5=CC(=C(C=C5)O)O)OC6C(C(C(C(O6)COC(=O)/C=C/C7=CC=C(C=C7)O)O)O)O)O)O

>  <PUBCHEM_CACTVS_TPSA>
371

>  <PUBCHEM_MONOISOTOPIC_WEIGHT>
918.243

>  <PUBCHEM_TOTAL_CHARGE>
0

>  <PUBCHEM_HEAVY_ATOM_COUNT>
65

>  <PUBCHEM_ATOM_DEF_STEREO_COUNT>
0

>  <PUBCHEM_ATOM_UDEF_STEREO_COUNT>
15

>  <PUBCHEM_BOND_DEF_STEREO_COUNT>
1

>  <PUBCHEM_BOND_UDEF_STEREO_COUNT>
0

>  <PUBCHEM_ISOTOPIC_ATOM_COUNT>
0

>  <PUBCHEM_COMPONENT_COUNT>
1

>  <PUBCHEM_CACTVS_TAUTO_COUNT>
272

>  <PUBCHEM_COORDINATE_TYPE>
1
5
255

>  <PUBCHEM_BONDANNOTATIONS>
24  1  3
26  1  3
40  12  3
36  13  3
37  14  3
38  15  3
16  43  8
16  46  8
32  35  3
33  34  3
39  42  3
30  4  3
41  43  8
41  44  8
44  45  8
45  46  8
45  51  8
46  49  8
47  49  8
47  52  8
25  5  3
50  54  8
50  55  8
51  52  8
54  56  8
55  57  8
56  59  8
57  59  8
27  6  3
60  61  8
60  62  8
61  63  8
62  64  8
63  65  8
64  65  8
28  7  3
29  8  3
31  9  3

$$$$
