131752884
 OpenBabel06101807152D

101106  0  0  1  0  0  0  0  0999 V2000
   10.9848    0.8347    0.0000 O   0  0  0  0  0  0  0  0  0  0  0  0
    9.1654    1.8666    0.0000 O   0  0  0  0  0  0  0  0  0  0  0  0
    3.3248   -1.3769    0.0000 O   0  0  0  0  0  0  0  0  0  0  0  0
    3.8493   -5.3514    0.0000 O   0  0  0  0  0  0  0  0  0  0  0  0
    5.5813   -5.3647    0.0000 O   0  0  0  0  0  0  0  0  0  0  0  0
   10.1130    2.3314    0.0000 O   0  0  0  0  0  0  0  0  0  0  0  0
   15.3053    3.3514    0.0000 O   0  0  0  0  0  0  0  0  0  0  0  0
   15.2976    5.3514    0.0000 O   0  0  0  0  0  0  0  0  0  0  0  0
    7.3770   -2.3097    0.0000 C   0  0  3  0  0  0  0  0  0  0  0  0
    7.3770   -1.3097    0.0000 C   0  0  3  0  0  0  0  0  0  0  0  0
    8.2709   -0.7750    0.0000 C   0  0  3  0  0  0  0  0  0  0  0  0
    6.5109   -2.8097    0.0000 C   0  0  3  0  0  0  0  0  0  0  0  0
    9.1770   -1.2888    0.0000 C   0  0  3  0  0  0  0  0  0  0  0  0
    8.2709   -2.8443    0.0000 C   0  0  0  0  0  0  0  0  0  0  0  0
    5.6449   -2.3097    0.0000 C   0  0  0  0  0  0  0  0  0  0  0  0
    9.1770   -2.3305    0.0000 C   0  0  0  0  0  0  0  0  0  0  0  0
   10.1208   -0.7536    0.0000 C   0  0  0  0  0  0  0  0  0  0  0  0
    4.7349   -2.8165    0.0000 C   0  0  3  0  0  0  0  0  0  0  0  0
    6.5109   -0.8097    0.0000 C   0  0  0  0  0  0  0  0  0  0  0  0
    8.2458    0.3097    0.0000 C   0  0  0  0  0  0  0  0  0  0  0  0
    6.5270   -3.8512    0.0000 C   0  0  0  0  0  0  0  0  0  0  0  0
    4.7269   -3.8581    0.0000 C   0  0  3  0  0  0  0  0  0  0  0  0
    5.6290   -4.3789    0.0000 C   0  0  0  0  0  0  0  0  0  0  0  0
    7.7191   -3.2493    0.0000 C   0  0  0  0  0  0  0  0  0  0  0  0
   10.1208    0.3314    0.0000 C   0  0  3  0  0  0  0  0  0  0  0  0
    5.6449   -1.3097    0.0000 C   0  0  0  0  0  0  0  0  0  0  0  0
    9.1770    0.8666    0.0000 C   0  0  3  0  0  0  0  0  0  0  0  0
    7.4010   -0.2817    0.0000 C   0  0  0  0  0  0  0  0  0  0  0  0
    3.8081   -2.2524    0.0000 C   0  0  3  0  0  0  0  0  0  0  0  0
    7.1537   -3.5757    0.0000 C   0  0  0  0  0  0  0  0  0  0  0  0
    3.7914   -4.4078    0.0000 C   0  0  0  0  0  0  0  0  0  0  0  0
    2.8602   -2.7804    0.0000 C   0  0  3  0  0  0  0  0  0  0  0  0
   11.1207   -0.7575    0.0000 C   0  0  0  0  0  0  0  0  0  0  0  0
   10.6174   -1.6216    0.0000 C   0  0  0  0  0  0  0  0  0  0  0  0
    2.8518   -3.8653    0.0000 C   0  0  0  0  0  0  0  0  0  0  0  0
    4.7192   -4.8581    0.0000 C   0  0  0  0  0  0  0  0  0  0  0  0
    4.3247   -1.3962    0.0000 C   0  0  0  0  0  0  0  0  0  0  0  0
    2.0000   -2.2704    0.0000 C   0  0  0  0  0  0  0  0  0  0  0  0
   10.9810    1.8347    0.0000 C   0  0  0  0  0  0  0  0  0  0  0  0
   11.8451    2.3380    0.0000 C   0  0  0  0  0  0  0  0  0  0  0  0
   11.8412    3.3380    0.0000 C   0  0  0  0  0  0  0  0  0  0  0  0
   12.7053    3.8414    0.0000 C   0  0  0  0  0  0  0  0  0  0  0  0
   13.5733    3.3447    0.0000 C   0  0  0  0  0  0  0  0  0  0  0  0
   12.7015    4.8414    0.0000 C   0  0  0  0  0  0  0  0  0  0  0  0
   14.4374    3.8480    0.0000 C   0  0  0  0  0  0  0  0  0  0  0  0
   13.5656    5.3447    0.0000 C   0  0  0  0  0  0  0  0  0  0  0  0
   14.4335    4.8480    0.0000 C   0  0  0  0  0  0  0  0  0  0  0  0
    7.9163   -1.6155    0.0000 H   0  0  0  0  0  0  0  0  0  0  0  0
    9.7127   -1.6009    0.0000 H   0  0  0  0  0  0  0  0  0  0  0  0
    7.8663   -3.3141    0.0000 H   0  0  0  0  0  0  0  0  0  0  0  0
    8.6645   -3.3233    0.0000 H   0  0  0  0  0  0  0  0  0  0  0  0
    9.3860   -2.9142    0.0000 H   0  0  0  0  0  0  0  0  0  0  0  0
    9.7878   -2.2244    0.0000 H   0  0  0  0  0  0  0  0  0  0  0  0
    4.7469   -2.1966    0.0000 H   0  0  0  0  0  0  0  0  0  0  0  0
    6.9095   -0.3347    0.0000 H   0  0  0  0  0  0  0  0  0  0  0  0
    6.1124   -0.3347    0.0000 H   0  0  0  0  0  0  0  0  0  0  0  0
    8.0233    0.8884    0.0000 H   0  0  0  0  0  0  0  0  0  0  0  0
    7.6376    0.1895    0.0000 H   0  0  0  0  0  0  0  0  0  0  0  0
    6.7450   -4.4316    0.0000 H   0  0  0  0  0  0  0  0  0  0  0  0
    7.1361   -3.7357    0.0000 H   0  0  0  0  0  0  0  0  0  0  0  0
    5.2316   -4.8549    0.0000 H   0  0  0  0  0  0  0  0  0  0  0  0
    6.0299   -4.8518    0.0000 H   0  0  0  0  0  0  0  0  0  0  0  0
    7.1365   -3.4614    0.0000 H   0  0  0  0  0  0  0  0  0  0  0  0
    7.9312   -3.8319    0.0000 H   0  0  0  0  0  0  0  0  0  0  0  0
    8.3017   -3.0372    0.0000 H   0  0  0  0  0  0  0  0  0  0  0  0
   10.6583    0.0224    0.0000 H   0  0  0  0  0  0  0  0  0  0  0  0
    5.1080   -0.9997    0.0000 H   0  0  0  0  0  0  0  0  0  0  0  0
    8.6359    1.1693    0.0000 H   0  0  0  0  0  0  0  0  0  0  0  0
    7.7069    0.2576    0.0000 H   0  0  0  0  0  0  0  0  0  0  0  0
    6.8617    0.0242    0.0000 H   0  0  0  0  0  0  0  0  0  0  0  0
    7.0952   -0.8210    0.0000 H   0  0  0  0  0  0  0  0  0  0  0  0
    6.6788   -3.9742    0.0000 H   0  0  0  0  0  0  0  0  0  0  0  0
    7.5522   -4.0507    0.0000 H   0  0  0  0  0  0  0  0  0  0  0  0
    7.6287   -3.1772    0.0000 H   0  0  0  0  0  0  0  0  0  0  0  0
    3.3942   -4.8838    0.0000 H   0  0  0  0  0  0  0  0  0  0  0  0
    4.1924   -4.8807    0.0000 H   0  0  0  0  0  0  0  0  0  0  0  0
    2.3203   -3.0852    0.0000 H   0  0  0  0  0  0  0  0  0  0  0  0
   10.0793   -1.9295    0.0000 H   0  0  0  0  0  0  0  0  0  0  0  0
   10.9253   -2.1597    0.0000 H   0  0  0  0  0  0  0  0  0  0  0  0
   11.1555   -1.3136    0.0000 H   0  0  0  0  0  0  0  0  0  0  0  0
   11.1184   -1.3775    0.0000 H   0  0  0  0  0  0  0  0  0  0  0  0
   11.7407   -0.7599    0.0000 H   0  0  0  0  0  0  0  0  0  0  0  0
   11.1231   -0.1375    0.0000 H   0  0  0  0  0  0  0  0  0  0  0  0
    2.2418   -3.7545    0.0000 H   0  0  0  0  0  0  0  0  0  0  0  0
    2.6383   -4.4474    0.0000 H   0  0  0  0  0  0  0  0  0  0  0  0
    4.8555   -1.7165    0.0000 H   0  0  0  0  0  0  0  0  0  0  0  0
    4.6450   -0.8653    0.0000 H   0  0  0  0  0  0  0  0  0  0  0  0
    3.7938   -1.0759    0.0000 H   0  0  0  0  0  0  0  0  0  0  0  0
    8.6249    2.1703    0.0000 H   0  0  0  0  0  0  0  0  0  0  0  0
    2.3162   -1.7371    0.0000 H   0  0  0  0  0  0  0  0  0  0  0  0
    1.4667   -1.9542    0.0000 H   0  0  0  0  0  0  0  0  0  0  0  0
    1.6838   -2.8037    0.0000 H   0  0  0  0  0  0  0  0  0  0  0  0
    2.7050   -1.3650    0.0000 H   0  0  0  0  0  0  0  0  0  0  0  0
    3.8445   -5.9714    0.0000 H   0  0  0  0  0  0  0  0  0  0  0  0
   12.3832    2.0301    0.0000 H   0  0  0  0  0  0  0  0  0  0  0  0
   11.3031    3.6460    0.0000 H   0  0  0  0  0  0  0  0  0  0  0  0
   13.5757    2.7247    0.0000 H   0  0  0  0  0  0  0  0  0  0  0  0
   12.1633    5.1493    0.0000 H   0  0  0  0  0  0  0  0  0  0  0  0
   13.5632    5.9647    0.0000 H   0  0  0  0  0  0  0  0  0  0  0  0
   15.8410    3.6635    0.0000 H   0  0  0  0  0  0  0  0  0  0  0  0
   15.2952    5.9714    0.0000 H   0  0  0  0  0  0  0  0  0  0  0  0
  1 25  1  0  0  0  0
  1 39  1  0  0  0  0
  2 27  1  0  0  0  0
  2 89  1  0  0  0  0
  3 29  1  0  0  0  0
  3 93  1  0  0  0  0
  4 36  1  0  0  0  0
  4 94  1  0  0  0  0
  5 36  2  0  0  0  0
  6 39  2  0  0  0  0
  7 45  1  0  0  0  0
  7100  1  0  0  0  0
  8 47  1  0  0  0  0
  8101  1  0  0  0  0
  9 10  1  0  0  0  0
  9 12  1  0  0  0  0
  9 14  1  0  0  0  0
  9 24  1  0  0  0  0
 10 11  1  0  0  0  0
 10 19  1  0  0  0  0
 10 48  1  0  0  0  0
 11 13  1  0  0  0  0
 11 20  1  0  0  0  0
 11 28  1  0  0  0  0
 12 15  1  0  0  0  0
 12 21  1  0  0  0  0
 12 30  1  0  0  0  0
 13 16  1  0  0  0  0
 13 17  1  0  0  0  0
 13 49  1  0  0  0  0
 14 16  1  0  0  0  0
 14 50  1  0  0  0  0
 14 51  1  0  0  0  0
 15 18  1  0  0  0  0
 15 26  2  0  0  0  0
 16 52  1  0  0  0  0
 16 53  1  0  0  0  0
 17 25  1  0  0  0  0
 17 33  1  0  0  0  0
 17 34  1  0  0  0  0
 18 22  1  0  0  0  0
 18 29  1  0  0  0  0
 18 54  1  0  0  0  0
 19 26  1  0  0  0  0
 19 55  1  0  0  0  0
 19 56  1  0  0  0  0
 20 27  1  0  0  0  0
 20 57  1  0  0  0  0
 20 58  1  0  0  0  0
 21 23  1  0  0  0  0
 21 59  1  0  0  0  0
 21 60  1  0  0  0  0
 22 23  1  0  0  0  0
 22 31  1  0  0  0  0
 22 36  1  0  0  0  0
 23 61  1  0  0  0  0
 23 62  1  0  0  0  0
 24 63  1  0  0  0  0
 24 64  1  0  0  0  0
 24 65  1  0  0  0  0
 25 27  1  0  0  0  0
 25 66  1  0  0  0  0
 26 67  1  0  0  0  0
 27 68  1  0  0  0  0
 28 69  1  0  0  0  0
 28 70  1  0  0  0  0
 28 71  1  0  0  0  0
 29 32  1  0  0  0  0
 29 37  1  0  0  0  0
 30 72  1  0  0  0  0
 30 73  1  0  0  0  0
 30 74  1  0  0  0  0
 31 35  1  0  0  0  0
 31 75  1  0  0  0  0
 31 76  1  0  0  0  0
 32 35  1  0  0  0  0
 32 38  1  0  0  0  0
 32 77  1  0  0  0  0
 33 81  1  0  0  0  0
 33 82  1  0  0  0  0
 33 83  1  0  0  0  0
 34 78  1  0  0  0  0
 34 79  1  0  0  0  0
 34 80  1  0  0  0  0
 35 84  1  0  0  0  0
 35 85  1  0  0  0  0
 37 86  1  0  0  0  0
 37 87  1  0  0  0  0
 37 88  1  0  0  0  0
 38 90  1  0  0  0  0
 38 91  1  0  0  0  0
 38 92  1  0  0  0  0
 39 40  1  0  0  0  0
 40 41  2  0  0  0  0
 40 95  1  0  0  0  0
 41 42  1  0  0  0  0
 41 96  1  0  0  0  0
 42 43  2  0  0  0  0
 42 44  1  0  0  0  0
 43 45  1  0  0  0  0
 43 97  1  0  0  0  0
 44 46  2  0  0  0  0
 44 98  1  0  0  0  0
 45 47  2  0  0  0  0
 46 47  1  0  0  0  0
 46 99  1  0  0  0  0
M  END
>  <PUBCHEM_COMPOUND_CID>
131752884

>  <PUBCHEM_COMPOUND_CANONICALIZED>
1

>  <PUBCHEM_CACTVS_COMPLEXITY>
1340

>  <PUBCHEM_CACTVS_HBOND_ACCEPTOR>
8

>  <PUBCHEM_CACTVS_HBOND_DONOR>
5

>  <PUBCHEM_CACTVS_ROTATABLE_BOND>
5

>  <PUBCHEM_CACTVS_SUBSKEYS>
AAADcfB8PAAAAAAAAAAAAAAAAAAAAAAAAAAwYMGDAAAAAADBAAAAGgAACAAAD1SgmAIyDoAABgCIAiDSCAACAAAgIAAIiAEGiMgJNjKCMRKCcAEkwBELuYfKyPCPoAABAAAAQADAAAYAADCAAAAAAAAAAA==

>  <PUBCHEM_IUPAC_OPENEYE_NAME>
10-[(E)-3-(3,4-dihydroxyphenyl)prop-2-enoyl]oxy-1,11-dihydroxy-1,2,6a,6b,9,9,12a-heptamethyl-2,3,4,5,6,6a,7,8,8a,10,11,12,13,14b-tetradecahydropicene-4a-carboxylic acid

>  <PUBCHEM_IUPAC_CAS_NAME>
10-[(E)-3-(3,4-dihydroxyphenyl)-1-oxoprop-2-enoxy]-1,11-dihydroxy-1,2,6a,6b,9,9,12a-heptamethyl-2,3,4,5,6,6a,7,8,8a,10,11,12,13,14b-tetradecahydropicene-4a-carboxylic acid

>  <PUBCHEM_IUPAC_NAME>
10-[(E)-3-(3,4-dihydroxyphenyl)prop-2-enoyl]oxy-1,11-dihydroxy-1,2,6a,6b,9,9,12a-heptamethyl-2,3,4,5,6,6a,7,8,8a,10,11,12,13,14b-tetradecahydropicene-4a-carboxylic acid

>  <PUBCHEM_IUPAC_SYSTEMATIC_NAME>
10-[(E)-3-[3,4-bis(oxidanyl)phenyl]prop-2-enoyl]oxy-1,2,6a,6b,9,9,12a-heptamethyl-1,11-bis(oxidanyl)-2,3,4,5,6,6a,7,8,8a,10,11,12,13,14b-tetradecahydropicene-4a-carboxylic acid

>  <PUBCHEM_IUPAC_TRADITIONAL_NAME>
10-[(E)-3-(3,4-dihydroxyphenyl)acryloyl]oxy-1,11-dihydroxy-1,2,6a,6b,9,9,12a-heptamethyl-2,3,4,5,6,6a,7,8,8a,10,11,12,13,14b-tetradecahydropicene-4a-carboxylic acid

>  <PUBCHEM_IUPAC_INCHI>
InChI=1S/C39H54O8/c1-22-14-17-39(33(44)45)19-18-36(5)24(31(39)38(22,7)46)10-12-29-35(4)21-27(42)32(34(2,3)28(35)15-16-37(29,36)6)47-30(43)13-9-23-8-11-25(40)26(41)20-23/h8-11,13,20,22,27-29,31-32,40-42,46H,12,14-19,21H2,1-7H3,(H,44,45)/b13-9+

>  <PUBCHEM_IUPAC_INCHIKEY>
MFPIVTNHMCQSEM-UKTHLTGXSA-N

>  <PUBCHEM_EXACT_MASS>
650.382

>  <PUBCHEM_MOLECULAR_FORMULA>
C39H54O8

>  <PUBCHEM_MOLECULAR_WEIGHT>
650.853

>  <PUBCHEM_OPENEYE_CAN_SMILES>
CC1CCC2(CCC3(C(=CCC4C3(CCC5C4(CC(C(C5(C)C)OC(=O)C=CC6=CC(=C(C=C6)O)O)O)C)C)C2C1(C)O)C)C(=O)O

>  <PUBCHEM_OPENEYE_ISO_SMILES>
CC1CCC2(CCC3(C(=CCC4C3(CCC5C4(CC(C(C5(C)C)OC(=O)/C=C/C6=CC(=C(C=C6)O)O)O)C)C)C2C1(C)O)C)C(=O)O

>  <PUBCHEM_CACTVS_TPSA>
145

>  <PUBCHEM_MONOISOTOPIC_WEIGHT>
650.382

>  <PUBCHEM_TOTAL_CHARGE>
0

>  <PUBCHEM_HEAVY_ATOM_COUNT>
47

>  <PUBCHEM_ATOM_DEF_STEREO_COUNT>
0

>  <PUBCHEM_ATOM_UDEF_STEREO_COUNT>
11

>  <PUBCHEM_BOND_DEF_STEREO_COUNT>
1

>  <PUBCHEM_BOND_UDEF_STEREO_COUNT>
0

>  <PUBCHEM_ISOTOPIC_ATOM_COUNT>
0

>  <PUBCHEM_COMPONENT_COUNT>
1

>  <PUBCHEM_CACTVS_TAUTO_COUNT>
16

>  <PUBCHEM_COORDINATE_TYPE>
1
5
255

>  <PUBCHEM_BONDANNOTATIONS>
25  1  3
10  19  3
11  28  3
12  30  3
13  16  3
18  15  3
27  2  3
22  36  3
29  3  3
32  38  3
42  43  8
42  44  8
43  45  8
44  46  8
45  47  8
46  47  8
9  24  3

$$$$
