131753153
 OpenBabel06101807152D

 60 61  0  0  1  0  0  0  0  0999 V2000
    7.7331   -0.9050    0.0000 O   0  0  0  0  0  0  0  0  0  0  0  0
    5.1350    1.5950    0.0000 O   0  0  0  0  0  0  0  0  0  0  0  0
    6.0010    0.0950    0.0000 O   0  0  0  0  0  0  0  0  0  0  0  0
    9.4651   -0.9050    0.0000 O   0  0  0  0  0  0  0  0  0  0  0  0
    6.0010   -2.9050    0.0000 O   0  0  0  0  0  0  0  0  0  0  0  0
    7.7331   -3.9050    0.0000 O   0  0  0  0  0  0  0  0  0  0  0  0
    9.4651   -2.9050    0.0000 O   0  0  0  0  0  0  0  0  0  0  0  0
    4.2690   -0.9050    0.0000 O   0  0  0  0  0  0  0  0  0  0  0  0
    2.5369    0.0950    0.0000 O   0  0  0  0  0  0  0  0  0  0  0  0
    2.5369    2.0950    0.0000 O   0  0  0  0  0  0  0  0  0  0  0  0
    5.1350    3.5950    0.0000 O   0  0  0  0  0  0  0  0  0  0  0  0
    6.8671   -1.4050    0.0000 C   0  0  3  0  0  0  0  0  0  0  0  0
    6.8671   -2.4050    0.0000 C   0  0  3  0  0  0  0  0  0  0  0  0
    7.7331   -2.9050    0.0000 C   0  0  3  0  0  0  0  0  0  0  0  0
    8.5991   -2.4050    0.0000 C   0  0  3  0  0  0  0  0  0  0  0  0
    4.2690    0.0950    0.0000 C   0  0  3  0  0  0  0  0  0  0  0  0
    5.1350    0.5950    0.0000 C   0  0  3  0  0  0  0  0  0  0  0  0
    3.4030    0.5950    0.0000 C   0  0  3  0  0  0  0  0  0  0  0  0
    3.4030    1.5950    0.0000 C   0  0  3  0  0  0  0  0  0  0  0  0
    8.5991   -1.4050    0.0000 C   0  0  3  0  0  0  0  0  0  0  0  0
    4.2690    2.0950    0.0000 C   0  0  3  0  0  0  0  0  0  0  0  0
    6.0010   -0.9050    0.0000 C   0  0  0  0  0  0  0  0  0  0  0  0
    4.2690    3.0950    0.0000 C   0  0  0  0  0  0  0  0  0  0  0  0
    9.4651    0.0950    0.0000 C   0  0  0  0  0  0  0  0  0  0  0  0
   10.3312    0.5950    0.0000 C   0  0  0  0  0  0  0  0  0  0  0  0
   10.3312    1.5950    0.0000 C   0  0  0  0  0  0  0  0  0  0  0  0
   11.1972    2.0950    0.0000 C   0  0  0  0  0  0  0  0  0  0  0  0
    9.4651    2.0950    0.0000 C   0  0  0  0  0  0  0  0  0  0  0  0
    6.8671   -0.7850    0.0000 H   0  0  0  0  0  0  0  0  0  0  0  0
    6.8671   -3.0250    0.0000 H   0  0  0  0  0  0  0  0  0  0  0  0
    7.1962   -3.2150    0.0000 H   0  0  0  0  0  0  0  0  0  0  0  0
    8.5991   -3.0250    0.0000 H   0  0  0  0  0  0  0  0  0  0  0  0
    3.7320   -0.2150    0.0000 H   0  0  0  0  0  0  0  0  0  0  0  0
    5.1350   -0.0250    0.0000 H   0  0  0  0  0  0  0  0  0  0  0  0
    2.8660    0.9050    0.0000 H   0  0  0  0  0  0  0  0  0  0  0  0
    3.4030    2.2150    0.0000 H   0  0  0  0  0  0  0  0  0  0  0  0
    8.5991   -0.7850    0.0000 H   0  0  0  0  0  0  0  0  0  0  0  0
    4.8059    2.4050    0.0000 H   0  0  0  0  0  0  0  0  0  0  0  0
    5.3905   -0.7973    0.0000 H   0  0  0  0  0  0  0  0  0  0  0  0
    5.7890   -1.4876    0.0000 H   0  0  0  0  0  0  0  0  0  0  0  0
    4.0569    3.6776    0.0000 H   0  0  0  0  0  0  0  0  0  0  0  0
    3.6584    2.9873    0.0000 H   0  0  0  0  0  0  0  0  0  0  0  0
    5.4641   -2.5950    0.0000 H   0  0  0  0  0  0  0  0  0  0  0  0
    7.1962   -4.2150    0.0000 H   0  0  0  0  0  0  0  0  0  0  0  0
   10.0021   -2.5950    0.0000 H   0  0  0  0  0  0  0  0  0  0  0  0
    9.2531    0.6776    0.0000 H   0  0  0  0  0  0  0  0  0  0  0  0
    8.8546   -0.0127    0.0000 H   0  0  0  0  0  0  0  0  0  0  0  0
    3.7320   -1.2150    0.0000 H   0  0  0  0  0  0  0  0  0  0  0  0
    2.0000    0.4050    0.0000 H   0  0  0  0  0  0  0  0  0  0  0  0
    2.5369    2.7150    0.0000 H   0  0  0  0  0  0  0  0  0  0  0  0
   10.5432    0.0124    0.0000 H   0  0  0  0  0  0  0  0  0  0  0  0
   10.9417    0.7027    0.0000 H   0  0  0  0  0  0  0  0  0  0  0  0
    9.7942    1.2850    0.0000 H   0  0  0  0  0  0  0  0  0  0  0  0
    5.1350    4.2150    0.0000 H   0  0  0  0  0  0  0  0  0  0  0  0
   11.5072    1.5581    0.0000 H   0  0  0  0  0  0  0  0  0  0  0  0
    9.7751    2.6319    0.0000 H   0  0  0  0  0  0  0  0  0  0  0  0
   11.7341    2.4050    0.0000 H   0  0  0  0  0  0  0  0  0  0  0  0
   10.8872    2.6319    0.0000 H   0  0  0  0  0  0  0  0  0  0  0  0
    8.9282    2.4050    0.0000 H   0  0  0  0  0  0  0  0  0  0  0  0
    9.1551    1.5581    0.0000 H   0  0  0  0  0  0  0  0  0  0  0  0
  1 12  1  0  0  0  0
  1 20  1  0  0  0  0
  2 17  1  0  0  0  0
  2 21  1  0  0  0  0
  3 17  1  0  0  0  0
  3 22  1  0  0  0  0
  4 20  1  0  0  0  0
  4 24  1  0  0  0  0
  5 13  1  0  0  0  0
  5 43  1  0  0  0  0
  6 14  1  0  0  0  0
  6 44  1  0  0  0  0
  7 15  1  0  0  0  0
  7 45  1  0  0  0  0
  8 16  1  0  0  0  0
  8 48  1  0  0  0  0
  9 18  1  0  0  0  0
  9 49  1  0  0  0  0
 10 19  1  0  0  0  0
 10 50  1  0  0  0  0
 11 23  1  0  0  0  0
 11 54  1  0  0  0  0
 12 13  1  0  0  0  0
 12 22  1  0  0  0  0
 12 29  1  0  0  0  0
 13 14  1  0  0  0  0
 13 30  1  0  0  0  0
 14 15  1  0  0  0  0
 14 31  1  0  0  0  0
 15 20  1  0  0  0  0
 15 32  1  0  0  0  0
 16 17  1  0  0  0  0
 16 18  1  0  0  0  0
 16 33  1  0  0  0  0
 17 34  1  0  0  0  0
 18 19  1  0  0  0  0
 18 35  1  0  0  0  0
 19 21  1  0  0  0  0
 19 36  1  0  0  0  0
 20 37  1  0  0  0  0
 21 23  1  0  0  0  0
 21 38  1  0  0  0  0
 22 39  1  0  0  0  0
 22 40  1  0  0  0  0
 23 41  1  0  0  0  0
 23 42  1  0  0  0  0
 24 25  1  0  0  0  0
 24 46  1  0  0  0  0
 24 47  1  0  0  0  0
 25 26  1  0  0  0  0
 25 51  1  0  0  0  0
 25 52  1  0  0  0  0
 26 27  1  0  0  0  0
 26 28  1  0  0  0  0
 26 53  1  0  0  0  0
 27 55  1  0  0  0  0
 27 57  1  0  0  0  0
 27 58  1  0  0  0  0
 28 56  1  0  0  0  0
 28 59  1  0  0  0  0
 28 60  1  0  0  0  0
M  END
>  <PUBCHEM_COMPOUND_CID>
131753153

>  <PUBCHEM_COMPOUND_CANONICALIZED>
1

>  <PUBCHEM_CACTVS_COMPLEXITY>
464

>  <PUBCHEM_CACTVS_HBOND_ACCEPTOR>
11

>  <PUBCHEM_CACTVS_HBOND_DONOR>
7

>  <PUBCHEM_CACTVS_ROTATABLE_BOND>
8

>  <PUBCHEM_CACTVS_SUBSKEYS>
AAADcfB4PAAAAAAAAAAAAAAAAAAAAAAAAAAkSAAAAAAAAAAAAAAAGgAACAAADRSwgAMCCAAABgAAAAAAAAAAAAAAAAAAAAAAAAAREAIAAAAiQAAFAAAHAAHAYAwIAAAAAAAAAAAAAAAAAAAAAAAAAAAAAA==

>  <PUBCHEM_IUPAC_OPENEYE_NAME>
2-(hydroxymethyl)-6-[(3,4,5-trihydroxy-6-isopentyloxy-tetrahydropyran-2-yl)methoxy]tetrahydropyran-3,4,5-triol

>  <PUBCHEM_IUPAC_CAS_NAME>
2-(hydroxymethyl)-6-[[3,4,5-trihydroxy-6-(3-methylbutoxy)-2-oxanyl]methoxy]oxane-3,4,5-triol

>  <PUBCHEM_IUPAC_NAME>
2-(hydroxymethyl)-6-[[3,4,5-trihydroxy-6-(3-methylbutoxy)oxan-2-yl]methoxy]oxane-3,4,5-triol

>  <PUBCHEM_IUPAC_SYSTEMATIC_NAME>
2-(hydroxymethyl)-6-[[6-(3-methylbutoxy)-3,4,5-tris(oxidanyl)oxan-2-yl]methoxy]oxane-3,4,5-triol

>  <PUBCHEM_IUPAC_TRADITIONAL_NAME>
2-methylol-6-[(3,4,5-trihydroxy-6-isoamoxy-tetrahydropyran-2-yl)methoxy]tetrahydropyran-3,4,5-triol

>  <PUBCHEM_IUPAC_INCHI>
InChI=1S/C17H32O11/c1-7(2)3-4-25-16-14(23)13(22)11(20)9(28-16)6-26-17-15(24)12(21)10(19)8(5-18)27-17/h7-24H,3-6H2,1-2H3

>  <PUBCHEM_IUPAC_INCHIKEY>
PPIXDGFHKZNFOD-UHFFFAOYSA-N

>  <PUBCHEM_EXACT_MASS>
412.194

>  <PUBCHEM_MOLECULAR_FORMULA>
C17H32O11

>  <PUBCHEM_MOLECULAR_WEIGHT>
412.432

>  <PUBCHEM_OPENEYE_CAN_SMILES>
CC(C)CCOC1C(C(C(C(O1)COC2C(C(C(C(O2)CO)O)O)O)O)O)O

>  <PUBCHEM_OPENEYE_ISO_SMILES>
CC(C)CCOC1C(C(C(C(O1)COC2C(C(C(C(O2)CO)O)O)O)O)O)O

>  <PUBCHEM_CACTVS_TPSA>
179

>  <PUBCHEM_MONOISOTOPIC_WEIGHT>
412.194

>  <PUBCHEM_TOTAL_CHARGE>
0

>  <PUBCHEM_HEAVY_ATOM_COUNT>
28

>  <PUBCHEM_ATOM_DEF_STEREO_COUNT>
0

>  <PUBCHEM_ATOM_UDEF_STEREO_COUNT>
10

>  <PUBCHEM_BOND_DEF_STEREO_COUNT>
0

>  <PUBCHEM_BOND_UDEF_STEREO_COUNT>
0

>  <PUBCHEM_ISOTOPIC_ATOM_COUNT>
0

>  <PUBCHEM_COMPONENT_COUNT>
1

>  <PUBCHEM_CACTVS_TAUTO_COUNT>
1

>  <PUBCHEM_COORDINATE_TYPE>
1
5
255

>  <PUBCHEM_BONDANNOTATIONS>
19  10  3
12  22  3
21  23  3
17  3  3
20  4  3
13  5  3
14  6  3
15  7  3
16  8  3
18  9  3

$$$$
