131750856
 OpenBabel06101807152D

 70 71  0  0  1  0  0  0  0  0999 V2000
    7.7331    1.3450    0.0000 O   0  0  0  0  0  0  0  0  0  0  0  0
    4.2690    0.3450    0.0000 O   0  0  0  0  0  0  0  0  0  0  0  0
    6.0010    0.3450    0.0000 O   0  0  0  0  0  0  0  0  0  0  0  0
    6.0010    3.3450    0.0000 O   0  0  0  0  0  0  0  0  0  0  0  0
    7.7331    4.3450    0.0000 O   0  0  0  0  0  0  0  0  0  0  0  0
    9.4651    1.3450    0.0000 O   0  0  0  0  0  0  0  0  0  0  0  0
    9.4651    3.3450    0.0000 O   0  0  0  0  0  0  0  0  0  0  0  0
    6.0010   -1.6550    0.0000 O   0  0  0  0  0  0  0  0  0  0  0  0
    4.2690   -2.6550    0.0000 O   0  0  0  0  0  0  0  0  0  0  0  0
    2.5369   -1.6550    0.0000 O   0  0  0  0  0  0  0  0  0  0  0  0
    6.8671    1.8450    0.0000 C   0  0  3  0  0  0  0  0  0  0  0  0
    6.8671    2.8450    0.0000 C   0  0  3  0  0  0  0  0  0  0  0  0
    7.7331    3.3450    0.0000 C   0  0  3  0  0  0  0  0  0  0  0  0
    8.5991    2.8450    0.0000 C   0  0  3  0  0  0  0  0  0  0  0  0
    5.1350   -1.1550    0.0000 C   0  0  3  0  0  0  0  0  0  0  0  0
    5.1350   -0.1550    0.0000 C   0  0  3  0  0  0  0  0  0  0  0  0
    4.2690   -1.6550    0.0000 C   0  0  3  0  0  0  0  0  0  0  0  0
    3.4030   -1.1550    0.0000 C   0  0  3  0  0  0  0  0  0  0  0  0
    8.5991    1.8450    0.0000 C   0  0  3  0  0  0  0  0  0  0  0  0
    3.4030   -0.1550    0.0000 C   0  0  3  0  0  0  0  0  0  0  0  0
    6.0010    1.3450    0.0000 C   0  0  0  0  0  0  0  0  0  0  0  0
    2.5369    0.3450    0.0000 C   0  0  0  0  0  0  0  0  0  0  0  0
    9.4651    0.3450    0.0000 C   0  0  0  0  0  0  0  0  0  0  0  0
   10.3312   -0.1550    0.0000 C   0  0  0  0  0  0  0  0  0  0  0  0
   10.3312   -1.1550    0.0000 C   0  0  0  0  0  0  0  0  0  0  0  0
    9.4651   -1.6550    0.0000 C   0  0  0  0  0  0  0  0  0  0  0  0
   11.1972   -1.6550    0.0000 C   0  0  0  0  0  0  0  0  0  0  0  0
    9.4651   -2.6550    0.0000 C   0  0  0  0  0  0  0  0  0  0  0  0
   10.3312   -3.1550    0.0000 C   0  0  0  0  0  0  0  0  0  0  0  0
   10.3312   -4.1550    0.0000 C   0  0  0  0  0  0  0  0  0  0  0  0
   11.1972   -4.6550    0.0000 C   0  0  0  0  0  0  0  0  0  0  0  0
    9.4651   -4.6550    0.0000 C   0  0  0  0  0  0  0  0  0  0  0  0
    6.8671    1.2250    0.0000 H   0  0  0  0  0  0  0  0  0  0  0  0
    6.3301    2.5350    0.0000 H   0  0  0  0  0  0  0  0  0  0  0  0
    7.1962    3.6550    0.0000 H   0  0  0  0  0  0  0  0  0  0  0  0
    8.5991    3.4650    0.0000 H   0  0  0  0  0  0  0  0  0  0  0  0
    5.1350   -1.7750    0.0000 H   0  0  0  0  0  0  0  0  0  0  0  0
    5.1350    0.4650    0.0000 H   0  0  0  0  0  0  0  0  0  0  0  0
    3.7320   -1.9650    0.0000 H   0  0  0  0  0  0  0  0  0  0  0  0
    3.4030   -1.7750    0.0000 H   0  0  0  0  0  0  0  0  0  0  0  0
    8.5991    1.2250    0.0000 H   0  0  0  0  0  0  0  0  0  0  0  0
    3.4030    0.4650    0.0000 H   0  0  0  0  0  0  0  0  0  0  0  0
    5.7890    1.9276    0.0000 H   0  0  0  0  0  0  0  0  0  0  0  0
    5.3905    1.2373    0.0000 H   0  0  0  0  0  0  0  0  0  0  0  0
    2.8469    0.8819    0.0000 H   0  0  0  0  0  0  0  0  0  0  0  0
    2.0000    0.6550    0.0000 H   0  0  0  0  0  0  0  0  0  0  0  0
    2.2269   -0.1919    0.0000 H   0  0  0  0  0  0  0  0  0  0  0  0
    6.0010    3.9650    0.0000 H   0  0  0  0  0  0  0  0  0  0  0  0
    8.2700    4.6550    0.0000 H   0  0  0  0  0  0  0  0  0  0  0  0
   10.0021    3.0350    0.0000 H   0  0  0  0  0  0  0  0  0  0  0  0
    6.5380   -1.3450    0.0000 H   0  0  0  0  0  0  0  0  0  0  0  0
    3.7320   -2.9650    0.0000 H   0  0  0  0  0  0  0  0  0  0  0  0
    2.0000   -1.3450    0.0000 H   0  0  0  0  0  0  0  0  0  0  0  0
    8.8546    0.4527    0.0000 H   0  0  0  0  0  0  0  0  0  0  0  0
    9.2531   -0.2376    0.0000 H   0  0  0  0  0  0  0  0  0  0  0  0
   10.8681    0.1550    0.0000 H   0  0  0  0  0  0  0  0  0  0  0  0
    9.2531   -1.0724    0.0000 H   0  0  0  0  0  0  0  0  0  0  0  0
    8.8546   -1.7627    0.0000 H   0  0  0  0  0  0  0  0  0  0  0  0
   10.8872   -2.1919    0.0000 H   0  0  0  0  0  0  0  0  0  0  0  0
   11.7341   -1.9650    0.0000 H   0  0  0  0  0  0  0  0  0  0  0  0
   11.5072   -1.1181    0.0000 H   0  0  0  0  0  0  0  0  0  0  0  0
    8.8546   -2.5473    0.0000 H   0  0  0  0  0  0  0  0  0  0  0  0
    9.2531   -3.2376    0.0000 H   0  0  0  0  0  0  0  0  0  0  0  0
   10.8681   -2.8450    0.0000 H   0  0  0  0  0  0  0  0  0  0  0  0
    9.1551   -4.1181    0.0000 H   0  0  0  0  0  0  0  0  0  0  0  0
   10.8872   -5.1919    0.0000 H   0  0  0  0  0  0  0  0  0  0  0  0
   11.7341   -4.9650    0.0000 H   0  0  0  0  0  0  0  0  0  0  0  0
   11.5072   -4.1181    0.0000 H   0  0  0  0  0  0  0  0  0  0  0  0
    8.9282   -4.9650    0.0000 H   0  0  0  0  0  0  0  0  0  0  0  0
    9.7751   -5.1919    0.0000 H   0  0  0  0  0  0  0  0  0  0  0  0
  1 11  1  0  0  0  0
  1 19  1  0  0  0  0
  2 16  1  0  0  0  0
  2 20  1  0  0  0  0
  3 16  1  0  0  0  0
  3 21  1  0  0  0  0
  4 12  1  0  0  0  0
  4 48  1  0  0  0  0
  5 13  1  0  0  0  0
  5 49  1  0  0  0  0
  6 19  1  0  0  0  0
  6 23  1  0  0  0  0
  7 14  1  0  0  0  0
  7 50  1  0  0  0  0
  8 15  1  0  0  0  0
  8 51  1  0  0  0  0
  9 17  1  0  0  0  0
  9 52  1  0  0  0  0
 10 18  1  0  0  0  0
 10 53  1  0  0  0  0
 11 12  1  0  0  0  0
 11 21  1  0  0  0  0
 11 33  1  0  0  0  0
 12 13  1  0  0  0  0
 12 34  1  0  0  0  0
 13 14  1  0  0  0  0
 13 35  1  0  0  0  0
 14 19  1  0  0  0  0
 14 36  1  0  0  0  0
 15 16  1  0  0  0  0
 15 17  1  0  0  0  0
 15 37  1  0  0  0  0
 16 38  1  0  0  0  0
 17 18  1  0  0  0  0
 17 39  1  0  0  0  0
 18 20  1  0  0  0  0
 18 40  1  0  0  0  0
 19 41  1  0  0  0  0
 20 22  1  0  0  0  0
 20 42  1  0  0  0  0
 21 43  1  0  0  0  0
 21 44  1  0  0  0  0
 22 45  1  0  0  0  0
 22 46  1  0  0  0  0
 22 47  1  0  0  0  0
 23 24  1  0  0  0  0
 23 54  1  0  0  0  0
 23 55  1  0  0  0  0
 24 25  2  0  0  0  0
 24 56  1  0  0  0  0
 25 26  1  0  0  0  0
 25 27  1  0  0  0  0
 26 28  1  0  0  0  0
 26 57  1  0  0  0  0
 26 58  1  0  0  0  0
 27 59  1  0  0  0  0
 27 60  1  0  0  0  0
 27 61  1  0  0  0  0
 28 29  1  0  0  0  0
 28 62  1  0  0  0  0
 28 63  1  0  0  0  0
 29 30  2  0  0  0  0
 29 64  1  0  0  0  0
 30 31  1  0  0  0  0
 30 32  1  0  0  0  0
 31 66  1  0  0  0  0
 31 67  1  0  0  0  0
 31 68  1  0  0  0  0
 32 65  1  0  0  0  0
 32 69  1  0  0  0  0
 32 70  1  0  0  0  0
M  END
>  <PUBCHEM_COMPOUND_CID>
131750856

>  <PUBCHEM_COMPOUND_CANONICALIZED>
1

>  <PUBCHEM_CACTVS_COMPLEXITY>
634

>  <PUBCHEM_CACTVS_HBOND_ACCEPTOR>
10

>  <PUBCHEM_CACTVS_HBOND_DONOR>
6

>  <PUBCHEM_CACTVS_ROTATABLE_BOND>
9

>  <PUBCHEM_CACTVS_SUBSKEYS>
AAADcfB4PAAAAAAAAAAAAAAAAAAAAAAAAAAkSAAAAAAAAAAAAAAAGgAACAAADBSwgAMCCAAABgCAAiBCAAAAAAAgAAAACAAAAAgRFAIAIQAiUAAFgAAPIAPAYAwAAAAAAAAAAAAAAAAAAAAAAAAAAAAAAA==

>  <PUBCHEM_IUPAC_OPENEYE_NAME>
2-[[6-[(2Z)-3,7-dimethylocta-2,6-dienoxy]-3,4,5-trihydroxy-tetrahydropyran-2-yl]methoxy]-6-methyl-tetrahydropyran-3,4,5-triol

>  <PUBCHEM_IUPAC_CAS_NAME>
2-[[6-[(2Z)-3,7-dimethylocta-2,6-dienoxy]-3,4,5-trihydroxy-2-oxanyl]methoxy]-6-methyloxane-3,4,5-triol

>  <PUBCHEM_IUPAC_NAME>
2-[[6-[(2Z)-3,7-dimethylocta-2,6-dienoxy]-3,4,5-trihydroxyoxan-2-yl]methoxy]-6-methyloxane-3,4,5-triol

>  <PUBCHEM_IUPAC_SYSTEMATIC_NAME>
2-[[6-[(2Z)-3,7-dimethylocta-2,6-dienoxy]-3,4,5-tris(oxidanyl)oxan-2-yl]methoxy]-6-methyl-oxane-3,4,5-triol

>  <PUBCHEM_IUPAC_TRADITIONAL_NAME>
2-[[6-[(2Z)-3,7-dimethylocta-2,6-dienoxy]-3,4,5-trihydroxy-tetrahydropyran-2-yl]methoxy]-6-methyl-tetrahydropyran-3,4,5-triol

>  <PUBCHEM_IUPAC_INCHI>
InChI=1S/C22H38O10/c1-11(2)6-5-7-12(3)8-9-29-21-20(28)18(26)16(24)14(32-21)10-30-22-19(27)17(25)15(23)13(4)31-22/h6,8,13-28H,5,7,9-10H2,1-4H3/b12-8-

>  <PUBCHEM_IUPAC_INCHIKEY>
YZJBMONDZNACEV-WQLSENKSSA-N

>  <PUBCHEM_EXACT_MASS>
462.246

>  <PUBCHEM_MOLECULAR_FORMULA>
C22H38O10

>  <PUBCHEM_MOLECULAR_WEIGHT>
462.536

>  <PUBCHEM_OPENEYE_CAN_SMILES>
CC1C(C(C(C(O1)OCC2C(C(C(C(O2)OCC=C(C)CCC=C(C)C)O)O)O)O)O)O

>  <PUBCHEM_OPENEYE_ISO_SMILES>
CC1C(C(C(C(O1)OCC2C(C(C(C(O2)OC/C=C(/C)\CCC=C(C)C)O)O)O)O)O)O

>  <PUBCHEM_CACTVS_TPSA>
158

>  <PUBCHEM_MONOISOTOPIC_WEIGHT>
462.246

>  <PUBCHEM_TOTAL_CHARGE>
0

>  <PUBCHEM_HEAVY_ATOM_COUNT>
32

>  <PUBCHEM_ATOM_DEF_STEREO_COUNT>
0

>  <PUBCHEM_ATOM_UDEF_STEREO_COUNT>
10

>  <PUBCHEM_BOND_DEF_STEREO_COUNT>
1

>  <PUBCHEM_BOND_UDEF_STEREO_COUNT>
0

>  <PUBCHEM_ISOTOPIC_ATOM_COUNT>
0

>  <PUBCHEM_COMPONENT_COUNT>
1

>  <PUBCHEM_CACTVS_TAUTO_COUNT>
1

>  <PUBCHEM_COORDINATE_TYPE>
1
5
255

>  <PUBCHEM_BONDANNOTATIONS>
18  10  3
11  21  3
20  22  3
16  3  3
12  4  3
13  5  3
19  6  3
14  7  3
15  8  3
17  9  3

$$$$
