131752462
 OpenBabel06101807152D

119125  0  0  1  0  0  0  0  0999 V2000
    6.8671   -7.1246    0.0000 O   0  0  0  0  0  0  0  0  0  0  0  0
    5.1350   -5.1246    0.0000 O   0  0  0  0  0  0  0  0  0  0  0  0
    7.7331   -5.6246    0.0000 O   0  0  0  0  0  0  0  0  0  0  0  0
    6.8671   -5.1246    0.0000 O   0  0  0  0  0  0  0  0  0  0  0  0
    5.1350   -8.1246    0.0000 O   0  0  0  0  0  0  0  0  0  0  0  0
    3.4030   -7.1246    0.0000 O   0  0  0  0  0  0  0  0  0  0  0  0
    8.5991   -8.1246    0.0000 O   0  0  0  0  0  0  0  0  0  0  0  0
   10.3312   -7.1246    0.0000 O   0  0  0  0  0  0  0  0  0  0  0  0
   10.3312   -5.1246    0.0000 O   0  0  0  0  0  0  0  0  0  0  0  0
    6.0346    0.4480    0.0000 O   0  0  0  0  0  0  0  0  0  0  0  0
    2.5369   -5.6246    0.0000 O   0  0  0  0  0  0  0  0  0  0  0  0
    9.4651   -3.6246    0.0000 O   0  0  0  0  0  0  0  0  0  0  0  0
    7.7666    0.4413    0.0000 O   0  0  0  0  0  0  0  0  0  0  0  0
    7.7744    2.4413    0.0000 O   0  0  0  0  0  0  0  0  0  0  0  0
    6.0462    3.4479    0.0000 O   0  0  0  0  0  0  0  0  0  0  0  0
    4.3103    2.4546    0.0000 O   0  0  0  0  0  0  0  0  0  0  0  0
    8.6230   -2.0620    0.0000 O   0  0  0  0  0  0  0  0  0  0  0  0
    4.2987   -0.5454    0.0000 O   0  0  0  0  0  0  0  0  0  0  0  0
    5.1208   -2.0454    0.0000 O   0  0  0  0  0  0  0  0  0  0  0  0
    6.0308   -0.5520    0.0000 O   0  0  0  0  0  0  0  0  0  0  0  0
    6.9141    3.9446    0.0000 O   0  0  0  0  0  0  0  0  0  0  0  0
   12.0987    0.9246    0.0000 O   0  0  0  0  0  0  0  0  0  0  0  0
   12.1141    4.9246    0.0000 O   0  0  0  0  0  0  0  0  0  0  0  0
   10.3936    7.9312    0.0000 O   0  0  0  0  0  0  0  0  0  0  0  0
   12.1218    6.9245    0.0000 O   0  0  0  0  0  0  0  0  0  0  0  0
    6.0010   -6.6246    0.0000 C   0  0  3  0  0  0  0  0  0  0  0  0
    5.1350   -7.1246    0.0000 C   0  0  3  0  0  0  0  0  0  0  0  0
    4.2690   -6.6246    0.0000 C   0  0  3  0  0  0  0  0  0  0  0  0
    7.7331   -6.6246    0.0000 C   0  0  3  0  0  0  0  0  0  0  0  0
    8.5991   -7.1246    0.0000 C   0  0  3  0  0  0  0  0  0  0  0  0
    6.0010   -5.6246    0.0000 C   0  0  3  0  0  0  0  0  0  0  0  0
    4.2690   -5.6246    0.0000 C   0  0  3  0  0  0  0  0  0  0  0  0
    9.4651   -6.6246    0.0000 C   0  0  3  0  0  0  0  0  0  0  0  0
    9.4651   -5.6246    0.0000 C   0  0  3  0  0  0  0  0  0  0  0  0
    8.5991   -5.1246    0.0000 C   0  0  3  0  0  0  0  0  0  0  0  0
    3.4030   -5.1246    0.0000 C   0  0  0  0  0  0  0  0  0  0  0  0
    8.5991   -4.1246    0.0000 C   0  0  0  0  0  0  0  0  0  0  0  0
    6.0423    2.4479    0.0000 C   0  0  3  0  0  0  0  0  0  0  0  0
    5.1744    1.9513    0.0000 C   0  0  3  0  0  0  0  0  0  0  0  0
    6.9064    1.9446    0.0000 C   0  0  3  0  0  0  0  0  0  0  0  0
    5.1705    0.9513    0.0000 C   0  0  3  0  0  0  0  0  0  0  0  0
    6.9026    0.9446    0.0000 C   0  0  3  0  0  0  0  0  0  0  0  0
    6.8671   -4.1246    0.0000 C   0  0  0  0  0  0  0  0  0  0  0  0
    4.3026    0.4546    0.0000 C   0  0  0  0  0  0  0  0  0  0  0  0
    7.7671   -3.6003    0.0000 C   0  0  0  0  0  0  0  0  0  0  0  0
    5.9670   -3.6003    0.0000 C   0  0  0  0  0  0  0  0  0  0  0  0
    7.7628   -0.5587    0.0000 C   0  0  0  0  0  0  0  0  0  0  0  0
    7.7551   -2.5587    0.0000 C   0  0  0  0  0  0  0  0  0  0  0  0
    6.8910   -2.0554    0.0000 C   0  0  0  0  0  0  0  0  0  0  0  0
    5.9790   -2.5587    0.0000 C   0  0  0  0  0  0  0  0  0  0  0  0
    6.8948   -1.0554    0.0000 C   0  0  0  0  0  0  0  0  0  0  0  0
    8.6269   -1.0620    0.0000 C   0  0  0  0  0  0  0  0  0  0  0  0
    7.7782    3.4413    0.0000 C   0  0  0  0  0  0  0  0  0  0  0  0
    9.4948   -0.5654    0.0000 C   0  0  0  0  0  0  0  0  0  0  0  0
    8.6462    3.9379    0.0000 C   0  0  0  0  0  0  0  0  0  0  0  0
    9.4987    0.4346    0.0000 C   0  0  0  0  0  0  0  0  0  0  0  0
   10.3589   -1.0687    0.0000 C   0  0  0  0  0  0  0  0  0  0  0  0
    8.6500    4.9379    0.0000 C   0  0  0  0  0  0  0  0  0  0  0  0
   10.3666    0.9313    0.0000 C   0  0  0  0  0  0  0  0  0  0  0  0
   11.2269   -0.5721    0.0000 C   0  0  0  0  0  0  0  0  0  0  0  0
   11.2307    0.4279    0.0000 C   0  0  0  0  0  0  0  0  0  0  0  0
    9.5180    5.4346    0.0000 C   0  0  0  0  0  0  0  0  0  0  0  0
    9.5218    6.4346    0.0000 C   0  0  0  0  0  0  0  0  0  0  0  0
   10.3820    4.9312    0.0000 C   0  0  0  0  0  0  0  0  0  0  0  0
   11.2500    5.4279    0.0000 C   0  0  0  0  0  0  0  0  0  0  0  0
   10.3898    6.9312    0.0000 C   0  0  0  0  0  0  0  0  0  0  0  0
   11.2538    6.4279    0.0000 C   0  0  0  0  0  0  0  0  0  0  0  0
   12.9820    5.4212    0.0000 C   0  0  0  0  0  0  0  0  0  0  0  0
    9.5295    8.4346    0.0000 C   0  0  0  0  0  0  0  0  0  0  0  0
    6.0010   -7.2446    0.0000 H   0  0  0  0  0  0  0  0  0  0  0  0
    4.5981   -7.4346    0.0000 H   0  0  0  0  0  0  0  0  0  0  0  0
    4.2690   -7.2446    0.0000 H   0  0  0  0  0  0  0  0  0  0  0  0
    7.1962   -6.3146    0.0000 H   0  0  0  0  0  0  0  0  0  0  0  0
    8.0622   -7.4346    0.0000 H   0  0  0  0  0  0  0  0  0  0  0  0
    6.0010   -5.0046    0.0000 H   0  0  0  0  0  0  0  0  0  0  0  0
    4.2690   -5.0046    0.0000 H   0  0  0  0  0  0  0  0  0  0  0  0
    9.4651   -7.2446    0.0000 H   0  0  0  0  0  0  0  0  0  0  0  0
   10.0021   -5.9346    0.0000 H   0  0  0  0  0  0  0  0  0  0  0  0
    8.0622   -4.8146    0.0000 H   0  0  0  0  0  0  0  0  0  0  0  0
    3.8015   -4.6496    0.0000 H   0  0  0  0  0  0  0  0  0  0  0  0
    3.0044   -4.6496    0.0000 H   0  0  0  0  0  0  0  0  0  0  0  0
    8.3871   -3.5419    0.0000 H   0  0  0  0  0  0  0  0  0  0  0  0
    7.9885   -4.2322    0.0000 H   0  0  0  0  0  0  0  0  0  0  0  0
    4.5981   -8.4346    0.0000 H   0  0  0  0  0  0  0  0  0  0  0  0
    5.5066    2.7600    0.0000 H   0  0  0  0  0  0  0  0  0  0  0  0
    5.1768    2.5713    0.0000 H   0  0  0  0  0  0  0  0  0  0  0  0
    6.9088    2.5646    0.0000 H   0  0  0  0  0  0  0  0  0  0  0  0
    3.4030   -7.7446    0.0000 H   0  0  0  0  0  0  0  0  0  0  0  0
    5.1681    0.3313    0.0000 H   0  0  0  0  0  0  0  0  0  0  0  0
    8.0622   -8.4346    0.0000 H   0  0  0  0  0  0  0  0  0  0  0  0
    7.4407    1.2525    0.0000 H   0  0  0  0  0  0  0  0  0  0  0  0
   10.3312   -7.7446    0.0000 H   0  0  0  0  0  0  0  0  0  0  0  0
   10.8681   -5.4346    0.0000 H   0  0  0  0  0  0  0  0  0  0  0  0
    4.0928    1.0381    0.0000 H   0  0  0  0  0  0  0  0  0  0  0  0
    3.6916    0.3493    0.0000 H   0  0  0  0  0  0  0  0  0  0  0  0
    2.0000   -5.3146    0.0000 H   0  0  0  0  0  0  0  0  0  0  0  0
   10.0021   -3.9346    0.0000 H   0  0  0  0  0  0  0  0  0  0  0  0
    8.3064   -3.9061    0.0000 H   0  0  0  0  0  0  0  0  0  0  0  0
    5.4277   -3.9061    0.0000 H   0  0  0  0  0  0  0  0  0  0  0  0
    5.5104    3.7600    0.0000 H   0  0  0  0  0  0  0  0  0  0  0  0
    3.7722    2.1467    0.0000 H   0  0  0  0  0  0  0  0  0  0  0  0
    3.7606   -0.8533    0.0000 H   0  0  0  0  0  0  0  0  0  0  0  0
    4.5792   -2.3471    0.0000 H   0  0  0  0  0  0  0  0  0  0  0  0
    9.1819    3.6258    0.0000 H   0  0  0  0  0  0  0  0  0  0  0  0
    8.9630    0.7467    0.0000 H   0  0  0  0  0  0  0  0  0  0  0  0
   10.3565   -1.6887    0.0000 H   0  0  0  0  0  0  0  0  0  0  0  0
    8.1143    5.2500    0.0000 H   0  0  0  0  0  0  0  0  0  0  0  0
   10.3690    1.5513    0.0000 H   0  0  0  0  0  0  0  0  0  0  0  0
   11.7626   -0.8841    0.0000 H   0  0  0  0  0  0  0  0  0  0  0  0
    8.9861    6.7466    0.0000 H   0  0  0  0  0  0  0  0  0  0  0  0
   10.3797    4.3112    0.0000 H   0  0  0  0  0  0  0  0  0  0  0  0
   12.1011    1.5446    0.0000 H   0  0  0  0  0  0  0  0  0  0  0  0
   12.1242    7.5445    0.0000 H   0  0  0  0  0  0  0  0  0  0  0  0
   13.2900    4.8831    0.0000 H   0  0  0  0  0  0  0  0  0  0  0  0
   13.5202    5.7291    0.0000 H   0  0  0  0  0  0  0  0  0  0  0  0
   12.6741    5.9593    0.0000 H   0  0  0  0  0  0  0  0  0  0  0  0
    9.8416    8.9703    0.0000 H   0  0  0  0  0  0  0  0  0  0  0  0
    8.9938    8.7466    0.0000 H   0  0  0  0  0  0  0  0  0  0  0  0
    9.2174    7.8988    0.0000 H   0  0  0  0  0  0  0  0  0  0  0  0
  1 26  1  0  0  0  0
  1 29  1  0  0  0  0
  2 31  1  0  0  0  0
  2 32  1  0  0  0  0
  3 29  1  0  0  0  0
  3 35  1  0  0  0  0
  4 31  1  0  0  0  0
  4 43  1  0  0  0  0
  5 27  1  0  0  0  0
  5 84  1  0  0  0  0
  6 28  1  0  0  0  0
  6 88  1  0  0  0  0
  7 30  1  0  0  0  0
  7 90  1  0  0  0  0
  8 33  1  0  0  0  0
  8 92  1  0  0  0  0
  9 34  1  0  0  0  0
  9 93  1  0  0  0  0
 10 41  1  0  0  0  0
 10 42  1  0  0  0  0
 11 36  1  0  0  0  0
 11 96  1  0  0  0  0
 12 37  1  0  0  0  0
 12 97  1  0  0  0  0
 13 42  1  0  0  0  0
 13 47  1  0  0  0  0
 14 40  1  0  0  0  0
 14 53  1  0  0  0  0
 15 38  1  0  0  0  0
 15100  1  0  0  0  0
 16 39  1  0  0  0  0
 16101  1  0  0  0  0
 17 48  1  0  0  0  0
 17 52  1  0  0  0  0
 18 44  1  0  0  0  0
 18102  1  0  0  0  0
 19 50  1  0  0  0  0
 19103  1  0  0  0  0
 20 51  2  0  0  0  0
 21 53  2  0  0  0  0
 22 61  1  0  0  0  0
 22112  1  0  0  0  0
 23 65  1  0  0  0  0
 23 68  1  0  0  0  0
 24 66  1  0  0  0  0
 24 69  1  0  0  0  0
 25 67  1  0  0  0  0
 25113  1  0  0  0  0
 26 27  1  0  0  0  0
 26 31  1  0  0  0  0
 26 70  1  0  0  0  0
 27 28  1  0  0  0  0
 27 71  1  0  0  0  0
 28 32  1  0  0  0  0
 28 72  1  0  0  0  0
 29 30  1  0  0  0  0
 29 73  1  0  0  0  0
 30 33  1  0  0  0  0
 30 74  1  0  0  0  0
 31 75  1  0  0  0  0
 32 36  1  0  0  0  0
 32 76  1  0  0  0  0
 33 34  1  0  0  0  0
 33 77  1  0  0  0  0
 34 35  1  0  0  0  0
 34 78  1  0  0  0  0
 35 37  1  0  0  0  0
 35 79  1  0  0  0  0
 36 80  1  0  0  0  0
 36 81  1  0  0  0  0
 37 82  1  0  0  0  0
 37 83  1  0  0  0  0
 38 39  1  0  0  0  0
 38 40  1  0  0  0  0
 38 85  1  0  0  0  0
 39 41  1  0  0  0  0
 39 86  1  0  0  0  0
 40 42  1  0  0  0  0
 40 87  1  0  0  0  0
 41 44  1  0  0  0  0
 41 89  1  0  0  0  0
 42 91  1  0  0  0  0
 43 45  1  0  0  0  0
 43 46  2  0  0  0  0
 44 94  1  0  0  0  0
 44 95  1  0  0  0  0
 45 48  2  0  0  0  0
 45 98  1  0  0  0  0
 46 50  1  0  0  0  0
 46 99  1  0  0  0  0
 47 51  1  0  0  0  0
 47 52  2  0  0  0  0
 48 49  1  0  0  0  0
 49 50  2  0  0  0  0
 49 51  1  0  0  0  0
 52 54  1  0  0  0  0
 53 55  1  0  0  0  0
 54 56  2  0  0  0  0
 54 57  1  0  0  0  0
 55 58  2  0  0  0  0
 55104  1  0  0  0  0
 56 59  1  0  0  0  0
 56105  1  0  0  0  0
 57 60  2  0  0  0  0
 57106  1  0  0  0  0
 58 62  1  0  0  0  0
 58107  1  0  0  0  0
 59 61  2  0  0  0  0
 59108  1  0  0  0  0
 60 61  1  0  0  0  0
 60109  1  0  0  0  0
 62 63  2  0  0  0  0
 62 64  1  0  0  0  0
 63 66  1  0  0  0  0
 63110  1  0  0  0  0
 64 65  2  0  0  0  0
 64111  1  0  0  0  0
 65 67  1  0  0  0  0
 66 67  2  0  0  0  0
 68114  1  0  0  0  0
 68115  1  0  0  0  0
 68116  1  0  0  0  0
 69117  1  0  0  0  0
 69118  1  0  0  0  0
 69119  1  0  0  0  0
M  END
>  <PUBCHEM_COMPOUND_CID>
131752462

>  <PUBCHEM_COMPOUND_CANONICALIZED>
1

>  <PUBCHEM_CACTVS_COMPLEXITY>
1750

>  <PUBCHEM_CACTVS_HBOND_ACCEPTOR>
25

>  <PUBCHEM_CACTVS_HBOND_DONOR>
13

>  <PUBCHEM_CACTVS_ROTATABLE_BOND>
16

>  <PUBCHEM_CACTVS_SUBSKEYS>
AAADcfB8PgAAAAAAAAAAAAAAAAAAAAAAAAA0aNECAAAAAACBUAAAGgAACAAADBSwmAMyDoAABgCIAqDSCAICCAAkIAAIiAFGiMgdNzaGNR6ieWOl4BUPuYfI7LzOIAABCAAIQABAAAIQABCAAAAAAAAAAA==

>  <PUBCHEM_IUPAC_OPENEYE_NAME>
[2-[7-[4,5-dihydroxy-6-(hydroxymethyl)-3-[3,4,5-trihydroxy-6-(hydroxymethyl)tetrahydropyran-2-yl]oxy-tetrahydropyran-2-yl]oxy-5-hydroxy-2-(4-hydroxyphenyl)-4-oxo-chromen-3-yl]oxy-4,5-dihydroxy-6-(hydroxymethyl)tetrahydropyran-3-yl] (E)-3-(4-hydroxy-3,5-dimethoxy-phenyl)prop-2-enoate

>  <PUBCHEM_IUPAC_CAS_NAME>
(E)-3-(4-hydroxy-3,5-dimethoxyphenyl)-2-propenoic acid [2-[[7-[[4,5-dihydroxy-6-(hydroxymethyl)-3-[[3,4,5-trihydroxy-6-(hydroxymethyl)-2-oxanyl]oxy]-2-oxanyl]oxy]-5-hydroxy-2-(4-hydroxyphenyl)-4-oxo-1-benzopyran-3-yl]oxy]-4,5-dihydroxy-6-(hydroxymethyl)-3-oxanyl] ester

>  <PUBCHEM_IUPAC_NAME>
[2-[7-[4,5-dihydroxy-6-(hydroxymethyl)-3-[3,4,5-trihydroxy-6-(hydroxymethyl)oxan-2-yl]oxyoxan-2-yl]oxy-5-hydroxy-2-(4-hydroxyphenyl)-4-oxochromen-3-yl]oxy-4,5-dihydroxy-6-(hydroxymethyl)oxan-3-yl] (E)-3-(4-hydroxy-3,5-dimethoxyphenyl)prop-2-enoate

>  <PUBCHEM_IUPAC_SYSTEMATIC_NAME>
[6-(hydroxymethyl)-2-[7-[6-(hydroxymethyl)-3-[6-(hydroxymethyl)-3,4,5-tris(oxidanyl)oxan-2-yl]oxy-4,5-bis(oxidanyl)oxan-2-yl]oxy-2-(4-hydroxyphenyl)-5-oxidanyl-4-oxidanylidene-chromen-3-yl]oxy-4,5-bis(oxidanyl)oxan-3-yl] (E)-3-(3,5-dimethoxy-4-oxidanyl-phenyl)prop-2-enoate

>  <PUBCHEM_IUPAC_TRADITIONAL_NAME>
(E)-3-(4-hydroxy-3,5-dimethoxy-phenyl)acrylic acid [2-[7-[4,5-dihydroxy-6-methylol-3-(3,4,5-trihydroxy-6-methylol-tetrahydropyran-2-yl)oxy-tetrahydropyran-2-yl]oxy-5-hydroxy-2-(4-hydroxyphenyl)-4-keto-chromen-3-yl]oxy-4,5-dihydroxy-6-methylol-tetrahydropyran-3-yl] ester

>  <PUBCHEM_IUPAC_INCHI>
InChI=1S/C44H50O25/c1-60-22-9-16(10-23(61-2)29(22)51)3-8-27(50)67-40-35(57)31(53)26(15-47)66-44(40)68-39-33(55)28-20(49)11-19(12-21(28)63-38(39)17-4-6-18(48)7-5-17)62-43-41(36(58)32(54)25(14-46)65-43)69-42-37(59)34(56)30(52)24(13-45)64-42/h3-12,24-26,30-32,34-37,40-49,51-54,56-59H,13-15H2,1-2H3/b8-3+

>  <PUBCHEM_IUPAC_INCHIKEY>
JLYSGWXWSOZJMT-FPYGCLRLSA-N

>  <PUBCHEM_EXACT_MASS>
978.264

>  <PUBCHEM_MOLECULAR_FORMULA>
C44H50O25

>  <PUBCHEM_MOLECULAR_WEIGHT>
978.859

>  <PUBCHEM_OPENEYE_CAN_SMILES>
COC1=CC(=CC(=C1O)OC)C=CC(=O)OC2C(C(C(OC2OC3=C(OC4=CC(=CC(=C4C3=O)O)OC5C(C(C(C(O5)CO)O)O)OC6C(C(C(C(O6)CO)O)O)O)C7=CC=C(C=C7)O)CO)O)O

>  <PUBCHEM_OPENEYE_ISO_SMILES>
COC1=CC(=CC(=C1O)OC)/C=C/C(=O)OC2C(C(C(OC2OC3=C(OC4=CC(=CC(=C4C3=O)O)OC5C(C(C(C(O5)CO)O)O)OC6C(C(C(C(O6)CO)O)O)O)C7=CC=C(C=C7)O)CO)O)O

>  <PUBCHEM_CACTVS_TPSA>
389

>  <PUBCHEM_MONOISOTOPIC_WEIGHT>
978.264

>  <PUBCHEM_TOTAL_CHARGE>
0

>  <PUBCHEM_HEAVY_ATOM_COUNT>
69

>  <PUBCHEM_ATOM_DEF_STEREO_COUNT>
0

>  <PUBCHEM_ATOM_UDEF_STEREO_COUNT>
15

>  <PUBCHEM_BOND_DEF_STEREO_COUNT>
1

>  <PUBCHEM_BOND_UDEF_STEREO_COUNT>
0

>  <PUBCHEM_ISOTOPIC_ATOM_COUNT>
0

>  <PUBCHEM_COMPONENT_COUNT>
1

>  <PUBCHEM_CACTVS_TAUTO_COUNT>
72

>  <PUBCHEM_COORDINATE_TYPE>
1
5
255

>  <PUBCHEM_BONDANNOTATIONS>
26  1  3
29  1  3
42  13  3
40  14  3
38  15  3
39  16  3
17  48  8
17  52  8
32  36  3
35  37  3
31  4  3
41  44  3
43  45  8
43  46  8
45  48  8
46  50  8
47  51  8
47  52  8
48  49  8
49  50  8
49  51  8
27  5  3
54  56  8
54  57  8
56  59  8
57  60  8
59  61  8
28  6  3
60  61  8
62  63  8
62  64  8
63  66  8
64  65  8
65  67  8
66  67  8
30  7  3
33  8  3
34  9  3

$$$$
