131752731
 OpenBabel06101807152D

199209  0  0  1  0  0  0  0  0999 V2000
    4.6836    5.4136    0.0000 O   0  0  0  0  0  0  0  0  0  0  0  0
    2.8522    4.7054    0.0000 O   0  0  0  0  0  0  0  0  0  0  0  0
   11.1116    0.0591    0.0000 O   0  0  0  0  0  0  0  0  0  0  0  0
   10.2456   -1.4409    0.0000 O   0  0  0  0  0  0  0  0  0  0  0  0
    3.3168    9.2448    0.0000 O   0  0  0  0  0  0  0  0  0  0  0  0
   12.8437   -0.9409    0.0000 O   0  0  0  0  0  0  0  0  0  0  0  0
   12.8437   -2.9409    0.0000 O   0  0  0  0  0  0  0  0  0  0  0  0
   11.1116   -3.9409    0.0000 O   0  0  0  0  0  0  0  0  0  0  0  0
    8.5136   -2.4409    0.0000 O   0  0  0  0  0  0  0  0  0  0  0  0
    4.8142   10.1153    0.0000 O   0  0  0  0  0  0  0  0  0  0  0  0
   13.7097   -1.4409    0.0000 O   0  0  0  0  0  0  0  0  0  0  0  0
    9.3796   -3.9409    0.0000 O   0  0  0  0  0  0  0  0  0  0  0  0
    2.3116   10.9739    0.0000 O   0  0  0  0  0  0  0  0  0  0  0  0
   14.5758   -3.9409    0.0000 O   0  0  0  0  0  0  0  0  0  0  0  0
   11.1116   -5.9409    0.0000 O   0  0  0  0  0  0  0  0  0  0  0  0
    3.3064   12.7089    0.0000 O   0  0  0  0  0  0  0  0  0  0  0  0
    5.3064   12.7149    0.0000 O   0  0  0  0  0  0  0  0  0  0  0  0
   16.3078   -2.9409    0.0000 O   0  0  0  0  0  0  0  0  0  0  0  0
    9.3796   -6.9409    0.0000 O   0  0  0  0  0  0  0  0  0  0  0  0
   16.3078   -0.9409    0.0000 O   0  0  0  0  0  0  0  0  0  0  0  0
    7.6476   -5.9409    0.0000 O   0  0  0  0  0  0  0  0  0  0  0  0
    6.8090   11.8533    0.0000 O   0  0  0  0  0  0  0  0  0  0  0  0
   10.2456   -7.4409    0.0000 O   0  0  0  0  0  0  0  0  0  0  0  0
    6.7815   -4.4409    0.0000 O   0  0  0  0  0  0  0  0  0  0  0  0
   12.8437   -6.9409    0.0000 O   0  0  0  0  0  0  0  0  0  0  0  0
   12.8437   -8.9409    0.0000 O   0  0  0  0  0  0  0  0  0  0  0  0
   11.1116   -9.9409    0.0000 O   0  0  0  0  0  0  0  0  0  0  0  0
    9.3796   -9.9409    0.0000 O   0  0  0  0  0  0  0  0  0  0  0  0
   11.9777  -10.4409    0.0000 O   0  0  0  0  0  0  0  0  0  0  0  0
   14.5758   -9.9409    0.0000 O   0  0  0  0  0  0  0  0  0  0  0  0
   14.5758  -11.9409    0.0000 O   0  0  0  0  0  0  0  0  0  0  0  0
   12.8437  -12.9409    0.0000 O   0  0  0  0  0  0  0  0  0  0  0  0
   10.2456  -11.4409    0.0000 O   0  0  0  0  0  0  0  0  0  0  0  0
    5.7596    3.1829    0.0000 C   0  0  3  0  0  0  0  0  0  0  0  0
    6.6237    3.6862    0.0000 C   0  0  3  0  0  0  0  0  0  0  0  0
    7.4917    3.1896    0.0000 C   0  0  3  0  0  0  0  0  0  0  0  0
    5.0200    3.8471    0.0000 C   0  0  3  0  0  0  0  0  0  0  0  0
    7.4955    2.1896    0.0000 C   0  0  3  0  0  0  0  0  0  0  0  0
    8.3915    1.6584    0.0000 C   0  0  3  0  0  0  0  0  0  0  0  0
    5.4217    4.7565    0.0000 C   0  0  3  0  0  0  0  0  0  0  0  0
    6.4108    4.6572    0.0000 C   0  0  0  0  0  0  0  0  0  0  0  0
    5.7635    2.1829    0.0000 C   0  0  0  0  0  0  0  0  0  0  0  0
    6.6314    1.6862    0.0000 C   0  0  0  0  0  0  0  0  0  0  0  0
    9.2956    2.1757    0.0000 C   0  0  3  0  0  0  0  0  0  0  0  0
    4.0372    3.9500    0.0000 C   0  0  3  0  0  0  0  0  0  0  0  0
    8.3835    3.7277    0.0000 C   0  0  0  0  0  0  0  0  0  0  0  0
    9.2916    3.2173    0.0000 C   0  0  0  0  0  0  0  0  0  0  0  0
    4.8955    2.6796    0.0000 C   0  0  0  0  0  0  0  0  0  0  0  0
    3.8297    4.9162    0.0000 C   0  0  3  0  0  0  0  0  0  0  0  0
    8.3706    0.5736    0.0000 C   0  0  0  0  0  0  0  0  0  0  0  0
   10.2414    1.6441    0.0000 C   0  0  0  0  0  0  0  0  0  0  0  0
    7.5236    1.1617    0.0000 C   0  0  0  0  0  0  0  0  0  0  0  0
    9.3039    0.0202    0.0000 C   0  0  0  0  0  0  0  0  0  0  0  0
   10.2456    0.5591    0.0000 C   0  0  3  0  0  0  0  0  0  0  0  0
    3.3690    3.2060    0.0000 C   0  0  0  0  0  0  0  0  0  0  0  0
    3.3271    5.7807    0.0000 C   0  0  0  0  0  0  0  0  0  0  0  0
    3.8245    6.6482    0.0000 C   0  0  0  0  0  0  0  0  0  0  0  0
    3.3220    7.5128    0.0000 C   0  0  3  0  0  0  0  0  0  0  0  0
   11.1116   -0.9409    0.0000 C   0  0  3  0  0  0  0  0  0  0  0  0
   11.9777   -1.4409    0.0000 C   0  0  3  0  0  0  0  0  0  0  0  0
    3.8194    8.3803    0.0000 C   0  0  0  0  0  0  0  0  0  0  0  0
    2.3220    7.5098    0.0000 C   0  0  0  0  0  0  0  0  0  0  0  0
   11.9777   -2.4409    0.0000 C   0  0  3  0  0  0  0  0  0  0  0  0
   10.2456   -2.4409    0.0000 C   0  0  3  0  0  0  0  0  0  0  0  0
   11.1116   -2.9409    0.0000 C   0  0  3  0  0  0  0  0  0  0  0  0
    9.3796   -2.9409    0.0000 C   0  0  0  0  0  0  0  0  0  0  0  0
    3.8142   10.1123    0.0000 C   0  0  3  0  0  0  0  0  0  0  0  0
   13.7097   -2.4409    0.0000 C   0  0  3  0  0  0  0  0  0  0  0  0
    3.3116   10.9769    0.0000 C   0  0  3  0  0  0  0  0  0  0  0  0
   10.2456   -4.4409    0.0000 C   0  0  3  0  0  0  0  0  0  0  0  0
   14.5758   -2.9409    0.0000 C   0  0  3  0  0  0  0  0  0  0  0  0
    3.8090   11.8444    0.0000 C   0  0  3  0  0  0  0  0  0  0  0  0
   10.2456   -5.4409    0.0000 C   0  0  3  0  0  0  0  0  0  0  0  0
    5.3116   10.9828    0.0000 C   0  0  3  0  0  0  0  0  0  0  0  0
    4.8090   11.8474    0.0000 C   0  0  3  0  0  0  0  0  0  0  0  0
   15.4418   -2.4409    0.0000 C   0  0  3  0  0  0  0  0  0  0  0  0
    9.3796   -5.9409    0.0000 C   0  0  3  0  0  0  0  0  0  0  0  0
   14.5758   -0.9409    0.0000 C   0  0  0  0  0  0  0  0  0  0  0  0
   15.4418   -1.4409    0.0000 C   0  0  3  0  0  0  0  0  0  0  0  0
    8.5136   -4.4409    0.0000 C   0  0  3  0  0  0  0  0  0  0  0  0
    8.5136   -5.4409    0.0000 C   0  0  3  0  0  0  0  0  0  0  0  0
    6.3116   10.9858    0.0000 C   0  0  0  0  0  0  0  0  0  0  0  0
    7.6476   -3.9409    0.0000 C   0  0  0  0  0  0  0  0  0  0  0  0
   11.1116   -6.9409    0.0000 C   0  0  3  0  0  0  0  0  0  0  0  0
   11.9777   -7.4409    0.0000 C   0  0  3  0  0  0  0  0  0  0  0  0
   11.9777   -8.4409    0.0000 C   0  0  3  0  0  0  0  0  0  0  0  0
   10.2456   -8.4409    0.0000 C   0  0  3  0  0  0  0  0  0  0  0  0
   11.1116   -8.9409    0.0000 C   0  0  3  0  0  0  0  0  0  0  0  0
    9.3796   -8.9409    0.0000 C   0  0  0  0  0  0  0  0  0  0  0  0
   12.8437   -9.9409    0.0000 C   0  0  3  0  0  0  0  0  0  0  0  0
   13.7097  -10.4409    0.0000 C   0  0  3  0  0  0  0  0  0  0  0  0
   13.7097  -11.4409    0.0000 C   0  0  3  0  0  0  0  0  0  0  0  0
   11.9777  -11.4409    0.0000 C   0  0  3  0  0  0  0  0  0  0  0  0
   12.8437  -11.9409    0.0000 C   0  0  3  0  0  0  0  0  0  0  0  0
   11.1116  -11.9409    0.0000 C   0  0  0  0  0  0  0  0  0  0  0  0
    7.1234    4.0532    0.0000 H   0  0  0  0  0  0  0  0  0  0  0  0
    7.4845    3.8095    0.0000 H   0  0  0  0  0  0  0  0  0  0  0  0
    4.7683    3.2805    0.0000 H   0  0  0  0  0  0  0  0  0  0  0  0
    8.0336    2.4975    0.0000 H   0  0  0  0  0  0  0  0  0  0  0  0
    5.6709    5.3242    0.0000 H   0  0  0  0  0  0  0  0  0  0  0  0
    7.0270    4.7257    0.0000 H   0  0  0  0  0  0  0  0  0  0  0  0
    6.4075    5.2772    0.0000 H   0  0  0  0  0  0  0  0  0  0  0  0
    5.1525    2.2882    0.0000 H   0  0  0  0  0  0  0  0  0  0  0  0
    5.5537    1.5995    0.0000 H   0  0  0  0  0  0  0  0  0  0  0  0
    6.2347    1.2098    0.0000 H   0  0  0  0  0  0  0  0  0  0  0  0
    7.0318    1.2128    0.0000 H   0  0  0  0  0  0  0  0  0  0  0  0
    9.8301    2.4898    0.0000 H   0  0  0  0  0  0  0  0  0  0  0  0
    3.4381    4.1095    0.0000 H   0  0  0  0  0  0  0  0  0  0  0  0
    8.7753    4.2082    0.0000 H   0  0  0  0  0  0  0  0  0  0  0  0
    7.9771    4.1959    0.0000 H   0  0  0  0  0  0  0  0  0  0  0  0
    9.9028    3.1136    0.0000 H   0  0  0  0  0  0  0  0  0  0  0  0
    9.4984    3.8018    0.0000 H   0  0  0  0  0  0  0  0  0  0  0  0
    4.5835    3.2153    0.0000 H   0  0  0  0  0  0  0  0  0  0  0  0
    4.3598    2.3675    0.0000 H   0  0  0  0  0  0  0  0  0  0  0  0
    5.2076    2.1438    0.0000 H   0  0  0  0  0  0  0  0  0  0  0  0
    7.7619    0.6914    0.0000 H   0  0  0  0  0  0  0  0  0  0  0  0
    8.1503   -0.0060    0.0000 H   0  0  0  0  0  0  0  0  0  0  0  0
   10.8527    1.5404    0.0000 H   0  0  0  0  0  0  0  0  0  0  0  0
   10.4482    2.2286    0.0000 H   0  0  0  0  0  0  0  0  0  0  0  0
    7.2156    1.6998    0.0000 H   0  0  0  0  0  0  0  0  0  0  0  0
    6.9854    0.8538    0.0000 H   0  0  0  0  0  0  0  0  0  0  0  0
    7.8315    0.6236    0.0000 H   0  0  0  0  0  0  0  0  0  0  0  0
    8.9011   -0.4511    0.0000 H   0  0  0  0  0  0  0  0  0  0  0  0
    9.6994   -0.4573    0.0000 H   0  0  0  0  0  0  0  0  0  0  0  0
   10.7820    0.8702    0.0000 H   0  0  0  0  0  0  0  0  0  0  0  0
    2.9078    3.6203    0.0000 H   0  0  0  0  0  0  0  0  0  0  0  0
    2.9548    2.7448    0.0000 H   0  0  0  0  0  0  0  0  0  0  0  0
    3.8303    2.7918    0.0000 H   0  0  0  0  0  0  0  0  0  0  0  0
    2.8510    6.1778    0.0000 H   0  0  0  0  0  0  0  0  0  0  0  0
    2.8534    5.3808    0.0000 H   0  0  0  0  0  0  0  0  0  0  0  0
    2.4360    5.1649    0.0000 H   0  0  0  0  0  0  0  0  0  0  0  0
    4.3007    6.2511    0.0000 H   0  0  0  0  0  0  0  0  0  0  0  0
    4.2983    7.0482    0.0000 H   0  0  0  0  0  0  0  0  0  0  0  0
    3.0104    8.0488    0.0000 H   0  0  0  0  0  0  0  0  0  0  0  0
   10.5747   -0.6309    0.0000 H   0  0  0  0  0  0  0  0  0  0  0  0
   12.5146   -1.7509    0.0000 H   0  0  0  0  0  0  0  0  0  0  0  0
    4.2955    7.9832    0.0000 H   0  0  0  0  0  0  0  0  0  0  0  0
    4.2931    8.7802    0.0000 H   0  0  0  0  0  0  0  0  0  0  0  0
    2.3201    8.1298    0.0000 H   0  0  0  0  0  0  0  0  0  0  0  0
    1.7020    7.5079    0.0000 H   0  0  0  0  0  0  0  0  0  0  0  0
    2.3238    6.8898    0.0000 H   0  0  0  0  0  0  0  0  0  0  0  0
   11.9777   -3.0609    0.0000 H   0  0  0  0  0  0  0  0  0  0  0  0
    9.7087   -2.1309    0.0000 H   0  0  0  0  0  0  0  0  0  0  0  0
   10.5747   -3.2509    0.0000 H   0  0  0  0  0  0  0  0  0  0  0  0
   12.8437   -0.3209    0.0000 H   0  0  0  0  0  0  0  0  0  0  0  0
    8.9811   -3.4158    0.0000 H   0  0  0  0  0  0  0  0  0  0  0  0
    9.7781   -3.4158    0.0000 H   0  0  0  0  0  0  0  0  0  0  0  0
    3.1942   10.1105    0.0000 H   0  0  0  0  0  0  0  0  0  0  0  0
   13.7097   -3.0609    0.0000 H   0  0  0  0  0  0  0  0  0  0  0  0
    3.0000   11.5129    0.0000 H   0  0  0  0  0  0  0  0  0  0  0  0
   10.7826   -4.7509    0.0000 H   0  0  0  0  0  0  0  0  0  0  0  0
    7.9766   -2.7509    0.0000 H   0  0  0  0  0  0  0  0  0  0  0  0
   15.1127   -3.2509    0.0000 H   0  0  0  0  0  0  0  0  0  0  0  0
    4.1174   12.3822    0.0000 H   0  0  0  0  0  0  0  0  0  0  0  0
   10.2456   -6.0609    0.0000 H   0  0  0  0  0  0  0  0  0  0  0  0
    5.6232   10.4468    0.0000 H   0  0  0  0  0  0  0  0  0  0  0  0
    5.4290   11.8492    0.0000 H   0  0  0  0  0  0  0  0  0  0  0  0
   15.9787   -2.1309    0.0000 H   0  0  0  0  0  0  0  0  0  0  0  0
    8.8427   -6.2509    0.0000 H   0  0  0  0  0  0  0  0  0  0  0  0
    2.0000   11.5099    0.0000 H   0  0  0  0  0  0  0  0  0  0  0  0
   14.9743   -0.4659    0.0000 H   0  0  0  0  0  0  0  0  0  0  0  0
   14.1772   -0.4659    0.0000 H   0  0  0  0  0  0  0  0  0  0  0  0
   15.4418   -0.8209    0.0000 H   0  0  0  0  0  0  0  0  0  0  0  0
    8.5136   -3.8209    0.0000 H   0  0  0  0  0  0  0  0  0  0  0  0
    7.9766   -5.1309    0.0000 H   0  0  0  0  0  0  0  0  0  0  0  0
    6.2058   10.3749    0.0000 H   0  0  0  0  0  0  0  0  0  0  0  0
    6.8948   10.7755    0.0000 H   0  0  0  0  0  0  0  0  0  0  0  0
   15.1127   -4.2509    0.0000 H   0  0  0  0  0  0  0  0  0  0  0  0
    3.6148   13.2468    0.0000 H   0  0  0  0  0  0  0  0  0  0  0  0
    4.9948   13.2509    0.0000 H   0  0  0  0  0  0  0  0  0  0  0  0
    8.0461   -3.4659    0.0000 H   0  0  0  0  0  0  0  0  0  0  0  0
    7.2490   -3.4659    0.0000 H   0  0  0  0  0  0  0  0  0  0  0  0
   16.8447   -2.6309    0.0000 H   0  0  0  0  0  0  0  0  0  0  0  0
   10.5747   -6.6309    0.0000 H   0  0  0  0  0  0  0  0  0  0  0  0
    8.8427   -7.2509    0.0000 H   0  0  0  0  0  0  0  0  0  0  0  0
   16.3078   -0.3209    0.0000 H   0  0  0  0  0  0  0  0  0  0  0  0
    7.1106   -5.6309    0.0000 H   0  0  0  0  0  0  0  0  0  0  0  0
    7.4290   11.8552    0.0000 H   0  0  0  0  0  0  0  0  0  0  0  0
   12.5146   -7.7509    0.0000 H   0  0  0  0  0  0  0  0  0  0  0  0
    6.2446   -4.1309    0.0000 H   0  0  0  0  0  0  0  0  0  0  0  0
   11.9777   -9.0609    0.0000 H   0  0  0  0  0  0  0  0  0  0  0  0
    9.7087   -8.1309    0.0000 H   0  0  0  0  0  0  0  0  0  0  0  0
   10.5747   -9.2509    0.0000 H   0  0  0  0  0  0  0  0  0  0  0  0
   13.3806   -7.2509    0.0000 H   0  0  0  0  0  0  0  0  0  0  0  0
    9.1676   -8.3583    0.0000 H   0  0  0  0  0  0  0  0  0  0  0  0
    8.7690   -9.0486    0.0000 H   0  0  0  0  0  0  0  0  0  0  0  0
   10.5747  -10.2509    0.0000 H   0  0  0  0  0  0  0  0  0  0  0  0
   12.3068   -9.6309    0.0000 H   0  0  0  0  0  0  0  0  0  0  0  0
   14.2467  -10.7509    0.0000 H   0  0  0  0  0  0  0  0  0  0  0  0
    8.8427  -10.2509    0.0000 H   0  0  0  0  0  0  0  0  0  0  0  0
   14.2467  -11.1309    0.0000 H   0  0  0  0  0  0  0  0  0  0  0  0
   11.4407  -11.1309    0.0000 H   0  0  0  0  0  0  0  0  0  0  0  0
   13.3806  -12.2509    0.0000 H   0  0  0  0  0  0  0  0  0  0  0  0
   15.1127  -10.2509    0.0000 H   0  0  0  0  0  0  0  0  0  0  0  0
   10.7131  -12.4158    0.0000 H   0  0  0  0  0  0  0  0  0  0  0  0
   11.5102  -12.4158    0.0000 H   0  0  0  0  0  0  0  0  0  0  0  0
   14.5758  -12.5609    0.0000 H   0  0  0  0  0  0  0  0  0  0  0  0
   12.3068  -13.2509    0.0000 H   0  0  0  0  0  0  0  0  0  0  0  0
    9.7087  -11.7509    0.0000 H   0  0  0  0  0  0  0  0  0  0  0  0
  1 40  1  0  0  0  0
  1 49  1  0  0  0  0
  2 49  1  0  0  0  0
  2131  1  0  0  0  0
  3 54  1  0  0  0  0
  3 59  1  0  0  0  0
  4 59  1  0  0  0  0
  4 64  1  0  0  0  0
  5 61  1  0  0  0  0
  5 67  1  0  0  0  0
  6 60  1  0  0  0  0
  6145  1  0  0  0  0
  7 63  1  0  0  0  0
  7 68  1  0  0  0  0
  8 65  1  0  0  0  0
  8 70  1  0  0  0  0
  9 66  1  0  0  0  0
  9152  1  0  0  0  0
 10 67  1  0  0  0  0
 10 74  1  0  0  0  0
 11 68  1  0  0  0  0
 11 78  1  0  0  0  0
 12 70  1  0  0  0  0
 12 80  1  0  0  0  0
 13 69  1  0  0  0  0
 13160  1  0  0  0  0
 14 71  1  0  0  0  0
 14168  1  0  0  0  0
 15 73  1  0  0  0  0
 15 84  1  0  0  0  0
 16 72  1  0  0  0  0
 16169  1  0  0  0  0
 17 75  1  0  0  0  0
 17170  1  0  0  0  0
 18 76  1  0  0  0  0
 18173  1  0  0  0  0
 19 77  1  0  0  0  0
 19175  1  0  0  0  0
 20 79  1  0  0  0  0
 20176  1  0  0  0  0
 21 81  1  0  0  0  0
 21177  1  0  0  0  0
 22 82  1  0  0  0  0
 22178  1  0  0  0  0
 23 84  1  0  0  0  0
 23 87  1  0  0  0  0
 24 83  1  0  0  0  0
 24180  1  0  0  0  0
 25 85  1  0  0  0  0
 25184  1  0  0  0  0
 26 86  1  0  0  0  0
 26 90  1  0  0  0  0
 27 88  1  0  0  0  0
 27187  1  0  0  0  0
 28 89  1  0  0  0  0
 28190  1  0  0  0  0
 29 90  1  0  0  0  0
 29 93  1  0  0  0  0
 30 91  1  0  0  0  0
 30194  1  0  0  0  0
 31 92  1  0  0  0  0
 31197  1  0  0  0  0
 32 94  1  0  0  0  0
 32198  1  0  0  0  0
 33 95  1  0  0  0  0
 33199  1  0  0  0  0
 34 35  1  0  0  0  0
 34 37  1  0  0  0  0
 34 42  1  0  0  0  0
 34 48  1  0  0  0  0
 35 36  1  0  0  0  0
 35 41  1  0  0  0  0
 35 96  1  0  0  0  0
 36 38  1  0  0  0  0
 36 46  1  0  0  0  0
 36 97  1  0  0  0  0
 37 40  1  0  0  0  0
 37 45  1  0  0  0  0
 37 98  1  0  0  0  0
 38 39  1  0  0  0  0
 38 43  1  0  0  0  0
 38 99  1  0  0  0  0
 39 44  1  0  0  0  0
 39 50  1  0  0  0  0
 39 52  1  0  0  0  0
 40 41  1  0  0  0  0
 40100  1  0  0  0  0
 41101  1  0  0  0  0
 41102  1  0  0  0  0
 42 43  1  0  0  0  0
 42103  1  0  0  0  0
 42104  1  0  0  0  0
 43105  1  0  0  0  0
 43106  1  0  0  0  0
 44 47  1  0  0  0  0
 44 51  1  0  0  0  0
 44107  1  0  0  0  0
 45 49  1  0  0  0  0
 45 55  1  0  0  0  0
 45108  1  0  0  0  0
 46 47  1  0  0  0  0
 46109  1  0  0  0  0
 46110  1  0  0  0  0
 47111  1  0  0  0  0
 47112  1  0  0  0  0
 48113  1  0  0  0  0
 48114  1  0  0  0  0
 48115  1  0  0  0  0
 49 56  1  0  0  0  0
 50 53  1  0  0  0  0
 50116  1  0  0  0  0
 50117  1  0  0  0  0
 51 54  1  0  0  0  0
 51118  1  0  0  0  0
 51119  1  0  0  0  0
 52120  1  0  0  0  0
 52121  1  0  0  0  0
 52122  1  0  0  0  0
 53 54  1  0  0  0  0
 53123  1  0  0  0  0
 53124  1  0  0  0  0
 54125  1  0  0  0  0
 55126  1  0  0  0  0
 55127  1  0  0  0  0
 55128  1  0  0  0  0
 56 57  1  0  0  0  0
 56129  1  0  0  0  0
 56130  1  0  0  0  0
 57 58  1  0  0  0  0
 57132  1  0  0  0  0
 57133  1  0  0  0  0
 58 61  1  0  0  0  0
 58 62  1  0  0  0  0
 58134  1  0  0  0  0
 59 60  1  0  0  0  0
 59135  1  0  0  0  0
 60 63  1  0  0  0  0
 60136  1  0  0  0  0
 61137  1  0  0  0  0
 61138  1  0  0  0  0
 62139  1  0  0  0  0
 62140  1  0  0  0  0
 62141  1  0  0  0  0
 63 65  1  0  0  0  0
 63142  1  0  0  0  0
 64 65  1  0  0  0  0
 64 66  1  0  0  0  0
 64143  1  0  0  0  0
 65144  1  0  0  0  0
 66146  1  0  0  0  0
 66147  1  0  0  0  0
 67 69  1  0  0  0  0
 67148  1  0  0  0  0
 68 71  1  0  0  0  0
 68149  1  0  0  0  0
 69 72  1  0  0  0  0
 69150  1  0  0  0  0
 70 73  1  0  0  0  0
 70151  1  0  0  0  0
 71 76  1  0  0  0  0
 71153  1  0  0  0  0
 72 75  1  0  0  0  0
 72154  1  0  0  0  0
 73 77  1  0  0  0  0
 73155  1  0  0  0  0
 74 75  1  0  0  0  0
 74 82  1  0  0  0  0
 74156  1  0  0  0  0
 75157  1  0  0  0  0
 76 79  1  0  0  0  0
 76158  1  0  0  0  0
 77 81  1  0  0  0  0
 77159  1  0  0  0  0
 78 79  1  0  0  0  0
 78161  1  0  0  0  0
 78162  1  0  0  0  0
 79163  1  0  0  0  0
 80 81  1  0  0  0  0
 80 83  1  0  0  0  0
 80164  1  0  0  0  0
 81165  1  0  0  0  0
 82166  1  0  0  0  0
 82167  1  0  0  0  0
 83171  1  0  0  0  0
 83172  1  0  0  0  0
 84 85  1  0  0  0  0
 84174  1  0  0  0  0
 85 86  1  0  0  0  0
 85179  1  0  0  0  0
 86 88  1  0  0  0  0
 86181  1  0  0  0  0
 87 88  1  0  0  0  0
 87 89  1  0  0  0  0
 87182  1  0  0  0  0
 88183  1  0  0  0  0
 89185  1  0  0  0  0
 89186  1  0  0  0  0
 90 91  1  0  0  0  0
 90188  1  0  0  0  0
 91 92  1  0  0  0  0
 91189  1  0  0  0  0
 92 94  1  0  0  0  0
 92191  1  0  0  0  0
 93 94  1  0  0  0  0
 93 95  1  0  0  0  0
 93192  1  0  0  0  0
 94193  1  0  0  0  0
 95195  1  0  0  0  0
 95196  1  0  0  0  0
M  END
>  <PUBCHEM_COMPOUND_CID>
131752731

>  <PUBCHEM_COMPOUND_CANONICALIZED>
1

>  <PUBCHEM_CACTVS_COMPLEXITY>
2470

>  <PUBCHEM_CACTVS_HBOND_ACCEPTOR>
33

>  <PUBCHEM_CACTVS_HBOND_DONOR>
20

>  <PUBCHEM_CACTVS_ROTATABLE_BOND>
21

>  <PUBCHEM_CACTVS_SUBSKEYS>
AAADcfB8PgAAAAAAAAAAAAAAAAAAAaIAAAA0aNEiQAASAGDAAAAAGgAACAAADxSwgAMCCAAABgAAAAAAAAAAAAAAAAAAAAAAAAAREAIAAAAiQAAFAAAHAAHA4PwPgAAAAAAAAADAAAYAACAAAYAADAAAAA==

>  <PUBCHEM_IUPAC_INCHI>
InChI=1S/C62H104O33/c1-22(20-83-54-46(78)42(74)38(70)31(15-63)86-54)7-12-62(82)23(2)36-30(95-62)14-28-26-6-5-24-13-25(8-10-60(24,3)27(26)9-11-61(28,36)4)85-57-49(81)52(93-55-45(77)37(69)29(68)21-84-55)50(35(19-67)90-57)91-59-53(44(76)40(72)33(17-65)89-59)94-58-48(80)51(41(73)34(18-66)88-58)92-56-47(79)43(75)39(71)32(16-64)87-56/h22-59,63-82H,5-21H2,1-4H3

>  <PUBCHEM_IUPAC_INCHIKEY>
ALCDRHDQCMYPMK-UHFFFAOYSA-N

>  <PUBCHEM_EXACT_MASS>
1376.646

>  <PUBCHEM_MOLECULAR_FORMULA>
C62H104O33

>  <PUBCHEM_MOLECULAR_WEIGHT>
1377.481

>  <PUBCHEM_OPENEYE_CAN_SMILES>
CC1C2C(CC3C2(CCC4C3CCC5C4(CCC(C5)OC6C(C(C(C(O6)CO)OC7C(C(C(C(O7)CO)O)O)OC8C(C(C(C(O8)CO)O)OC9C(C(C(C(O9)CO)O)O)O)O)OC2C(C(C(CO2)O)O)O)O)C)C)OC1(CCC(C)COC1C(C(C(C(O1)CO)O)O)O)O

>  <PUBCHEM_OPENEYE_ISO_SMILES>
CC1C2C(CC3C2(CCC4C3CCC5C4(CCC(C5)OC6C(C(C(C(O6)CO)OC7C(C(C(C(O7)CO)O)O)OC8C(C(C(C(O8)CO)O)OC9C(C(C(C(O9)CO)O)O)O)O)OC2C(C(C(CO2)O)O)O)O)C)C)OC1(CCC(C)COC1C(C(C(C(O1)CO)O)O)O)O

>  <PUBCHEM_CACTVS_TPSA>
525

>  <PUBCHEM_MONOISOTOPIC_WEIGHT>
1376.646

>  <PUBCHEM_TOTAL_CHARGE>
0

>  <PUBCHEM_HEAVY_ATOM_COUNT>
95

>  <PUBCHEM_ATOM_DEF_STEREO_COUNT>
0

>  <PUBCHEM_ATOM_UDEF_STEREO_COUNT>
41

>  <PUBCHEM_BOND_DEF_STEREO_COUNT>
0

>  <PUBCHEM_BOND_UDEF_STEREO_COUNT>
0

>  <PUBCHEM_ISOTOPIC_ATOM_COUNT>
0

>  <PUBCHEM_COMPONENT_COUNT>
1

>  <PUBCHEM_CACTVS_TAUTO_COUNT>
1

>  <PUBCHEM_COORDINATE_TYPE>
1
5
255

>  <PUBCHEM_BONDANNOTATIONS>
69  13  3
71  14  3
73  15  3
84  15  3
72  16  3
75  17  3
76  18  3
77  19  3
49  2  3
79  20  3
81  21  3
85  25  3
86  26  3
90  26  3
88  27  3
54  3  3
59  3  3
91  30  3
92  31  3
94  32  3
34  48  3
35  41  3
36  46  3
37  45  3
38  43  3
39  52  3
40  41  3
44  47  3
45  55  3
67  5  3
58  62  3
60  6  3
64  66  3
63  7  3
68  7  3
74  82  3
65  8  3
70  8  3
80  83  3
87  89  3
93  95  3

$$$$
