131750952
 OpenBabel06101807152D

 50 52  0  0  1  0  0  0  0  0999 V2000
    5.4641    2.2311    0.0000 O   0  0  0  0  0  0  0  0  0  0  0  0
    7.1962    2.2311    0.0000 O   0  0  0  0  0  0  0  0  0  0  0  0
    3.7320    0.2311    0.0000 O   0  0  0  0  0  0  0  0  0  0  0  0
    5.4641   -0.7689    0.0000 O   0  0  0  0  0  0  0  0  0  0  0  0
    7.1962    0.2311    0.0000 O   0  0  0  0  0  0  0  0  0  0  0  0
    7.6962    4.7699    0.0000 O   0  0  0  0  0  0  0  0  0  0  0  0
    3.7320    3.2311    0.0000 O   0  0  0  0  0  0  0  0  0  0  0  0
    6.1084    5.5789    0.0000 O   0  0  0  0  0  0  0  0  0  0  0  0
    4.5981   -1.2689    0.0000 O   0  0  0  0  0  0  0  0  0  0  0  0
    2.8660   -5.2689    0.0000 O   0  0  0  0  0  0  0  0  0  0  0  0
    4.5981    0.7311    0.0000 C   0  0  3  0  0  0  0  0  0  0  0  0
    5.4641    0.2311    0.0000 C   0  0  3  0  0  0  0  0  0  0  0  0
    6.3301    0.7311    0.0000 C   0  0  3  0  0  0  0  0  0  0  0  0
    4.5981    1.7311    0.0000 C   0  0  3  0  0  0  0  0  0  0  0  0
    6.3301    1.7311    0.0000 C   0  0  3  0  0  0  0  0  0  0  0  0
    3.7320    2.2311    0.0000 C   0  0  0  0  0  0  0  0  0  0  0  0
    7.1962    3.2311    0.0000 C   0  0  3  0  0  0  0  0  0  0  0  0
    6.3871    3.8189    0.0000 C   0  0  0  0  0  0  0  0  0  0  0  0
    8.0052    3.8189    0.0000 C   0  0  0  0  0  0  0  0  0  0  0  0
    6.6962    4.7699    0.0000 C   0  0  0  0  0  0  0  0  0  0  0  0
    3.7320   -0.7689    0.0000 C   0  0  0  0  0  0  0  0  0  0  0  0
    2.8660   -1.2689    0.0000 C   0  0  0  0  0  0  0  0  0  0  0  0
    2.8660   -2.2689    0.0000 C   0  0  0  0  0  0  0  0  0  0  0  0
    2.0000   -2.7689    0.0000 C   0  0  0  0  0  0  0  0  0  0  0  0
    3.7320   -2.7689    0.0000 C   0  0  0  0  0  0  0  0  0  0  0  0
    2.0000   -3.7689    0.0000 C   0  0  0  0  0  0  0  0  0  0  0  0
    3.7320   -3.7689    0.0000 C   0  0  0  0  0  0  0  0  0  0  0  0
    2.8660   -4.2689    0.0000 C   0  0  0  0  0  0  0  0  0  0  0  0
    4.5981    0.1111    0.0000 H   0  0  0  0  0  0  0  0  0  0  0  0
    4.9272   -0.0789    0.0000 H   0  0  0  0  0  0  0  0  0  0  0  0
    6.3301    0.1111    0.0000 H   0  0  0  0  0  0  0  0  0  0  0  0
    4.5981    2.3511    0.0000 H   0  0  0  0  0  0  0  0  0  0  0  0
    6.8671    1.4211    0.0000 H   0  0  0  0  0  0  0  0  0  0  0  0
    7.7486    2.9496    0.0000 H   0  0  0  0  0  0  0  0  0  0  0  0
    3.1215    2.3387    0.0000 H   0  0  0  0  0  0  0  0  0  0  0  0
    3.5200    1.6485    0.0000 H   0  0  0  0  0  0  0  0  0  0  0  0
    5.8207    4.0710    0.0000 H   0  0  0  0  0  0  0  0  0  0  0  0
    6.0771    3.2819    0.0000 H   0  0  0  0  0  0  0  0  0  0  0  0
    8.3152    3.2819    0.0000 H   0  0  0  0  0  0  0  0  0  0  0  0
    8.5716    4.0710    0.0000 H   0  0  0  0  0  0  0  0  0  0  0  0
    6.0010   -1.0789    0.0000 H   0  0  0  0  0  0  0  0  0  0  0  0
    7.7331    0.5411    0.0000 H   0  0  0  0  0  0  0  0  0  0  0  0
    3.1951    3.5411    0.0000 H   0  0  0  0  0  0  0  0  0  0  0  0
    2.6540   -0.6863    0.0000 H   0  0  0  0  0  0  0  0  0  0  0  0
    2.2554   -1.3766    0.0000 H   0  0  0  0  0  0  0  0  0  0  0  0
    1.4631   -2.4589    0.0000 H   0  0  0  0  0  0  0  0  0  0  0  0
    4.2690   -2.4589    0.0000 H   0  0  0  0  0  0  0  0  0  0  0  0
    1.4631   -4.0789    0.0000 H   0  0  0  0  0  0  0  0  0  0  0  0
    4.2690   -4.0789    0.0000 H   0  0  0  0  0  0  0  0  0  0  0  0
    2.3291   -5.5789    0.0000 H   0  0  0  0  0  0  0  0  0  0  0  0
  1 14  1  0  0  0  0
  1 15  1  0  0  0  0
  2 15  1  0  0  0  0
  2 17  1  0  0  0  0
  3 11  1  0  0  0  0
  3 21  1  0  0  0  0
  4 12  1  0  0  0  0
  4 41  1  0  0  0  0
  5 13  1  0  0  0  0
  5 42  1  0  0  0  0
  6 19  1  0  0  0  0
  6 20  1  0  0  0  0
  7 16  1  0  0  0  0
  7 43  1  0  0  0  0
  8 20  2  0  0  0  0
  9 21  2  0  0  0  0
 10 28  1  0  0  0  0
 10 50  1  0  0  0  0
 11 12  1  0  0  0  0
 11 14  1  0  0  0  0
 11 29  1  0  0  0  0
 12 13  1  0  0  0  0
 12 30  1  0  0  0  0
 13 15  1  0  0  0  0
 13 31  1  0  0  0  0
 14 16  1  0  0  0  0
 14 32  1  0  0  0  0
 15 33  1  0  0  0  0
 16 35  1  0  0  0  0
 16 36  1  0  0  0  0
 17 18  1  0  0  0  0
 17 19  1  0  0  0  0
 17 34  1  0  0  0  0
 18 20  1  0  0  0  0
 18 37  1  0  0  0  0
 18 38  1  0  0  0  0
 19 39  1  0  0  0  0
 19 40  1  0  0  0  0
 21 22  1  0  0  0  0
 22 23  1  0  0  0  0
 22 44  1  0  0  0  0
 22 45  1  0  0  0  0
 23 24  2  0  0  0  0
 23 25  1  0  0  0  0
 24 26  1  0  0  0  0
 24 46  1  0  0  0  0
 25 27  2  0  0  0  0
 25 47  1  0  0  0  0
 26 28  2  0  0  0  0
 26 48  1  0  0  0  0
 27 28  1  0  0  0  0
 27 49  1  0  0  0  0
M  END
>  <PUBCHEM_COMPOUND_CID>
131750952

>  <PUBCHEM_COMPOUND_CANONICALIZED>
1

>  <PUBCHEM_CACTVS_COMPLEXITY>
547

>  <PUBCHEM_CACTVS_HBOND_ACCEPTOR>
10

>  <PUBCHEM_CACTVS_HBOND_DONOR>
4

>  <PUBCHEM_CACTVS_ROTATABLE_BOND>
7

>  <PUBCHEM_CACTVS_SUBSKEYS>
AAADceB4PAAAAAAAAAAAAAAAAAAAASAAAAA0QAAAAAAAAAABAAAAGgAACAAADBSwmAMwDoAABgCIAiDSCAACAAAgIAAIiAEGCIgZNjaCFRKicAAl4BEPmAfK6KyOIAAAAAAAAABAAAAAAAAAAAAAAAAAAA==

>  <PUBCHEM_IUPAC_OPENEYE_NAME>
[4,5-dihydroxy-2-(hydroxymethyl)-6-(5-oxotetrahydrofuran-3-yl)oxy-tetrahydropyran-3-yl] 2-(4-hydroxyphenyl)acetate

>  <PUBCHEM_IUPAC_CAS_NAME>
2-(4-hydroxyphenyl)acetic acid [4,5-dihydroxy-2-(hydroxymethyl)-6-[(5-oxo-3-oxolanyl)oxy]-3-oxanyl] ester

>  <PUBCHEM_IUPAC_NAME>
[4,5-dihydroxy-2-(hydroxymethyl)-6-(5-oxooxolan-3-yl)oxyoxan-3-yl] 2-(4-hydroxyphenyl)acetate

>  <PUBCHEM_IUPAC_SYSTEMATIC_NAME>
[2-(hydroxymethyl)-4,5-bis(oxidanyl)-6-(5-oxidanylideneoxolan-3-yl)oxy-oxan-3-yl] 2-(4-hydroxyphenyl)ethanoate

>  <PUBCHEM_IUPAC_TRADITIONAL_NAME>
2-(4-hydroxyphenyl)acetic acid [4,5-dihydroxy-6-(5-ketotetrahydrofuran-3-yl)oxy-2-methylol-tetrahydropyran-3-yl] ester

>  <PUBCHEM_IUPAC_INCHI>
InChI=1S/C18H22O10/c19-7-12-17(28-14(22)5-9-1-3-10(20)4-2-9)15(23)16(24)18(27-12)26-11-6-13(21)25-8-11/h1-4,11-12,15-20,23-24H,5-8H2

>  <PUBCHEM_IUPAC_INCHIKEY>
ZNBBYALXAQXHJE-UHFFFAOYSA-N

>  <PUBCHEM_EXACT_MASS>
398.121

>  <PUBCHEM_MOLECULAR_FORMULA>
C18H22O10

>  <PUBCHEM_MOLECULAR_WEIGHT>
398.364

>  <PUBCHEM_OPENEYE_CAN_SMILES>
C1C(COC1=O)OC2C(C(C(C(O2)CO)OC(=O)CC3=CC=C(C=C3)O)O)O

>  <PUBCHEM_OPENEYE_ISO_SMILES>
C1C(COC1=O)OC2C(C(C(C(O2)CO)OC(=O)CC3=CC=C(C=C3)O)O)O

>  <PUBCHEM_CACTVS_TPSA>
152

>  <PUBCHEM_MONOISOTOPIC_WEIGHT>
398.121

>  <PUBCHEM_TOTAL_CHARGE>
0

>  <PUBCHEM_HEAVY_ATOM_COUNT>
28

>  <PUBCHEM_ATOM_DEF_STEREO_COUNT>
0

>  <PUBCHEM_ATOM_UDEF_STEREO_COUNT>
6

>  <PUBCHEM_BOND_DEF_STEREO_COUNT>
0

>  <PUBCHEM_BOND_UDEF_STEREO_COUNT>
0

>  <PUBCHEM_ISOTOPIC_ATOM_COUNT>
0

>  <PUBCHEM_COMPONENT_COUNT>
1

>  <PUBCHEM_CACTVS_TAUTO_COUNT>
8

>  <PUBCHEM_COORDINATE_TYPE>
1
5
255

>  <PUBCHEM_BONDANNOTATIONS>
14  16  3
15  2  3
17  2  3
23  24  8
23  25  8
24  26  8
25  27  8
26  28  8
27  28  8
11  3  3
12  4  3
13  5  3

$$$$
