131751103
 OpenBabel06101807152D

 30 30  0  0  0  0  0  0  0  0999 V2000
    8.0995   -1.2511    0.0000 O   0  0  0  0  0  0  0  0  0  0  0  0
    6.1316   -1.9505    0.0000 O   0  0  0  0  0  0  0  0  0  0  0  0
   11.1380    1.3440    0.0000 O   0  0  0  0  0  0  0  0  0  0  0  0
    9.4438    0.9839    0.0000 O   0  0  0  0  0  0  0  0  0  0  0  0
    8.9086   -0.6633    0.0000 C   0  0  0  0  0  0  0  0  0  0  0  0
    7.2905   -0.6633    0.0000 C   0  0  0  0  0  0  0  0  0  0  0  0
    8.5995    0.2877    0.0000 C   0  0  0  0  0  0  0  0  0  0  0  0
    7.5995    0.2877    0.0000 C   0  0  0  0  0  0  0  0  0  0  0  0
    2.9511   -0.2521    0.0000 C   0  0  0  0  0  0  0  0  0  0  0  0
    9.8596   -0.9724    0.0000 C   0  0  0  0  0  0  0  0  0  0  0  0
    6.3395   -0.9724    0.0000 C   0  0  0  0  0  0  0  0  0  0  0  0
    2.0000   -0.5611    0.0000 C   0  0  0  0  0  0  0  0  0  0  0  0
    3.1590    0.7260    0.0000 C   0  0  0  0  0  0  0  0  0  0  0  0
   10.6028   -0.3032    0.0000 C   0  0  0  0  0  0  0  0  0  0  0  0
    4.1100    1.0350    0.0000 C   0  0  0  0  0  0  0  0  0  0  0  0
    5.5963   -0.3032    0.0000 C   0  0  0  0  0  0  0  0  0  0  0  0
    4.8532    0.3659    0.0000 C   0  0  0  0  0  0  0  0  0  0  0  0
   10.3948    0.6749    0.0000 C   0  0  0  0  0  0  0  0  0  0  0  0
    8.9640    0.7893    0.0000 H   0  0  0  0  0  0  0  0  0  0  0  0
    7.2351    0.7893    0.0000 H   0  0  0  0  0  0  0  0  0  0  0  0
    3.0373   -0.8661    0.0000 H   0  0  0  0  0  0  0  0  0  0  0  0
    3.5707   -0.2738    0.0000 H   0  0  0  0  0  0  0  0  0  0  0  0
    9.9885   -1.5788    0.0000 H   0  0  0  0  0  0  0  0  0  0  0  0
    1.8084    0.0285    0.0000 H   0  0  0  0  0  0  0  0  0  0  0  0
    1.4103   -0.7527    0.0000 H   0  0  0  0  0  0  0  0  0  0  0  0
    2.1916   -1.1508    0.0000 H   0  0  0  0  0  0  0  0  0  0  0  0
    2.6982    1.1409    0.0000 H   0  0  0  0  0  0  0  0  0  0  0  0
   11.1924   -0.4948    0.0000 H   0  0  0  0  0  0  0  0  0  0  0  0
    4.2389    1.6415    0.0000 H   0  0  0  0  0  0  0  0  0  0  0  0
   11.0091    1.9505    0.0000 H   0  0  0  0  0  0  0  0  0  0  0  0
  1  5  1  0  0  0  0
  1  6  1  0  0  0  0
  2 11  2  0  0  0  0
  3 18  1  0  0  0  0
  3 30  1  0  0  0  0
  4 18  2  0  0  0  0
  5  7  2  0  0  0  0
  5 10  1  0  0  0  0
  6  8  2  0  0  0  0
  6 11  1  0  0  0  0
  7  8  1  0  0  0  0
  7 19  1  0  0  0  0
  8 20  1  0  0  0  0
  9 12  1  0  0  0  0
  9 13  1  0  0  0  0
  9 21  1  0  0  0  0
  9 22  1  0  0  0  0
 10 14  2  0  0  0  0
 10 23  1  0  0  0  0
 11 16  1  0  0  0  0
 12 24  1  0  0  0  0
 12 25  1  0  0  0  0
 12 26  1  0  0  0  0
 13 15  2  0  0  0  0
 13 27  1  0  0  0  0
 14 18  1  0  0  0  0
 14 28  1  0  0  0  0
 15 17  1  0  0  0  0
 15 29  1  0  0  0  0
 16 17  3  0  0  0  0
M  END
>  <PUBCHEM_COMPOUND_CID>
131751103

>  <PUBCHEM_COMPOUND_CANONICALIZED>
1

>  <PUBCHEM_CACTVS_COMPLEXITY>
433

>  <PUBCHEM_CACTVS_HBOND_ACCEPTOR>
4

>  <PUBCHEM_CACTVS_HBOND_DONOR>
1

>  <PUBCHEM_CACTVS_ROTATABLE_BOND>
4

>  <PUBCHEM_CACTVS_SUBSKEYS>
AAADccBwOAAAAAAAAAAAAAAAAAAAASAAAAAAAAAAAAAAAAABgAAAGgAACAAACASAkAAyDIAABkDIEKDSCAoCCAAkIAAIiAFGCMgMJjKENR6CGSCkwBEIuYeIzgBgAAAAAAAAAAAAAAAAAAAAAAAAAAAAAA==

>  <PUBCHEM_IUPAC_OPENEYE_NAME>
(Z)-3-[5-[(Z)-hept-4-en-2-ynoyl]-2-furyl]prop-2-enoic acid

>  <PUBCHEM_IUPAC_CAS_NAME>
(Z)-3-[5-[(Z)-1-oxohept-4-en-2-ynyl]-2-furanyl]-2-propenoic acid

>  <PUBCHEM_IUPAC_NAME>
(Z)-3-[5-[(Z)-hept-4-en-2-ynoyl]furan-2-yl]prop-2-enoic acid

>  <PUBCHEM_IUPAC_SYSTEMATIC_NAME>
(Z)-3-[5-[(Z)-hept-4-en-2-ynoyl]furan-2-yl]prop-2-enoic acid

>  <PUBCHEM_IUPAC_TRADITIONAL_NAME>
(Z)-3-[5-[(Z)-hept-4-en-2-ynoyl]-2-furyl]acrylic acid

>  <PUBCHEM_IUPAC_INCHI>
InChI=1S/C14H12O4/c1-2-3-4-5-6-12(15)13-9-7-11(18-13)8-10-14(16)17/h3-4,7-10H,2H2,1H3,(H,16,17)/b4-3-,10-8-

>  <PUBCHEM_IUPAC_INCHIKEY>
ZLZFXXJOALTVDA-YHOGECKDSA-N

>  <PUBCHEM_EXACT_MASS>
244.074

>  <PUBCHEM_MOLECULAR_FORMULA>
C14H12O4

>  <PUBCHEM_MOLECULAR_WEIGHT>
244.246

>  <PUBCHEM_OPENEYE_CAN_SMILES>
CCC=CC#CC(=O)C1=CC=C(O1)C=CC(=O)O

>  <PUBCHEM_OPENEYE_ISO_SMILES>
CC/C=C\C#CC(=O)C1=CC=C(O1)/C=C\C(=O)O

>  <PUBCHEM_CACTVS_TPSA>
67.5

>  <PUBCHEM_MONOISOTOPIC_WEIGHT>
244.074

>  <PUBCHEM_TOTAL_CHARGE>
0

>  <PUBCHEM_HEAVY_ATOM_COUNT>
18

>  <PUBCHEM_ATOM_DEF_STEREO_COUNT>
0

>  <PUBCHEM_ATOM_UDEF_STEREO_COUNT>
0

>  <PUBCHEM_BOND_DEF_STEREO_COUNT>
2

>  <PUBCHEM_BOND_UDEF_STEREO_COUNT>
0

>  <PUBCHEM_ISOTOPIC_ATOM_COUNT>
0

>  <PUBCHEM_COMPONENT_COUNT>
1

>  <PUBCHEM_CACTVS_TAUTO_COUNT>
1

>  <PUBCHEM_COORDINATE_TYPE>
1
5
255

>  <PUBCHEM_BONDANNOTATIONS>
1  5  8
1  6  8
5  7  8
6  8  8
7  8  8

$$$$
