131753104
 OpenBabel06101807152D

 61 62  0  0  1  0  0  0  0  0999 V2000
    5.1350    0.0600    0.0000 O   0  0  0  0  0  0  0  0  0  0  0  0
    5.1350    2.0600    0.0000 O   0  0  0  0  0  0  0  0  0  0  0  0
    9.4651    1.5600    0.0000 O   0  0  0  0  0  0  0  0  0  0  0  0
    7.7331    4.5600    0.0000 O   0  0  0  0  0  0  0  0  0  0  0  0
    9.4651    3.5600    0.0000 O   0  0  0  0  0  0  0  0  0  0  0  0
    3.4030   -0.9400    0.0000 O   0  0  0  0  0  0  0  0  0  0  0  0
    6.8671   -0.9400    0.0000 O   0  0  0  0  0  0  0  0  0  0  0  0
    2.5369   -4.4400    0.0000 O   0  0  0  0  0  0  0  0  0  0  0  0
    6.0010    1.5600    0.0000 C   0  0  3  0  0  0  0  0  0  0  0  0
    6.0010    0.5600    0.0000 C   0  0  3  0  0  0  0  0  0  0  0  0
    6.8671    2.0600    0.0000 C   0  0  0  0  0  0  0  0  0  0  0  0
    6.8671    0.0600    0.0000 C   0  0  0  0  0  0  0  0  0  0  0  0
    6.8671    3.0600    0.0000 C   0  0  0  0  0  0  0  0  0  0  0  0
    7.7331    1.5600    0.0000 C   0  0  0  0  0  0  0  0  0  0  0  0
    5.1350   -0.9400    0.0000 C   0  0  0  0  0  0  0  0  0  0  0  0
    8.5991    2.0600    0.0000 C   0  0  0  0  0  0  0  0  0  0  0  0
    7.7331    3.5600    0.0000 C   0  0  0  0  0  0  0  0  0  0  0  0
    8.5991    3.0600    0.0000 C   0  0  0  0  0  0  0  0  0  0  0  0
    4.2690   -1.4400    0.0000 C   0  0  0  0  0  0  0  0  0  0  0  0
    6.0010   -1.4400    0.0000 C   0  0  0  0  0  0  0  0  0  0  0  0
    5.1350   -2.9400    0.0000 C   0  0  0  0  0  0  0  0  0  0  0  0
    4.2690   -2.4400    0.0000 C   0  0  0  0  0  0  0  0  0  0  0  0
    6.0010   -2.4400    0.0000 C   0  0  0  0  0  0  0  0  0  0  0  0
    5.1350   -3.9400    0.0000 C   0  0  0  0  0  0  0  0  0  0  0  0
   10.3312    2.0600    0.0000 C   0  0  0  0  0  0  0  0  0  0  0  0
    6.8671    5.0600    0.0000 C   0  0  0  0  0  0  0  0  0  0  0  0
    9.4651    4.5600    0.0000 C   0  0  0  0  0  0  0  0  0  0  0  0
    2.5369   -1.4400    0.0000 C   0  0  0  0  0  0  0  0  0  0  0  0
    7.7331   -1.4400    0.0000 C   0  0  0  0  0  0  0  0  0  0  0  0
    4.2690   -4.4400    0.0000 C   0  0  0  0  0  0  0  0  0  0  0  0
    3.4030   -3.9400    0.0000 C   0  0  0  0  0  0  0  0  0  0  0  0
    6.0010    2.1800    0.0000 H   0  0  0  0  0  0  0  0  0  0  0  0
    5.4641    0.8700    0.0000 H   0  0  0  0  0  0  0  0  0  0  0  0
    6.5571   -0.4769    0.0000 H   0  0  0  0  0  0  0  0  0  0  0  0
    7.4040   -0.2500    0.0000 H   0  0  0  0  0  0  0  0  0  0  0  0
    7.1771    0.5969    0.0000 H   0  0  0  0  0  0  0  0  0  0  0  0
    6.3301    3.3700    0.0000 H   0  0  0  0  0  0  0  0  0  0  0  0
    7.7331    0.9400    0.0000 H   0  0  0  0  0  0  0  0  0  0  0  0
    5.1350    2.6800    0.0000 H   0  0  0  0  0  0  0  0  0  0  0  0
    3.7320   -2.7500    0.0000 H   0  0  0  0  0  0  0  0  0  0  0  0
    6.5380   -2.7500    0.0000 H   0  0  0  0  0  0  0  0  0  0  0  0
    5.6720   -4.2500    0.0000 H   0  0  0  0  0  0  0  0  0  0  0  0
   10.6412    1.5231    0.0000 H   0  0  0  0  0  0  0  0  0  0  0  0
   10.8681    2.3700    0.0000 H   0  0  0  0  0  0  0  0  0  0  0  0
   10.0212    2.5969    0.0000 H   0  0  0  0  0  0  0  0  0  0  0  0
    7.1771    5.5969    0.0000 H   0  0  0  0  0  0  0  0  0  0  0  0
    6.3301    5.3700    0.0000 H   0  0  0  0  0  0  0  0  0  0  0  0
    6.5571    4.5231    0.0000 H   0  0  0  0  0  0  0  0  0  0  0  0
   10.0851    4.5600    0.0000 H   0  0  0  0  0  0  0  0  0  0  0  0
    9.4651    5.1800    0.0000 H   0  0  0  0  0  0  0  0  0  0  0  0
    8.8451    4.5600    0.0000 H   0  0  0  0  0  0  0  0  0  0  0  0
    2.2269   -0.9031    0.0000 H   0  0  0  0  0  0  0  0  0  0  0  0
    2.0000   -1.7500    0.0000 H   0  0  0  0  0  0  0  0  0  0  0  0
    2.8469   -1.9769    0.0000 H   0  0  0  0  0  0  0  0  0  0  0  0
    7.4231   -1.9769    0.0000 H   0  0  0  0  0  0  0  0  0  0  0  0
    8.2700   -1.7500    0.0000 H   0  0  0  0  0  0  0  0  0  0  0  0
    8.0431   -0.9031    0.0000 H   0  0  0  0  0  0  0  0  0  0  0  0
    4.2690   -5.0600    0.0000 H   0  0  0  0  0  0  0  0  0  0  0  0
    3.8015   -3.4650    0.0000 H   0  0  0  0  0  0  0  0  0  0  0  0
    3.0044   -3.4650    0.0000 H   0  0  0  0  0  0  0  0  0  0  0  0
    2.0000   -4.1300    0.0000 H   0  0  0  0  0  0  0  0  0  0  0  0
  1 10  1  0  0  0  0
  1 15  1  0  0  0  0
  2  9  1  0  0  0  0
  2 39  1  0  0  0  0
  3 16  1  0  0  0  0
  3 25  1  0  0  0  0
  4 17  1  0  0  0  0
  4 26  1  0  0  0  0
  5 18  1  0  0  0  0
  5 27  1  0  0  0  0
  6 19  1  0  0  0  0
  6 28  1  0  0  0  0
  7 20  1  0  0  0  0
  7 29  1  0  0  0  0
  8 31  1  0  0  0  0
  8 61  1  0  0  0  0
  9 10  1  0  0  0  0
  9 11  1  0  0  0  0
  9 32  1  0  0  0  0
 10 12  1  0  0  0  0
 10 33  1  0  0  0  0
 11 13  2  0  0  0  0
 11 14  1  0  0  0  0
 12 34  1  0  0  0  0
 12 35  1  0  0  0  0
 12 36  1  0  0  0  0
 13 17  1  0  0  0  0
 13 37  1  0  0  0  0
 14 16  2  0  0  0  0
 14 38  1  0  0  0  0
 15 19  2  0  0  0  0
 15 20  1  0  0  0  0
 16 18  1  0  0  0  0
 17 18  2  0  0  0  0
 19 22  1  0  0  0  0
 20 23  2  0  0  0  0
 21 22  2  0  0  0  0
 21 23  1  0  0  0  0
 21 24  1  0  0  0  0
 22 40  1  0  0  0  0
 23 41  1  0  0  0  0
 24 30  2  0  0  0  0
 24 42  1  0  0  0  0
 25 43  1  0  0  0  0
 25 44  1  0  0  0  0
 25 45  1  0  0  0  0
 26 46  1  0  0  0  0
 26 47  1  0  0  0  0
 26 48  1  0  0  0  0
 27 49  1  0  0  0  0
 27 50  1  0  0  0  0
 27 51  1  0  0  0  0
 28 52  1  0  0  0  0
 28 53  1  0  0  0  0
 28 54  1  0  0  0  0
 29 55  1  0  0  0  0
 29 56  1  0  0  0  0
 29 57  1  0  0  0  0
 30 31  1  0  0  0  0
 30 58  1  0  0  0  0
 31 59  1  0  0  0  0
 31 60  1  0  0  0  0
M  END
>  <PUBCHEM_COMPOUND_CID>
131753104

>  <PUBCHEM_COMPOUND_CANONICALIZED>
1

>  <PUBCHEM_CACTVS_COMPLEXITY>
502

>  <PUBCHEM_CACTVS_HBOND_ACCEPTOR>
8

>  <PUBCHEM_CACTVS_HBOND_DONOR>
2

>  <PUBCHEM_CACTVS_ROTATABLE_BOND>
11

>  <PUBCHEM_CACTVS_SUBSKEYS>
AAADceB4PAAAAAAAAAAAAAAAAAAAAAAAAAAwYAAAAAAAAAABQAAAGgAACAAADBSgmAIyBoAABgCAAiBCAAACCAAgIAAIiAAGiIgNNyKEMRqCeCKlwBULuAfA4LwOIAABCAAAQABAAAIQAACAAAAAAAAAAA==

>  <PUBCHEM_IUPAC_OPENEYE_NAME>
2-[4-[(Z)-3-hydroxyprop-1-enyl]-2,6-dimethoxy-phenoxy]-1-(3,4,5-trimethoxyphenyl)propan-1-ol

>  <PUBCHEM_IUPAC_CAS_NAME>
2-[4-[(Z)-3-hydroxyprop-1-enyl]-2,6-dimethoxyphenoxy]-1-(3,4,5-trimethoxyphenyl)-1-propanol

>  <PUBCHEM_IUPAC_NAME>
2-[4-[(Z)-3-hydroxyprop-1-enyl]-2,6-dimethoxyphenoxy]-1-(3,4,5-trimethoxyphenyl)propan-1-ol

>  <PUBCHEM_IUPAC_SYSTEMATIC_NAME>
2-[2,6-dimethoxy-4-[(Z)-3-oxidanylprop-1-enyl]phenoxy]-1-(3,4,5-trimethoxyphenyl)propan-1-ol

>  <PUBCHEM_IUPAC_TRADITIONAL_NAME>
2-[4-[(Z)-3-hydroxyprop-1-enyl]-2,6-dimethoxy-phenoxy]-1-(3,4,5-trimethoxyphenyl)propan-1-ol

>  <PUBCHEM_IUPAC_INCHI>
InChI=1S/C23H30O8/c1-14(21(25)16-12-19(28-4)22(30-6)20(13-16)29-5)31-23-17(26-2)10-15(8-7-9-24)11-18(23)27-3/h7-8,10-14,21,24-25H,9H2,1-6H3/b8-7-

>  <PUBCHEM_IUPAC_INCHIKEY>
QHYPOKHWZKVCEW-FPLPWBNLSA-N

>  <PUBCHEM_EXACT_MASS>
434.194

>  <PUBCHEM_MOLECULAR_FORMULA>
C23H30O8

>  <PUBCHEM_MOLECULAR_WEIGHT>
434.485

>  <PUBCHEM_OPENEYE_CAN_SMILES>
CC(C(C1=CC(=C(C(=C1)OC)OC)OC)O)OC2=C(C=C(C=C2OC)C=CCO)OC

>  <PUBCHEM_OPENEYE_ISO_SMILES>
CC(C(C1=CC(=C(C(=C1)OC)OC)OC)O)OC2=C(C=C(C=C2OC)/C=C\CO)OC

>  <PUBCHEM_CACTVS_TPSA>
95.8

>  <PUBCHEM_MONOISOTOPIC_WEIGHT>
434.194

>  <PUBCHEM_TOTAL_CHARGE>
0

>  <PUBCHEM_HEAVY_ATOM_COUNT>
31

>  <PUBCHEM_ATOM_DEF_STEREO_COUNT>
0

>  <PUBCHEM_ATOM_UDEF_STEREO_COUNT>
2

>  <PUBCHEM_BOND_DEF_STEREO_COUNT>
1

>  <PUBCHEM_BOND_UDEF_STEREO_COUNT>
0

>  <PUBCHEM_ISOTOPIC_ATOM_COUNT>
0

>  <PUBCHEM_COMPONENT_COUNT>
1

>  <PUBCHEM_CACTVS_TAUTO_COUNT>
1

>  <PUBCHEM_COORDINATE_TYPE>
1
5
255

>  <PUBCHEM_BONDANNOTATIONS>
10  12  3
11  13  8
11  14  8
13  17  8
14  16  8
15  19  8
15  20  8
16  18  8
17  18  8
19  22  8
9  2  3
20  23  8
21  22  8
21  23  8

$$$$
