131752515
 OpenBabel06101807152D

 66 67  0  0  1  0  0  0  0  0999 V2000
    5.4646   -0.5000    0.0000 O   0  0  0  0  0  0  0  0  0  0  0  0
    2.0000   -1.5000    0.0000 O   0  0  0  0  0  0  0  0  0  0  0  0
   16.5981   -1.7320    0.0000 O   0  0  0  0  0  0  0  0  0  0  0  0
    4.5981    0.0000    0.0000 C   0  0  3  0  0  0  0  0  0  0  0  0
    4.5981   -1.0000    0.0000 C   0  0  3  0  0  0  0  0  0  0  0  0
    3.7320    0.5000    0.0000 C   0  0  0  0  0  0  0  0  0  0  0  0
    3.7320   -1.5000    0.0000 C   0  0  0  0  0  0  0  0  0  0  0  0
    2.8660    0.0000    0.0000 C   0  0  0  0  0  0  0  0  0  0  0  0
    2.8660   -1.0000    0.0000 C   0  0  3  0  0  0  0  0  0  0  0  0
    4.5981   -2.0000    0.0000 C   0  0  0  0  0  0  0  0  0  0  0  0
    5.0981    0.8660    0.0000 C   0  0  0  0  0  0  0  0  0  0  0  0
    2.8660    1.0000    0.0000 C   0  0  0  0  0  0  0  0  0  0  0  0
    3.7320    1.5000    0.0000 C   0  0  0  0  0  0  0  0  0  0  0  0
    6.0981    0.8660    0.0000 C   0  0  0  0  0  0  0  0  0  0  0  0
    6.5981    1.7320    0.0000 C   0  0  0  0  0  0  0  0  0  0  0  0
    6.0981    2.5981    0.0000 C   0  0  0  0  0  0  0  0  0  0  0  0
    7.5981    1.7320    0.0000 C   0  0  0  0  0  0  0  0  0  0  0  0
    8.0981    0.8660    0.0000 C   0  0  0  0  0  0  0  0  0  0  0  0
    9.0981    0.8660    0.0000 C   0  0  0  0  0  0  0  0  0  0  0  0
    9.5981    0.0000    0.0000 C   0  0  0  0  0  0  0  0  0  0  0  0
    9.0981   -0.8660    0.0000 C   0  0  0  0  0  0  0  0  0  0  0  0
   10.5981   -0.0000    0.0000 C   0  0  0  0  0  0  0  0  0  0  0  0
   11.0981   -0.8660    0.0000 C   0  0  0  0  0  0  0  0  0  0  0  0
   12.0981   -0.8660    0.0000 C   0  0  0  0  0  0  0  0  0  0  0  0
   12.5981   -1.7320    0.0000 C   0  0  0  0  0  0  0  0  0  0  0  0
   13.5981   -1.7320    0.0000 C   0  0  0  0  0  0  0  0  0  0  0  0
   14.0981   -2.5981    0.0000 C   0  0  0  0  0  0  0  0  0  0  0  0
   14.0981   -0.8660    0.0000 C   0  0  0  0  0  0  0  0  0  0  0  0
   15.0981   -0.8660    0.0000 C   0  0  0  0  0  0  0  0  0  0  0  0
   15.5981   -1.7320    0.0000 C   0  0  0  0  0  0  0  0  0  0  0  0
    3.3335   -1.9750    0.0000 H   0  0  0  0  0  0  0  0  0  0  0  0
    4.1306   -1.9750    0.0000 H   0  0  0  0  0  0  0  0  0  0  0  0
    2.6540    0.5826    0.0000 H   0  0  0  0  0  0  0  0  0  0  0  0
    2.2554   -0.1077    0.0000 H   0  0  0  0  0  0  0  0  0  0  0  0
    2.8660   -1.6200    0.0000 H   0  0  0  0  0  0  0  0  0  0  0  0
    3.9781   -2.0000    0.0000 H   0  0  0  0  0  0  0  0  0  0  0  0
    4.5981   -2.6200    0.0000 H   0  0  0  0  0  0  0  0  0  0  0  0
    5.2181   -2.0000    0.0000 H   0  0  0  0  0  0  0  0  0  0  0  0
    4.7881    1.4030    0.0000 H   0  0  0  0  0  0  0  0  0  0  0  0
    3.1760    1.5369    0.0000 H   0  0  0  0  0  0  0  0  0  0  0  0
    4.3520    1.5000    0.0000 H   0  0  0  0  0  0  0  0  0  0  0  0
    3.7320    2.1200    0.0000 H   0  0  0  0  0  0  0  0  0  0  0  0
    3.1120    1.5000    0.0000 H   0  0  0  0  0  0  0  0  0  0  0  0
    2.3291    1.3100    0.0000 H   0  0  0  0  0  0  0  0  0  0  0  0
    2.5560    0.4631    0.0000 H   0  0  0  0  0  0  0  0  0  0  0  0
    2.0000   -2.1200    0.0000 H   0  0  0  0  0  0  0  0  0  0  0  0
    6.4081    0.3291    0.0000 H   0  0  0  0  0  0  0  0  0  0  0  0
    6.6350    2.9081    0.0000 H   0  0  0  0  0  0  0  0  0  0  0  0
    5.7881    3.1350    0.0000 H   0  0  0  0  0  0  0  0  0  0  0  0
    5.5611    2.2881    0.0000 H   0  0  0  0  0  0  0  0  0  0  0  0
    7.9081    2.2690    0.0000 H   0  0  0  0  0  0  0  0  0  0  0  0
    7.7881    0.3291    0.0000 H   0  0  0  0  0  0  0  0  0  0  0  0
    9.4081    1.4030    0.0000 H   0  0  0  0  0  0  0  0  0  0  0  0
    8.5611   -0.5560    0.0000 H   0  0  0  0  0  0  0  0  0  0  0  0
    8.7881   -1.4030    0.0000 H   0  0  0  0  0  0  0  0  0  0  0  0
    9.6350   -1.1760    0.0000 H   0  0  0  0  0  0  0  0  0  0  0  0
   10.9081    0.5369    0.0000 H   0  0  0  0  0  0  0  0  0  0  0  0
   10.7881   -1.4030    0.0000 H   0  0  0  0  0  0  0  0  0  0  0  0
   12.4081   -0.3291    0.0000 H   0  0  0  0  0  0  0  0  0  0  0  0
   12.2881   -2.2690    0.0000 H   0  0  0  0  0  0  0  0  0  0  0  0
   13.5611   -2.9081    0.0000 H   0  0  0  0  0  0  0  0  0  0  0  0
   14.4081   -3.1350    0.0000 H   0  0  0  0  0  0  0  0  0  0  0  0
   14.6350   -2.2881    0.0000 H   0  0  0  0  0  0  0  0  0  0  0  0
   13.7881   -0.3291    0.0000 H   0  0  0  0  0  0  0  0  0  0  0  0
   15.4081   -0.3291    0.0000 H   0  0  0  0  0  0  0  0  0  0  0  0
   15.2881   -2.2690    0.0000 H   0  0  0  0  0  0  0  0  0  0  0  0
  1  4  1  0  0  0  0
  1  5  1  0  0  0  0
  2  9  1  0  0  0  0
  2 46  1  0  0  0  0
  3 30  2  0  0  0  0
  4  5  1  0  0  0  0
  4  6  1  0  0  0  0
  4 11  1  0  0  0  0
  5  7  1  0  0  0  0
  5 10  1  0  0  0  0
  6  8  1  0  0  0  0
  6 12  1  0  0  0  0
  6 13  1  0  0  0  0
  7  9  1  0  0  0  0
  7 31  1  0  0  0  0
  7 32  1  0  0  0  0
  8  9  1  0  0  0  0
  8 33  1  0  0  0  0
  8 34  1  0  0  0  0
  9 35  1  0  0  0  0
 10 36  1  0  0  0  0
 10 37  1  0  0  0  0
 10 38  1  0  0  0  0
 11 14  2  0  0  0  0
 11 39  1  0  0  0  0
 12 40  1  0  0  0  0
 12 44  1  0  0  0  0
 12 45  1  0  0  0  0
 13 41  1  0  0  0  0
 13 42  1  0  0  0  0
 13 43  1  0  0  0  0
 14 15  1  0  0  0  0
 14 47  1  0  0  0  0
 15 16  1  0  0  0  0
 15 17  2  0  0  0  0
 16 48  1  0  0  0  0
 16 49  1  0  0  0  0
 16 50  1  0  0  0  0
 17 18  1  0  0  0  0
 17 51  1  0  0  0  0
 18 19  2  0  0  0  0
 18 52  1  0  0  0  0
 19 20  1  0  0  0  0
 19 53  1  0  0  0  0
 20 21  1  0  0  0  0
 20 22  2  0  0  0  0
 21 54  1  0  0  0  0
 21 55  1  0  0  0  0
 21 56  1  0  0  0  0
 22 23  1  0  0  0  0
 22 57  1  0  0  0  0
 23 24  2  0  0  0  0
 23 58  1  0  0  0  0
 24 25  1  0  0  0  0
 24 59  1  0  0  0  0
 25 26  2  0  0  0  0
 25 60  1  0  0  0  0
 26 27  1  0  0  0  0
 26 28  1  0  0  0  0
 27 61  1  0  0  0  0
 27 62  1  0  0  0  0
 27 63  1  0  0  0  0
 28 29  2  0  0  0  0
 28 64  1  0  0  0  0
 29 30  1  0  0  0  0
 29 65  1  0  0  0  0
 30 66  1  0  0  0  0
M  END
>  <PUBCHEM_COMPOUND_CID>
131752515

>  <PUBCHEM_COMPOUND_CANONICALIZED>
1

>  <PUBCHEM_CACTVS_COMPLEXITY>
847

>  <PUBCHEM_CACTVS_HBOND_ACCEPTOR>
3

>  <PUBCHEM_CACTVS_HBOND_DONOR>
1

>  <PUBCHEM_CACTVS_ROTATABLE_BOND>
8

>  <PUBCHEM_CACTVS_SUBSKEYS>
AAADcfB4MAAAAAAAAAAAAAAAEgAAAAAAAAAwAAAABIAAAAAAAAAAGgAACAAADlSggAICAAAABgCIAihSgAAAAAAgAAAICAAAAEgIFAIAIQACUAAFwAAIoYPA4PQPgAAAAAAAAABCAAYQADAAAAAAAAAAAA==

>  <PUBCHEM_IUPAC_OPENEYE_NAME>
(2Z,4Z,6E,8E,10E,12Z,14E)-15-(3-hydroxy-1,5,5-trimethyl-7-oxabicyclo[4.1.0]heptan-6-yl)-4,9,13-trimethyl-pentadeca-2,4,6,8,10,12,14-heptaenal

>  <PUBCHEM_IUPAC_CAS_NAME>
(2Z,4Z,6E,8E,10E,12Z,14E)-15-(3-hydroxy-1,5,5-trimethyl-7-oxabicyclo[4.1.0]heptan-6-yl)-4,9,13-trimethylpentadeca-2,4,6,8,10,12,14-heptaenal

>  <PUBCHEM_IUPAC_NAME>
(2Z,4Z,6E,8E,10E,12Z,14E)-15-(3-hydroxy-1,5,5-trimethyl-7-oxabicyclo[4.1.0]heptan-6-yl)-4,9,13-trimethylpentadeca-2,4,6,8,10,12,14-heptaenal

>  <PUBCHEM_IUPAC_SYSTEMATIC_NAME>
(2Z,4Z,6E,8E,10E,12Z,14E)-4,9,13-trimethyl-15-(1,5,5-trimethyl-3-oxidanyl-7-oxabicyclo[4.1.0]heptan-6-yl)pentadeca-2,4,6,8,10,12,14-heptaenal

>  <PUBCHEM_IUPAC_TRADITIONAL_NAME>
(2Z,4Z,6E,8E,10E,12Z,14E)-15-(3-hydroxy-1,5,5-trimethyl-7-oxabicyclo[4.1.0]heptan-6-yl)-4,9,13-trimethyl-pentadeca-2,4,6,8,10,12,14-heptaenal

>  <PUBCHEM_IUPAC_INCHI>
InChI=1S/C27H36O3/c1-21(11-7-8-12-22(2)15-10-18-28)13-9-14-23(3)16-17-27-25(4,5)19-24(29)20-26(27,6)30-27/h7-18,24,29H,19-20H2,1-6H3/b8-7+,13-9+,15-10-,17-16+,21-11+,22-12-,23-14-

>  <PUBCHEM_IUPAC_INCHIKEY>
QZOYIQGWDBXSHB-AFMCRXATSA-N

>  <PUBCHEM_EXACT_MASS>
408.266

>  <PUBCHEM_MOLECULAR_FORMULA>
C27H36O3

>  <PUBCHEM_MOLECULAR_WEIGHT>
408.582

>  <PUBCHEM_OPENEYE_CAN_SMILES>
CC(=CC=CC=C(C)C=CC=O)C=CC=C(C)C=CC12C(CC(CC1(O2)C)O)(C)C

>  <PUBCHEM_OPENEYE_ISO_SMILES>
C/C(=C\C=C\C=C(\C)/C=C\C=O)/C=C/C=C(/C)\C=C\C12C(CC(CC1(O2)C)O)(C)C

>  <PUBCHEM_CACTVS_TPSA>
49.8

>  <PUBCHEM_MONOISOTOPIC_WEIGHT>
408.266

>  <PUBCHEM_TOTAL_CHARGE>
0

>  <PUBCHEM_HEAVY_ATOM_COUNT>
30

>  <PUBCHEM_ATOM_DEF_STEREO_COUNT>
0

>  <PUBCHEM_ATOM_UDEF_STEREO_COUNT>
3

>  <PUBCHEM_BOND_DEF_STEREO_COUNT>
7

>  <PUBCHEM_BOND_UDEF_STEREO_COUNT>
0

>  <PUBCHEM_ISOTOPIC_ATOM_COUNT>
0

>  <PUBCHEM_COMPONENT_COUNT>
1

>  <PUBCHEM_CACTVS_TAUTO_COUNT>
21

>  <PUBCHEM_COORDINATE_TYPE>
1
5
255

>  <PUBCHEM_BONDANNOTATIONS>
9  2  3
4  11  3
5  10  3

$$$$
