131753168
 OpenBabel06101807152D

100103  0  0  1  0  0  0  0  0999 V2000
   20.9266   -5.1562    0.0000 O   0  0  0  0  0  0  0  0  0  0  0  0
   17.4335   -4.8705    0.0000 O   0  0  0  0  0  0  0  0  0  0  0  0
    6.0812    2.8183    0.0000 O   0  0  0  0  0  0  0  0  0  0  0  0
    2.5369    2.6230    0.0000 O   0  0  0  0  0  0  0  0  0  0  0  0
   19.6045   -3.6472    0.0000 C   0  0  3  0  0  0  0  0  0  0  0  0
   19.9901   -2.2094    0.0000 C   0  0  0  0  0  0  0  0  0  0  0  0
   18.3322   -4.4321    0.0000 C   0  0  3  0  0  0  0  0  0  0  0  0
   20.5442   -3.9892    0.0000 C   0  0  3  0  0  0  0  0  0  0  0  0
   20.9298   -2.5515    0.0000 C   0  0  0  0  0  0  0  0  0  0  0  0
   18.9058   -5.2513    0.0000 C   0  0  0  0  0  0  0  0  0  0  0  0
   20.1809   -1.2278    0.0000 C   0  0  0  0  0  0  0  0  0  0  0  0
   19.1155   -1.7246    0.0000 C   0  0  0  0  0  0  0  0  0  0  0  0
   18.6648   -3.3052    0.0000 C   0  0  0  0  0  0  0  0  0  0  0  0
   17.4334   -3.9937    0.0000 C   0  0  0  0  0  0  0  0  0  0  0  0
   18.1648   -2.4392    0.0000 C   0  0  0  0  0  0  0  0  0  0  0  0
    5.1350    3.1230    0.0000 C   0  0  3  0  0  0  0  0  0  0  0  0
    4.2690    4.6230    0.0000 C   0  0  0  0  0  0  0  0  0  0  0  0
    5.1350    4.1230    0.0000 C   0  0  0  0  0  0  0  0  0  0  0  0
   17.1648   -2.4392    0.0000 C   0  0  0  0  0  0  0  0  0  0  0  0
    4.2690    2.6230    0.0000 C   0  0  0  0  0  0  0  0  0  0  0  0
    3.4030    4.1230    0.0000 C   0  0  0  0  0  0  0  0  0  0  0  0
    3.4030    3.1230    0.0000 C   0  0  3  0  0  0  0  0  0  0  0  0
    6.0812    4.4277    0.0000 C   0  0  0  0  0  0  0  0  0  0  0  0
    6.6648    3.6230    0.0000 C   0  0  3  0  0  0  0  0  0  0  0  0
    5.1350    2.1230    0.0000 C   0  0  0  0  0  0  0  0  0  0  0  0
    3.7690    5.4890    0.0000 C   0  0  0  0  0  0  0  0  0  0  0  0
    4.7690    5.4890    0.0000 C   0  0  0  0  0  0  0  0  0  0  0  0
   16.6648   -3.3052    0.0000 C   0  0  0  0  0  0  0  0  0  0  0  0
   16.6648   -1.5732    0.0000 C   0  0  0  0  0  0  0  0  0  0  0  0
    7.6648    3.6230    0.0000 C   0  0  0  0  0  0  0  0  0  0  0  0
   15.6648   -1.5732    0.0000 C   0  0  0  0  0  0  0  0  0  0  0  0
    8.1648    4.4890    0.0000 C   0  0  0  0  0  0  0  0  0  0  0  0
    8.1648    2.7570    0.0000 C   0  0  0  0  0  0  0  0  0  0  0  0
   15.1648   -0.7071    0.0000 C   0  0  0  0  0  0  0  0  0  0  0  0
    9.1648    2.7570    0.0000 C   0  0  0  0  0  0  0  0  0  0  0  0
   14.1648   -0.7071    0.0000 C   0  0  0  0  0  0  0  0  0  0  0  0
    9.6648    1.8909    0.0000 C   0  0  0  0  0  0  0  0  0  0  0  0
   13.6648   -1.5732    0.0000 C   0  0  0  0  0  0  0  0  0  0  0  0
   10.6648    1.8909    0.0000 C   0  0  0  0  0  0  0  0  0  0  0  0
   13.6648    0.1589    0.0000 C   0  0  0  0  0  0  0  0  0  0  0  0
   11.1648    1.0249    0.0000 C   0  0  0  0  0  0  0  0  0  0  0  0
   12.6648    0.1589    0.0000 C   0  0  0  0  0  0  0  0  0  0  0  0
   11.1648    2.7570    0.0000 C   0  0  0  0  0  0  0  0  0  0  0  0
   12.1648    1.0249    0.0000 C   0  0  0  0  0  0  0  0  0  0  0  0
   21.1640   -3.9723    0.0000 H   0  0  0  0  0  0  0  0  0  0  0  0
   21.5238   -2.7294    0.0000 H   0  0  0  0  0  0  0  0  0  0  0  0
   21.1249   -1.9629    0.0000 H   0  0  0  0  0  0  0  0  0  0  0  0
   18.4034   -5.6145    0.0000 H   0  0  0  0  0  0  0  0  0  0  0  0
   19.2767   -5.7481    0.0000 H   0  0  0  0  0  0  0  0  0  0  0  0
   20.7895   -1.3461    0.0000 H   0  0  0  0  0  0  0  0  0  0  0  0
   19.4161   -1.1824    0.0000 H   0  0  0  0  0  0  0  0  0  0  0  0
   18.5732   -1.4240    0.0000 H   0  0  0  0  0  0  0  0  0  0  0  0
   18.8149   -2.2669    0.0000 H   0  0  0  0  0  0  0  0  0  0  0  0
   20.2992   -0.6192    0.0000 H   0  0  0  0  0  0  0  0  0  0  0  0
   19.5723   -1.1095    0.0000 H   0  0  0  0  0  0  0  0  0  0  0  0
   18.2663   -3.7802    0.0000 H   0  0  0  0  0  0  0  0  0  0  0  0
   17.7052   -3.4365    0.0000 H   0  0  0  0  0  0  0  0  0  0  0  0
   16.8762   -3.7220    0.0000 H   0  0  0  0  0  0  0  0  0  0  0  0
   17.1616   -4.5510    0.0000 H   0  0  0  0  0  0  0  0  0  0  0  0
   17.3903   -5.4890    0.0000 H   0  0  0  0  0  0  0  0  0  0  0  0
   18.4748   -1.9022    0.0000 H   0  0  0  0  0  0  0  0  0  0  0  0
    3.8705    2.1480    0.0000 H   0  0  0  0  0  0  0  0  0  0  0  0
    4.6675    2.1480    0.0000 H   0  0  0  0  0  0  0  0  0  0  0  0
    3.1909    4.7056    0.0000 H   0  0  0  0  0  0  0  0  0  0  0  0
    2.7924    4.0153    0.0000 H   0  0  0  0  0  0  0  0  0  0  0  0
    3.4030    2.5030    0.0000 H   0  0  0  0  0  0  0  0  0  0  0  0
    6.2738    5.0170    0.0000 H   0  0  0  0  0  0  0  0  0  0  0  0
    6.9466    3.0707    0.0000 H   0  0  0  0  0  0  0  0  0  0  0  0
    4.5150    2.1230    0.0000 H   0  0  0  0  0  0  0  0  0  0  0  0
    5.1350    1.5030    0.0000 H   0  0  0  0  0  0  0  0  0  0  0  0
    5.7550    2.1230    0.0000 H   0  0  0  0  0  0  0  0  0  0  0  0
    4.3059    5.7990    0.0000 H   0  0  0  0  0  0  0  0  0  0  0  0
    5.3059    5.1790    0.0000 H   0  0  0  0  0  0  0  0  0  0  0  0
    5.0790    6.0260    0.0000 H   0  0  0  0  0  0  0  0  0  0  0  0
    4.2320    5.7990    0.0000 H   0  0  0  0  0  0  0  0  0  0  0  0
    3.4590    6.0260    0.0000 H   0  0  0  0  0  0  0  0  0  0  0  0
    3.2320    5.1790    0.0000 H   0  0  0  0  0  0  0  0  0  0  0  0
   16.1279   -2.9952    0.0000 H   0  0  0  0  0  0  0  0  0  0  0  0
   16.3548   -3.8422    0.0000 H   0  0  0  0  0  0  0  0  0  0  0  0
   17.2018   -3.6152    0.0000 H   0  0  0  0  0  0  0  0  0  0  0  0
   16.9748   -1.0362    0.0000 H   0  0  0  0  0  0  0  0  0  0  0  0
    2.0000    2.9330    0.0000 H   0  0  0  0  0  0  0  0  0  0  0  0
   15.3548   -2.1101    0.0000 H   0  0  0  0  0  0  0  0  0  0  0  0
    8.7018    4.1790    0.0000 H   0  0  0  0  0  0  0  0  0  0  0  0
    8.4748    5.0260    0.0000 H   0  0  0  0  0  0  0  0  0  0  0  0
    7.6279    4.7990    0.0000 H   0  0  0  0  0  0  0  0  0  0  0  0
    7.8548    2.2200    0.0000 H   0  0  0  0  0  0  0  0  0  0  0  0
   15.4748   -0.1702    0.0000 H   0  0  0  0  0  0  0  0  0  0  0  0
    9.4748    3.2939    0.0000 H   0  0  0  0  0  0  0  0  0  0  0  0
    9.3548    1.3540    0.0000 H   0  0  0  0  0  0  0  0  0  0  0  0
   13.1279   -1.2632    0.0000 H   0  0  0  0  0  0  0  0  0  0  0  0
   13.3548   -2.1101    0.0000 H   0  0  0  0  0  0  0  0  0  0  0  0
   14.2018   -1.8832    0.0000 H   0  0  0  0  0  0  0  0  0  0  0  0
   13.9748    0.6958    0.0000 H   0  0  0  0  0  0  0  0  0  0  0  0
   10.8548    0.4880    0.0000 H   0  0  0  0  0  0  0  0  0  0  0  0
   11.7018    2.4470    0.0000 H   0  0  0  0  0  0  0  0  0  0  0  0
   11.4748    3.2939    0.0000 H   0  0  0  0  0  0  0  0  0  0  0  0
   10.6279    3.0670    0.0000 H   0  0  0  0  0  0  0  0  0  0  0  0
   12.3548   -0.3780    0.0000 H   0  0  0  0  0  0  0  0  0  0  0  0
   12.4748    1.5618    0.0000 H   0  0  0  0  0  0  0  0  0  0  0  0
  1  5  1  0  0  0  0
  1  8  1  0  0  0  0
  2  7  1  0  0  0  0
  2 60  1  0  0  0  0
  3 16  1  0  0  0  0
  3 24  1  0  0  0  0
  4 22  1  0  0  0  0
  4 82  1  0  0  0  0
  5  6  1  0  0  0  0
  5  7  1  0  0  0  0
  5 13  1  0  0  0  0
  6  9  1  0  0  0  0
  6 11  1  0  0  0  0
  6 12  1  0  0  0  0
  7 10  1  0  0  0  0
  7 14  1  0  0  0  0
  8  9  1  0  0  0  0
  8 10  1  0  0  0  0
  8 45  1  0  0  0  0
  9 46  1  0  0  0  0
  9 47  1  0  0  0  0
 10 48  1  0  0  0  0
 10 49  1  0  0  0  0
 11 50  1  0  0  0  0
 11 54  1  0  0  0  0
 11 55  1  0  0  0  0
 12 51  1  0  0  0  0
 12 52  1  0  0  0  0
 12 53  1  0  0  0  0
 13 15  2  0  0  0  0
 13 56  1  0  0  0  0
 14 57  1  0  0  0  0
 14 58  1  0  0  0  0
 14 59  1  0  0  0  0
 15 19  1  0  0  0  0
 15 61  1  0  0  0  0
 16 18  1  0  0  0  0
 16 20  1  0  0  0  0
 16 25  1  0  0  0  0
 17 18  1  0  0  0  0
 17 21  1  0  0  0  0
 17 26  1  0  0  0  0
 17 27  1  0  0  0  0
 18 23  2  0  0  0  0
 19 28  1  0  0  0  0
 19 29  2  0  0  0  0
 20 22  1  0  0  0  0
 20 62  1  0  0  0  0
 20 63  1  0  0  0  0
 21 22  1  0  0  0  0
 21 64  1  0  0  0  0
 21 65  1  0  0  0  0
 22 66  1  0  0  0  0
 23 24  1  0  0  0  0
 23 67  1  0  0  0  0
 24 30  1  0  0  0  0
 24 68  1  0  0  0  0
 25 69  1  0  0  0  0
 25 70  1  0  0  0  0
 25 71  1  0  0  0  0
 26 72  1  0  0  0  0
 26 76  1  0  0  0  0
 26 77  1  0  0  0  0
 27 73  1  0  0  0  0
 27 74  1  0  0  0  0
 27 75  1  0  0  0  0
 28 78  1  0  0  0  0
 28 79  1  0  0  0  0
 28 80  1  0  0  0  0
 29 31  1  0  0  0  0
 29 81  1  0  0  0  0
 30 32  1  0  0  0  0
 30 33  2  0  0  0  0
 31 34  2  0  0  0  0
 31 83  1  0  0  0  0
 32 84  1  0  0  0  0
 32 85  1  0  0  0  0
 32 86  1  0  0  0  0
 33 35  1  0  0  0  0
 33 87  1  0  0  0  0
 34 36  1  0  0  0  0
 34 88  1  0  0  0  0
 35 37  2  0  0  0  0
 35 89  1  0  0  0  0
 36 38  1  0  0  0  0
 36 40  2  0  0  0  0
 37 39  1  0  0  0  0
 37 90  1  0  0  0  0
 38 91  1  0  0  0  0
 38 92  1  0  0  0  0
 38 93  1  0  0  0  0
 39 41  2  0  0  0  0
 39 43  1  0  0  0  0
 40 42  1  0  0  0  0
 40 94  1  0  0  0  0
 41 44  1  0  0  0  0
 41 95  1  0  0  0  0
 42 44  2  0  0  0  0
 42 99  1  0  0  0  0
 43 96  1  0  0  0  0
 43 97  1  0  0  0  0
 43 98  1  0  0  0  0
 44100  1  0  0  0  0
M  END
>  <PUBCHEM_COMPOUND_CID>
131753168

>  <PUBCHEM_COMPOUND_CANONICALIZED>
1

>  <PUBCHEM_CACTVS_COMPLEXITY>
1380

>  <PUBCHEM_CACTVS_HBOND_ACCEPTOR>
4

>  <PUBCHEM_CACTVS_HBOND_DONOR>
2

>  <PUBCHEM_CACTVS_ROTATABLE_BOND>
9

>  <PUBCHEM_CACTVS_SUBSKEYS>
AAADcfB8OAAAAAAAAAAAAAAAAAAAASJEAAAwYAAAAAAAAEAAAAAAGgAACAAADlSggAICAAAABgCAAiBCAAAAAAAgAAAICAAAAAgJFAIAIQACUAAFwAALoAOA4PwPgAAAAAAAAABAAAYQADCAAAAAAAAAAA==

>  <PUBCHEM_IUPAC_OPENEYE_NAME>
2-[(1E,3E,5E,7E,9E,11E,13E,15E)-16-(3-hydroxy-3,5,5-trimethyl-7-oxabicyclo[2.2.1]heptan-4-yl)-1,5,10,14-tetramethyl-hexadeca-1,3,5,7,9,11,13,15-octaenyl]-4,4,7a-trimethyl-2,5,6,7-tetrahydrobenzofuran-6-ol

>  <PUBCHEM_IUPAC_CAS_NAME>
2-[(2E,4E,6E,8E,10E,12E,14E,16E)-17-(3-hydroxy-3,5,5-trimethyl-7-oxabicyclo[2.2.1]heptan-4-yl)-6,11,15-trimethylheptadeca-2,4,6,8,10,12,14,16-octaen-2-yl]-4,4,7a-trimethyl-2,5,6,7-tetrahydrobenzofuran-6-ol

>  <PUBCHEM_IUPAC_NAME>
2-[(2E,4E,6E,8E,10E,12E,14E,16E)-17-(3-hydroxy-3,5,5-trimethyl-7-oxabicyclo[2.2.1]heptan-4-yl)-6,11,15-trimethylheptadeca-2,4,6,8,10,12,14,16-octaen-2-yl]-4,4,7a-trimethyl-2,5,6,7-tetrahydro-1-benzofuran-6-ol

>  <PUBCHEM_IUPAC_SYSTEMATIC_NAME>
4,4,7a-trimethyl-2-[(2E,4E,6E,8E,10E,12E,14E,16E)-6,11,15-trimethyl-17-(3,5,5-trimethyl-3-oxidanyl-7-oxabicyclo[2.2.1]heptan-4-yl)heptadeca-2,4,6,8,10,12,14,16-octaen-2-yl]-2,5,6,7-tetrahydro-1-benzofuran-6-ol

>  <PUBCHEM_IUPAC_TRADITIONAL_NAME>
2-[(1E,3E,5E,7E,9E,11E,13E,15E)-16-(3-hydroxy-3,5,5-trimethyl-7-oxabicyclo[2.2.1]heptan-4-yl)-1,5,10,14-tetramethyl-hexadeca-1,3,5,7,9,11,13,15-octaenyl]-4,4,7a-trimethyl-2,5,6,7-tetrahydrobenzofuran-6-ol

>  <PUBCHEM_IUPAC_INCHI>
InChI=1S/C40H56O4/c1-28(17-13-18-30(3)21-22-40-37(7,8)26-33(43-40)27-39(40,10)42)15-11-12-16-29(2)19-14-20-31(4)34-23-35-36(5,6)24-32(41)25-38(35,9)44-34/h11-23,32-34,41-42H,24-27H2,1-10H3/b12-11+,17-13+,19-14+,22-21+,28-15+,29-16+,30-18+,31-20+

>  <PUBCHEM_IUPAC_INCHIKEY>
YMNKXGQZDVGTFM-OMSIYMKDSA-N

>  <PUBCHEM_EXACT_MASS>
600.418

>  <PUBCHEM_MOLECULAR_FORMULA>
C40H56O4

>  <PUBCHEM_MOLECULAR_WEIGHT>
600.884

>  <PUBCHEM_OPENEYE_CAN_SMILES>
CC(=CC=CC=C(C)C=CC=C(C)C1C=C2C(CC(CC2(O1)C)O)(C)C)C=CC=C(C)C=CC34C(CC(O3)CC4(C)O)(C)C

>  <PUBCHEM_OPENEYE_ISO_SMILES>
C/C(=C\C=C\C=C(/C)\C=C\C=C(/C)\C1C=C2C(CC(CC2(O1)C)O)(C)C)/C=C/C=C(\C)/C=C/C34C(CC(O3)CC4(C)O)(C)C

>  <PUBCHEM_CACTVS_TPSA>
58.9

>  <PUBCHEM_MONOISOTOPIC_WEIGHT>
600.418

>  <PUBCHEM_TOTAL_CHARGE>
0

>  <PUBCHEM_HEAVY_ATOM_COUNT>
44

>  <PUBCHEM_ATOM_DEF_STEREO_COUNT>
0

>  <PUBCHEM_ATOM_UDEF_STEREO_COUNT>
6

>  <PUBCHEM_BOND_DEF_STEREO_COUNT>
8

>  <PUBCHEM_BOND_UDEF_STEREO_COUNT>
0

>  <PUBCHEM_ISOTOPIC_ATOM_COUNT>
0

>  <PUBCHEM_COMPONENT_COUNT>
1

>  <PUBCHEM_CACTVS_TAUTO_COUNT>
41

>  <PUBCHEM_COORDINATE_TYPE>
1
5
255

>  <PUBCHEM_BONDANNOTATIONS>
16  25  3
7  2  3
24  30  3
22  4  3
5  13  3
8  9  3

$$$$
