131751167
 OpenBabel06101807152D

 81 86  0  0  1  0  0  0  0  0999 V2000
    5.5954   -1.6650    0.0000 O   0  0  0  0  0  0  0  0  0  0  0  0
    5.4454   -2.7526    0.0000 O   0  0  0  0  0  0  0  0  0  0  0  0
   12.0027    3.7143    0.0000 O   0  0  0  0  0  0  0  0  0  0  0  0
    4.4286   -4.1547    0.0000 O   0  0  0  0  0  0  0  0  0  0  0  0
    3.9300   -0.5838    0.0000 N   0  0  0  0  0  0  0  0  0  0  0  0
    6.6628    0.5699    0.0000 C   0  0  3  0  0  0  0  0  0  0  0  0
    7.5288    0.0699    0.0000 C   0  0  3  0  0  0  0  0  0  0  0  0
    5.9258   -0.0972    0.0000 C   0  0  3  0  0  0  0  0  0  0  0  0
    8.3948    0.5699    0.0000 C   0  0  3  0  0  0  0  0  0  0  0  0
    8.3948    1.5699    0.0000 C   0  0  3  0  0  0  0  0  0  0  0  0
    6.3309   -1.0050    0.0000 C   0  0  3  0  0  0  0  0  0  0  0  0
    7.3196   -0.9019    0.0000 C   0  0  0  0  0  0  0  0  0  0  0  0
    9.2888    2.1045    0.0000 C   0  0  3  0  0  0  0  0  0  0  0  0
    6.6628    1.5699    0.0000 C   0  0  0  0  0  0  0  0  0  0  0  0
    4.9434   -0.2039    0.0000 C   0  0  3  0  0  0  0  0  0  0  0  0
    7.5288    2.0699    0.0000 C   0  0  0  0  0  0  0  0  0  0  0  0
   10.1949    1.5907    0.0000 C   0  0  3  0  0  0  0  0  0  0  0  0
    4.7396   -1.1709    0.0000 C   0  0  3  0  0  0  0  0  0  0  0  0
    9.2888    0.0352    0.0000 C   0  0  0  0  0  0  0  0  0  0  0  0
    5.7968    1.0699    0.0000 C   0  0  0  0  0  0  0  0  0  0  0  0
   10.1949    0.5491    0.0000 C   0  0  0  0  0  0  0  0  0  0  0  0
    9.2637    3.1892    0.0000 C   0  0  0  0  0  0  0  0  0  0  0  0
   11.1386    2.1259    0.0000 C   0  0  0  0  0  0  0  0  0  0  0  0
    8.4189    2.5978    0.0000 C   0  0  0  0  0  0  0  0  0  0  0  0
    4.6359   -2.1655    0.0000 C   0  0  3  0  0  0  0  0  0  0  0  0
    4.7329    0.7737    0.0000 C   0  0  0  0  0  0  0  0  0  0  0  0
   10.1949    3.7462    0.0000 C   0  0  0  0  0  0  0  0  0  0  0  0
   11.1386    3.2109    0.0000 C   0  0  3  0  0  0  0  0  0  0  0  0
    3.7227   -2.5730    0.0000 C   0  0  0  0  0  0  0  0  0  0  0  0
    3.0169   -0.9913    0.0000 C   0  0  0  0  0  0  0  0  0  0  0  0
    2.9132   -1.9859    0.0000 C   0  0  3  0  0  0  0  0  0  0  0  0
    2.0000   -2.3934    0.0000 C   0  0  0  0  0  0  0  0  0  0  0  0
    5.3418   -3.7472    0.0000 C   0  0  0  0  0  0  0  0  0  0  0  0
    6.1513   -4.3342    0.0000 C   0  0  0  0  0  0  0  0  0  0  0  0
    8.0299   -0.2952    0.0000 H   0  0  0  0  0  0  0  0  0  0  0  0
    5.6719    0.4684    0.0000 H   0  0  0  0  0  0  0  0  0  0  0  0
    8.3901   -0.0501    0.0000 H   0  0  0  0  0  0  0  0  0  0  0  0
    8.9342    1.2640    0.0000 H   0  0  0  0  0  0  0  0  0  0  0  0
    6.5823   -1.5717    0.0000 H   0  0  0  0  0  0  0  0  0  0  0  0
    7.3187   -1.5219    0.0000 H   0  0  0  0  0  0  0  0  0  0  0  0
    7.9361   -0.9680    0.0000 H   0  0  0  0  0  0  0  0  0  0  0  0
    6.4507    2.1525    0.0000 H   0  0  0  0  0  0  0  0  0  0  0  0
    6.0522    1.4622    0.0000 H   0  0  0  0  0  0  0  0  0  0  0  0
    4.3234   -0.2052    0.0000 H   0  0  0  0  0  0  0  0  0  0  0  0
    7.9274    2.5448    0.0000 H   0  0  0  0  0  0  0  0  0  0  0  0
    7.1303    2.5448    0.0000 H   0  0  0  0  0  0  0  0  0  0  0  0
   10.7306    1.2786    0.0000 H   0  0  0  0  0  0  0  0  0  0  0  0
    8.8842   -0.4346    0.0000 H   0  0  0  0  0  0  0  0  0  0  0  0
    9.6824   -0.4438    0.0000 H   0  0  0  0  0  0  0  0  0  0  0  0
    6.1068    1.6068    0.0000 H   0  0  0  0  0  0  0  0  0  0  0  0
    5.2598    1.3799    0.0000 H   0  0  0  0  0  0  0  0  0  0  0  0
    5.4868    0.5329    0.0000 H   0  0  0  0  0  0  0  0  0  0  0  0
   10.4039   -0.0346    0.0000 H   0  0  0  0  0  0  0  0  0  0  0  0
   10.8057    0.6552    0.0000 H   0  0  0  0  0  0  0  0  0  0  0  0
    9.0412    3.7679    0.0000 H   0  0  0  0  0  0  0  0  0  0  0  0
    8.6555    3.0690    0.0000 H   0  0  0  0  0  0  0  0  0  0  0  0
   11.3477    1.5422    0.0000 H   0  0  0  0  0  0  0  0  0  0  0  0
   11.7495    2.2320    0.0000 H   0  0  0  0  0  0  0  0  0  0  0  0
    8.7248    3.1372    0.0000 H   0  0  0  0  0  0  0  0  0  0  0  0
    7.8796    2.9037    0.0000 H   0  0  0  0  0  0  0  0  0  0  0  0
    8.1131    2.0585    0.0000 H   0  0  0  0  0  0  0  0  0  0  0  0
    4.5716   -2.7821    0.0000 H   0  0  0  0  0  0  0  0  0  0  0  0
    5.3390    0.9042    0.0000 H   0  0  0  0  0  0  0  0  0  0  0  0
    4.6024    1.3798    0.0000 H   0  0  0  0  0  0  0  0  0  0  0  0
    4.1268    0.6432    0.0000 H   0  0  0  0  0  0  0  0  0  0  0  0
   10.5885    4.2252    0.0000 H   0  0  0  0  0  0  0  0  0  0  0  0
    9.7903    4.2160    0.0000 H   0  0  0  0  0  0  0  0  0  0  0  0
    3.6774   -0.0176    0.0000 H   0  0  0  0  0  0  0  0  0  0  0  0
   11.1351    3.8309    0.0000 H   0  0  0  0  0  0  0  0  0  0  0  0
    3.2771   -3.0041    0.0000 H   0  0  0  0  0  0  0  0  0  0  0  0
    4.0699   -3.0867    0.0000 H   0  0  0  0  0  0  0  0  0  0  0  0
    2.8664   -0.3898    0.0000 H   0  0  0  0  0  0  0  0  0  0  0  0
    2.3984   -1.0351    0.0000 H   0  0  0  0  0  0  0  0  0  0  0  0
    2.4113   -1.6219    0.0000 H   0  0  0  0  0  0  0  0  0  0  0  0
   12.0003    4.3342    0.0000 H   0  0  0  0  0  0  0  0  0  0  0  0
    1.7473   -1.8273    0.0000 H   0  0  0  0  0  0  0  0  0  0  0  0
    1.4338   -2.6461    0.0000 H   0  0  0  0  0  0  0  0  0  0  0  0
    2.2527   -2.9596    0.0000 H   0  0  0  0  0  0  0  0  0  0  0  0
    5.7873   -4.8362    0.0000 H   0  0  0  0  0  0  0  0  0  0  0  0
    6.6532   -4.6982    0.0000 H   0  0  0  0  0  0  0  0  0  0  0  0
    6.5153   -3.8324    0.0000 H   0  0  0  0  0  0  0  0  0  0  0  0
  1 11  1  0  0  0  0
  1 18  1  0  0  0  0
  2 25  1  0  0  0  0
  2 33  1  0  0  0  0
  3 28  1  0  0  0  0
  3 75  1  0  0  0  0
  4 33  2  0  0  0  0
  5 18  1  0  0  0  0
  5 30  1  0  0  0  0
  5 68  1  0  0  0  0
  6  7  1  0  0  0  0
  6  8  1  0  0  0  0
  6 14  1  0  0  0  0
  6 20  1  0  0  0  0
  7  9  1  0  0  0  0
  7 12  1  0  0  0  0
  7 35  1  0  0  0  0
  8 11  1  0  0  0  0
  8 15  1  0  0  0  0
  8 36  1  0  0  0  0
  9 10  1  0  0  0  0
  9 19  1  0  0  0  0
  9 37  1  0  0  0  0
 10 13  1  0  0  0  0
 10 16  1  0  0  0  0
 10 38  1  0  0  0  0
 11 12  1  0  0  0  0
 11 39  1  0  0  0  0
 12 40  1  0  0  0  0
 12 41  1  0  0  0  0
 13 17  1  0  0  0  0
 13 22  1  0  0  0  0
 13 24  1  0  0  0  0
 14 16  1  0  0  0  0
 14 42  1  0  0  0  0
 14 43  1  0  0  0  0
 15 18  1  0  0  0  0
 15 26  1  0  0  0  0
 15 44  1  0  0  0  0
 16 45  1  0  0  0  0
 16 46  1  0  0  0  0
 17 21  1  0  0  0  0
 17 23  1  0  0  0  0
 17 47  1  0  0  0  0
 18 25  1  0  0  0  0
 19 21  1  0  0  0  0
 19 48  1  0  0  0  0
 19 49  1  0  0  0  0
 20 50  1  0  0  0  0
 20 51  1  0  0  0  0
 20 52  1  0  0  0  0
 21 53  1  0  0  0  0
 21 54  1  0  0  0  0
 22 27  1  0  0  0  0
 22 55  1  0  0  0  0
 22 56  1  0  0  0  0
 23 28  1  0  0  0  0
 23 57  1  0  0  0  0
 23 58  1  0  0  0  0
 24 59  1  0  0  0  0
 24 60  1  0  0  0  0
 24 61  1  0  0  0  0
 25 29  1  0  0  0  0
 25 62  1  0  0  0  0
 26 63  1  0  0  0  0
 26 64  1  0  0  0  0
 26 65  1  0  0  0  0
 27 28  1  0  0  0  0
 27 66  1  0  0  0  0
 27 67  1  0  0  0  0
 28 69  1  0  0  0  0
 29 31  1  0  0  0  0
 29 70  1  0  0  0  0
 29 71  1  0  0  0  0
 30 31  1  0  0  0  0
 30 72  1  0  0  0  0
 30 73  1  0  0  0  0
 31 32  1  0  0  0  0
 31 74  1  0  0  0  0
 32 76  1  0  0  0  0
 32 77  1  0  0  0  0
 32 78  1  0  0  0  0
 33 34  1  0  0  0  0
 34 79  1  0  0  0  0
 34 80  1  0  0  0  0
 34 81  1  0  0  0  0
M  END
>  <PUBCHEM_COMPOUND_CID>
131751167

>  <PUBCHEM_COMPOUND_CANONICALIZED>
1

>  <PUBCHEM_CACTVS_COMPLEXITY>
833

>  <PUBCHEM_CACTVS_HBOND_ACCEPTOR>
5

>  <PUBCHEM_CACTVS_HBOND_DONOR>
2

>  <PUBCHEM_CACTVS_ROTATABLE_BOND>
2

>  <PUBCHEM_CACTVS_SUBSKEYS>
AAADcfB6OAAAAAAAAAAAAAAAAAAAAaIAAAA8YMEAAAASAGDAAAAAHgAQCAAADxzhgAYCCALABgAIAACQCAAAAAAAAAAAAIAIAAEDEAIAgAAPQAAEEACSAAGw8PwPgAAAAAAAAADAAAYAACAAAYAADAAAAA==

>  <PUBCHEM_IUPAC_INCHI>
InChI=1S/C29H47NO4/c1-16-12-25(33-18(3)31)29(30-15-16)17(2)26-24(34-29)14-23-21-7-6-19-13-20(32)8-10-27(19,4)22(21)9-11-28(23,26)5/h16-17,19-26,30,32H,6-15H2,1-5H3

>  <PUBCHEM_IUPAC_INCHIKEY>
HQJSCXYJQVACQR-UHFFFAOYSA-N

>  <PUBCHEM_EXACT_MASS>
473.351

>  <PUBCHEM_MOLECULAR_FORMULA>
C29H47NO4

>  <PUBCHEM_MOLECULAR_WEIGHT>
473.698

>  <PUBCHEM_OPENEYE_CAN_SMILES>
CC1CC(C2(C(C3C(O2)CC4C3(CCC5C4CCC6C5(CCC(C6)O)C)C)C)NC1)OC(=O)C

>  <PUBCHEM_OPENEYE_ISO_SMILES>
CC1CC(C2(C(C3C(O2)CC4C3(CCC5C4CCC6C5(CCC(C6)O)C)C)C)NC1)OC(=O)C

>  <PUBCHEM_CACTVS_TPSA>
67.8

>  <PUBCHEM_MONOISOTOPIC_WEIGHT>
473.351

>  <PUBCHEM_TOTAL_CHARGE>
0

>  <PUBCHEM_HEAVY_ATOM_COUNT>
34

>  <PUBCHEM_ATOM_DEF_STEREO_COUNT>
0

>  <PUBCHEM_ATOM_UDEF_STEREO_COUNT>
13

>  <PUBCHEM_BOND_DEF_STEREO_COUNT>
0

>  <PUBCHEM_BOND_UDEF_STEREO_COUNT>
0

>  <PUBCHEM_ISOTOPIC_ATOM_COUNT>
0

>  <PUBCHEM_COMPONENT_COUNT>
1

>  <PUBCHEM_CACTVS_TAUTO_COUNT>
1

>  <PUBCHEM_COORDINATE_TYPE>
1
5
255

>  <PUBCHEM_BONDANNOTATIONS>
10  16  3
11  12  3
13  24  3
15  26  3
17  21  3
25  2  3
28  3  3
31  32  3
18  5  3
6  20  3
7  12  3
8  15  3
9  19  3

$$$$
