131750908
 OpenBabel06101807152D

 90 93  0  0  1  0  0  0  0  0999 V2000
    7.7331    2.5000    0.0000 O   0  0  0  0  0  0  0  0  0  0  0  0
    4.2690   -2.5000    0.0000 O   0  0  0  0  0  0  0  0  0  0  0  0
    7.7331    0.5000    0.0000 O   0  0  0  0  0  0  0  0  0  0  0  0
    4.2690   -0.5000    0.0000 O   0  0  0  0  0  0  0  0  0  0  0  0
    3.4030    5.0000    0.0000 O   0  0  0  0  0  0  0  0  0  0  0  0
    8.5991   -5.0000    0.0000 O   0  0  0  0  0  0  0  0  0  0  0  0
    9.4651   -3.5000    0.0000 O   0  0  0  0  0  0  0  0  0  0  0  0
    2.5369    3.5000    0.0000 O   0  0  0  0  0  0  0  0  0  0  0  0
    9.4651    8.5000    0.0000 O   0  0  0  0  0  0  0  0  0  0  0  0
    2.5369   -8.5000    0.0000 O   0  0  0  0  0  0  0  0  0  0  0  0
    7.7331    8.5000    0.0000 O   0  0  0  0  0  0  0  0  0  0  0  0
    4.2690   -8.5000    0.0000 O   0  0  0  0  0  0  0  0  0  0  0  0
    5.1350    4.0000    0.0000 N   0  0  0  0  0  0  0  0  0  0  0  0
    6.8671   -4.0000    0.0000 N   0  0  0  0  0  0  0  0  0  0  0  0
    9.4651    6.5000    0.0000 N   0  0  0  0  0  0  0  0  0  0  0  0
    2.5369   -6.5000    0.0000 N   0  0  0  0  0  0  0  0  0  0  0  0
    6.0010    0.5000    0.0000 C   0  0  0  0  0  0  0  0  0  0  0  0
    6.0010   -0.5000    0.0000 C   0  0  0  0  0  0  0  0  0  0  0  0
    5.1350    2.0000    0.0000 C   0  0  0  0  0  0  0  0  0  0  0  0
    6.8671   -2.0000    0.0000 C   0  0  0  0  0  0  0  0  0  0  0  0
    7.7331   -2.5000    0.0000 C   0  0  0  0  0  0  0  0  0  0  0  0
    4.2690    2.5000    0.0000 C   0  0  0  0  0  0  0  0  0  0  0  0
    6.8671   -1.0000    0.0000 C   0  0  0  0  0  0  0  0  0  0  0  0
    5.1350    1.0000    0.0000 C   0  0  0  0  0  0  0  0  0  0  0  0
    5.1350   -1.0000    0.0000 C   0  0  0  0  0  0  0  0  0  0  0  0
    6.8671    1.0000    0.0000 C   0  0  0  0  0  0  0  0  0  0  0  0
    7.7331   -3.5000    0.0000 C   0  0  3  0  0  0  0  0  0  0  0  0
    4.2690    3.5000    0.0000 C   0  0  3  0  0  0  0  0  0  0  0  0
    6.8671    2.0000    0.0000 C   0  0  0  0  0  0  0  0  0  0  0  0
    5.1350   -2.0000    0.0000 C   0  0  0  0  0  0  0  0  0  0  0  0
    6.0010   -2.5000    0.0000 C   0  0  0  0  0  0  0  0  0  0  0  0
    6.0010    2.5000    0.0000 C   0  0  0  0  0  0  0  0  0  0  0  0
    7.7331    3.5000    0.0000 C   0  0  0  0  0  0  0  0  0  0  0  0
    4.2690   -3.5000    0.0000 C   0  0  0  0  0  0  0  0  0  0  0  0
    8.5991   -4.0000    0.0000 C   0  0  0  0  0  0  0  0  0  0  0  0
    3.4030    4.0000    0.0000 C   0  0  0  0  0  0  0  0  0  0  0  0
    4.2690   -6.5000    0.0000 C   0  0  0  0  0  0  0  0  0  0  0  0
    7.7331    6.5000    0.0000 C   0  0  0  0  0  0  0  0  0  0  0  0
    7.7331    5.5000    0.0000 C   0  0  0  0  0  0  0  0  0  0  0  0
    4.2690   -5.5000    0.0000 C   0  0  0  0  0  0  0  0  0  0  0  0
    3.4030   -7.0000    0.0000 C   0  0  3  0  0  0  0  0  0  0  0  0
    8.5991    7.0000    0.0000 C   0  0  3  0  0  0  0  0  0  0  0  0
    8.5991    4.0000    0.0000 C   0  0  0  0  0  0  0  0  0  0  0  0
    3.4030   -4.0000    0.0000 C   0  0  0  0  0  0  0  0  0  0  0  0
    6.8671    4.0000    0.0000 C   0  0  0  0  0  0  0  0  0  0  0  0
    5.1350   -4.0000    0.0000 C   0  0  0  0  0  0  0  0  0  0  0  0
    3.4030   -5.0000    0.0000 C   0  0  0  0  0  0  0  0  0  0  0  0
    8.5991    5.0000    0.0000 C   0  0  0  0  0  0  0  0  0  0  0  0
    6.8671    5.0000    0.0000 C   0  0  0  0  0  0  0  0  0  0  0  0
    5.1350   -5.0000    0.0000 C   0  0  0  0  0  0  0  0  0  0  0  0
    3.4030   -8.0000    0.0000 C   0  0  0  0  0  0  0  0  0  0  0  0
    8.5991    8.0000    0.0000 C   0  0  0  0  0  0  0  0  0  0  0  0
    3.6584    2.6077    0.0000 H   0  0  0  0  0  0  0  0  0  0  0  0
    4.0569    1.9174    0.0000 H   0  0  0  0  0  0  0  0  0  0  0  0
    8.3437   -2.6077    0.0000 H   0  0  0  0  0  0  0  0  0  0  0  0
    7.9451   -1.9174    0.0000 H   0  0  0  0  0  0  0  0  0  0  0  0
    4.5981    0.6900    0.0000 H   0  0  0  0  0  0  0  0  0  0  0  0
    7.4040   -0.6900    0.0000 H   0  0  0  0  0  0  0  0  0  0  0  0
    4.2690    4.1200    0.0000 H   0  0  0  0  0  0  0  0  0  0  0  0
    7.7331   -4.1200    0.0000 H   0  0  0  0  0  0  0  0  0  0  0  0
    6.0010    3.1200    0.0000 H   0  0  0  0  0  0  0  0  0  0  0  0
    6.0010   -3.1200    0.0000 H   0  0  0  0  0  0  0  0  0  0  0  0
    7.5210    7.0826    0.0000 H   0  0  0  0  0  0  0  0  0  0  0  0
    7.1225    6.3923    0.0000 H   0  0  0  0  0  0  0  0  0  0  0  0
    4.4810   -7.0826    0.0000 H   0  0  0  0  0  0  0  0  0  0  0  0
    4.8796   -6.3923    0.0000 H   0  0  0  0  0  0  0  0  0  0  0  0
    6.8671   -4.6200    0.0000 H   0  0  0  0  0  0  0  0  0  0  0  0
    6.3301   -3.6900    0.0000 H   0  0  0  0  0  0  0  0  0  0  0  0
    5.1350    4.6200    0.0000 H   0  0  0  0  0  0  0  0  0  0  0  0
    5.6720    3.6900    0.0000 H   0  0  0  0  0  0  0  0  0  0  0  0
    8.2700    0.8100    0.0000 H   0  0  0  0  0  0  0  0  0  0  0  0
    3.7320   -0.8100    0.0000 H   0  0  0  0  0  0  0  0  0  0  0  0
    8.5991    6.3800    0.0000 H   0  0  0  0  0  0  0  0  0  0  0  0
    3.4030   -6.3800    0.0000 H   0  0  0  0  0  0  0  0  0  0  0  0
    9.1360    3.6900    0.0000 H   0  0  0  0  0  0  0  0  0  0  0  0
    2.8660   -3.6900    0.0000 H   0  0  0  0  0  0  0  0  0  0  0  0
    6.3301    3.6900    0.0000 H   0  0  0  0  0  0  0  0  0  0  0  0
    5.6720   -3.6900    0.0000 H   0  0  0  0  0  0  0  0  0  0  0  0
    2.8660   -5.3100    0.0000 H   0  0  0  0  0  0  0  0  0  0  0  0
    9.1360    5.3100    0.0000 H   0  0  0  0  0  0  0  0  0  0  0  0
    5.6720   -5.3100    0.0000 H   0  0  0  0  0  0  0  0  0  0  0  0
    6.3301    5.3100    0.0000 H   0  0  0  0  0  0  0  0  0  0  0  0
   10.0021    6.8100    0.0000 H   0  0  0  0  0  0  0  0  0  0  0  0
    9.4651    5.8800    0.0000 H   0  0  0  0  0  0  0  0  0  0  0  0
    2.0000   -6.8100    0.0000 H   0  0  0  0  0  0  0  0  0  0  0  0
    2.5369   -5.8800    0.0000 H   0  0  0  0  0  0  0  0  0  0  0  0
    2.8660    5.3100    0.0000 H   0  0  0  0  0  0  0  0  0  0  0  0
    9.1360   -5.3100    0.0000 H   0  0  0  0  0  0  0  0  0  0  0  0
    9.4651    9.1200    0.0000 H   0  0  0  0  0  0  0  0  0  0  0  0
    2.5369   -9.1200    0.0000 H   0  0  0  0  0  0  0  0  0  0  0  0
  1 29  1  0  0  0  0
  1 33  1  0  0  0  0
  2 30  1  0  0  0  0
  2 34  1  0  0  0  0
  3 26  1  0  0  0  0
  3 71  1  0  0  0  0
  4 25  1  0  0  0  0
  4 72  1  0  0  0  0
  5 36  1  0  0  0  0
  5 87  1  0  0  0  0
  6 35  1  0  0  0  0
  6 88  1  0  0  0  0
  7 35  2  0  0  0  0
  8 36  2  0  0  0  0
  9 52  1  0  0  0  0
  9 89  1  0  0  0  0
 10 51  1  0  0  0  0
 10 90  1  0  0  0  0
 11 52  2  0  0  0  0
 12 51  2  0  0  0  0
 13 28  1  0  0  0  0
 13 69  1  0  0  0  0
 13 70  1  0  0  0  0
 14 27  1  0  0  0  0
 14 67  1  0  0  0  0
 14 68  1  0  0  0  0
 15 42  1  0  0  0  0
 15 83  1  0  0  0  0
 15 84  1  0  0  0  0
 16 41  1  0  0  0  0
 16 85  1  0  0  0  0
 16 86  1  0  0  0  0
 17 18  1  0  0  0  0
 17 24  1  0  0  0  0
 17 26  2  0  0  0  0
 18 23  1  0  0  0  0
 18 25  2  0  0  0  0
 19 22  1  0  0  0  0
 19 24  2  0  0  0  0
 19 32  1  0  0  0  0
 20 21  1  0  0  0  0
 20 23  2  0  0  0  0
 20 31  1  0  0  0  0
 21 27  1  0  0  0  0
 21 55  1  0  0  0  0
 21 56  1  0  0  0  0
 22 28  1  0  0  0  0
 22 53  1  0  0  0  0
 22 54  1  0  0  0  0
 23 58  1  0  0  0  0
 24 57  1  0  0  0  0
 25 30  1  0  0  0  0
 26 29  1  0  0  0  0
 27 35  1  0  0  0  0
 27 60  1  0  0  0  0
 28 36  1  0  0  0  0
 28 59  1  0  0  0  0
 29 32  2  0  0  0  0
 30 31  2  0  0  0  0
 31 62  1  0  0  0  0
 32 61  1  0  0  0  0
 33 43  2  0  0  0  0
 33 45  1  0  0  0  0
 34 44  2  0  0  0  0
 34 46  1  0  0  0  0
 37 40  1  0  0  0  0
 37 41  1  0  0  0  0
 37 65  1  0  0  0  0
 37 66  1  0  0  0  0
 38 39  1  0  0  0  0
 38 42  1  0  0  0  0
 38 63  1  0  0  0  0
 38 64  1  0  0  0  0
 39 48  2  0  0  0  0
 39 49  1  0  0  0  0
 40 47  2  0  0  0  0
 40 50  1  0  0  0  0
 41 51  1  0  0  0  0
 41 74  1  0  0  0  0
 42 52  1  0  0  0  0
 42 73  1  0  0  0  0
 43 48  1  0  0  0  0
 43 75  1  0  0  0  0
 44 47  1  0  0  0  0
 44 76  1  0  0  0  0
 45 49  2  0  0  0  0
 45 77  1  0  0  0  0
 46 50  2  0  0  0  0
 46 78  1  0  0  0  0
 47 79  1  0  0  0  0
 48 80  1  0  0  0  0
 49 82  1  0  0  0  0
 50 81  1  0  0  0  0
M  END
>  <PUBCHEM_COMPOUND_CID>
131750908

>  <PUBCHEM_COMPOUND_CANONICALIZED>
1

>  <PUBCHEM_CACTVS_COMPLEXITY>
1110

>  <PUBCHEM_CACTVS_HBOND_ACCEPTOR>
16

>  <PUBCHEM_CACTVS_HBOND_DONOR>
10

>  <PUBCHEM_CACTVS_ROTATABLE_BOND>
17

>  <PUBCHEM_CACTVS_SUBSKEYS>
AAADcfB/vAAAAAAAAAAAAAAAAAAAAAAAAAAwYMGAAAAAAAABVAAAHgAQCAAADCzBmAQwDoBABgCIAiDSCAACCAAgIAAIiIGGiIgPJjKGsRuCeCOk0BELuAfY+P2OoAADAAAIQABAAAYAABCAAAAAAAAAAA==

>  <PUBCHEM_IUPAC_OPENEYE_NAME>
2-amino-3-[4-[5-(2-amino-2-carboxy-ethyl)-3-[5-(2-amino-2-carboxy-ethyl)-3-[4-(2-amino-2-carboxy-ethyl)phenoxy]-2-hydroxy-phenyl]-2-hydroxy-phenoxy]phenyl]propanoic acid

>  <PUBCHEM_IUPAC_CAS_NAME>
2-amino-3-[4-[5-(2-amino-2-carboxyethyl)-3-[5-(2-amino-2-carboxyethyl)-3-[4-(2-amino-2-carboxyethyl)phenoxy]-2-hydroxyphenyl]-2-hydroxyphenoxy]phenyl]propanoic acid

>  <PUBCHEM_IUPAC_NAME>
2-amino-3-[4-[5-(2-amino-2-carboxyethyl)-3-[5-(2-amino-2-carboxyethyl)-3-[4-(2-amino-2-carboxyethyl)phenoxy]-2-hydroxyphenyl]-2-hydroxyphenoxy]phenyl]propanoic acid

>  <PUBCHEM_IUPAC_SYSTEMATIC_NAME>
2-azanyl-3-[4-[5-(2-azanyl-3-oxidanyl-3-oxidanylidene-propyl)-3-[5-(2-azanyl-3-oxidanyl-3-oxidanylidene-propyl)-3-[4-(2-azanyl-3-oxidanyl-3-oxidanylidene-propyl)phenoxy]-2-oxidanyl-phenyl]-2-oxidanyl-phenoxy]phenyl]propanoic acid

>  <PUBCHEM_IUPAC_TRADITIONAL_NAME>
2-amino-3-[4-[5-(2-amino-2-carboxy-ethyl)-3-[5-(2-amino-2-carboxy-ethyl)-3-[4-(2-amino-2-carboxy-ethyl)phenoxy]-2-hydroxy-phenyl]-2-hydroxy-phenoxy]phenyl]propionic acid

>  <PUBCHEM_IUPAC_INCHI>
InChI=1S/C36H38N4O12/c37-25(33(43)44)11-17-1-5-21(6-2-17)51-29-15-19(13-27(39)35(47)48)9-23(31(29)41)24-10-20(14-28(40)36(49)50)16-30(32(24)42)52-22-7-3-18(4-8-22)12-26(38)34(45)46/h1-10,15-16,25-28,41-42H,11-14,37-40H2,(H,43,44)(H,45,46)(H,47,48)(H,49,50)

>  <PUBCHEM_IUPAC_INCHIKEY>
AEABCQUPKOOFQW-UHFFFAOYSA-N

>  <PUBCHEM_EXACT_MASS>
718.249

>  <PUBCHEM_MOLECULAR_FORMULA>
C36H38N4O12

>  <PUBCHEM_MOLECULAR_WEIGHT>
718.716

>  <PUBCHEM_OPENEYE_CAN_SMILES>
C1=CC(=CC=C1CC(C(=O)O)N)OC2=C(C(=CC(=C2)CC(C(=O)O)N)C3=CC(=CC(=C3O)OC4=CC=C(C=C4)CC(C(=O)O)N)CC(C(=O)O)N)O

>  <PUBCHEM_OPENEYE_ISO_SMILES>
C1=CC(=CC=C1CC(C(=O)O)N)OC2=C(C(=CC(=C2)CC(C(=O)O)N)C3=CC(=CC(=C3O)OC4=CC=C(C=C4)CC(C(=O)O)N)CC(C(=O)O)N)O

>  <PUBCHEM_CACTVS_TPSA>
312

>  <PUBCHEM_MONOISOTOPIC_WEIGHT>
718.249

>  <PUBCHEM_TOTAL_CHARGE>
0

>  <PUBCHEM_HEAVY_ATOM_COUNT>
52

>  <PUBCHEM_ATOM_DEF_STEREO_COUNT>
0

>  <PUBCHEM_ATOM_UDEF_STEREO_COUNT>
4

>  <PUBCHEM_BOND_DEF_STEREO_COUNT>
0

>  <PUBCHEM_BOND_UDEF_STEREO_COUNT>
0

>  <PUBCHEM_ISOTOPIC_ATOM_COUNT>
0

>  <PUBCHEM_COMPONENT_COUNT>
1

>  <PUBCHEM_CACTVS_TAUTO_COUNT>
238

>  <PUBCHEM_COORDINATE_TYPE>
1
5
255

>  <PUBCHEM_BONDANNOTATIONS>
28  13  3
27  14  3
42  15  3
41  16  3
17  24  8
17  26  8
18  23  8
18  25  8
19  24  8
19  32  8
20  23  8
20  31  8
25  30  8
26  29  8
29  32  8
30  31  8
33  43  8
33  45  8
34  44  8
34  46  8
39  48  8
39  49  8
40  47  8
40  50  8
43  48  8
44  47  8
45  49  8
46  50  8

$$$$
