131752075
 OpenBabel06101807152D

 98101  0  0  1  0  0  0  0  0999 V2000
   11.3455    5.5679    0.0000 O   0  0  0  0  0  0  0  0  0  0  0  0
    4.6783   -5.5679    0.0000 O   0  0  0  0  0  0  0  0  0  0  0  0
   12.2917    5.2631    0.0000 C   0  0  3  0  0  0  0  0  0  0  0  0
    3.7320   -5.2631    0.0000 C   0  0  3  0  0  0  0  0  0  0  0  0
   13.1577    3.7631    0.0000 C   0  0  0  0  0  0  0  0  0  0  0  0
    2.8660   -3.7631    0.0000 C   0  0  0  0  0  0  0  0  0  0  0  0
   12.2917    4.2631    0.0000 C   0  0  0  0  0  0  0  0  0  0  0  0
    3.7320   -4.2631    0.0000 C   0  0  0  0  0  0  0  0  0  0  0  0
   13.1577    5.7631    0.0000 C   0  0  0  0  0  0  0  0  0  0  0  0
    2.8660   -5.7631    0.0000 C   0  0  0  0  0  0  0  0  0  0  0  0
   14.0238    4.2631    0.0000 C   0  0  0  0  0  0  0  0  0  0  0  0
    2.0000   -4.2631    0.0000 C   0  0  0  0  0  0  0  0  0  0  0  0
   14.0238    5.2631    0.0000 C   0  0  0  0  0  0  0  0  0  0  0  0
    2.0000   -5.2631    0.0000 C   0  0  0  0  0  0  0  0  0  0  0  0
   11.3455    3.9584    0.0000 C   0  0  0  0  0  0  0  0  0  0  0  0
    4.6783   -3.9584    0.0000 C   0  0  0  0  0  0  0  0  0  0  0  0
   10.7619    4.7631    0.0000 C   0  0  3  0  0  0  0  0  0  0  0  0
    5.2619   -4.7631    0.0000 C   0  0  3  0  0  0  0  0  0  0  0  0
   12.2917    6.2631    0.0000 C   0  0  0  0  0  0  0  0  0  0  0  0
    3.7320   -6.2631    0.0000 C   0  0  0  0  0  0  0  0  0  0  0  0
   13.6577    2.8971    0.0000 C   0  0  0  0  0  0  0  0  0  0  0  0
   12.6577    2.8971    0.0000 C   0  0  0  0  0  0  0  0  0  0  0  0
    2.3660   -2.8971    0.0000 C   0  0  0  0  0  0  0  0  0  0  0  0
    3.3660   -2.8971    0.0000 C   0  0  0  0  0  0  0  0  0  0  0  0
    9.7619    4.7631    0.0000 C   0  0  0  0  0  0  0  0  0  0  0  0
    6.2619   -4.7631    0.0000 C   0  0  0  0  0  0  0  0  0  0  0  0
    9.2619    5.6292    0.0000 C   0  0  0  0  0  0  0  0  0  0  0  0
    6.7619   -5.6292    0.0000 C   0  0  0  0  0  0  0  0  0  0  0  0
    9.2619    3.8971    0.0000 C   0  0  0  0  0  0  0  0  0  0  0  0
    6.7619   -3.8971    0.0000 C   0  0  0  0  0  0  0  0  0  0  0  0
    9.7619    3.0311    0.0000 C   0  0  0  0  0  0  0  0  0  0  0  0
    6.2619   -3.0311    0.0000 C   0  0  0  0  0  0  0  0  0  0  0  0
    9.2619    2.1651    0.0000 C   0  0  0  0  0  0  0  0  0  0  0  0
    6.7619   -2.1651    0.0000 C   0  0  0  0  0  0  0  0  0  0  0  0
    8.2619    2.1651    0.0000 C   0  0  0  0  0  0  0  0  0  0  0  0
    6.2619   -1.2990    0.0000 C   0  0  0  0  0  0  0  0  0  0  0  0
    7.7619    3.0311    0.0000 C   0  0  0  0  0  0  0  0  0  0  0  0
    5.2619   -1.2990    0.0000 C   0  0  0  0  0  0  0  0  0  0  0  0
    7.7619    1.2990    0.0000 C   0  0  0  0  0  0  0  0  0  0  0  0
    6.7619   -0.4330    0.0000 C   0  0  0  0  0  0  0  0  0  0  0  0
    6.7619    1.2990    0.0000 C   0  0  0  0  0  0  0  0  0  0  0  0
    6.2619    0.4330    0.0000 C   0  0  0  0  0  0  0  0  0  0  0  0
   13.5563    6.2381    0.0000 H   0  0  0  0  0  0  0  0  0  0  0  0
   12.7592    6.2381    0.0000 H   0  0  0  0  0  0  0  0  0  0  0  0
    2.4675   -6.2381    0.0000 H   0  0  0  0  0  0  0  0  0  0  0  0
    3.2646   -6.2381    0.0000 H   0  0  0  0  0  0  0  0  0  0  0  0
   14.2358    3.6805    0.0000 H   0  0  0  0  0  0  0  0  0  0  0  0
   14.6343    4.3708    0.0000 H   0  0  0  0  0  0  0  0  0  0  0  0
    1.7880   -3.6805    0.0000 H   0  0  0  0  0  0  0  0  0  0  0  0
    1.3894   -4.3708    0.0000 H   0  0  0  0  0  0  0  0  0  0  0  0
   14.6343    5.1555    0.0000 H   0  0  0  0  0  0  0  0  0  0  0  0
   14.2358    5.8458    0.0000 H   0  0  0  0  0  0  0  0  0  0  0  0
    1.3894   -5.1555    0.0000 H   0  0  0  0  0  0  0  0  0  0  0  0
    1.7880   -5.8458    0.0000 H   0  0  0  0  0  0  0  0  0  0  0  0
   11.1529    3.3691    0.0000 H   0  0  0  0  0  0  0  0  0  0  0  0
    4.8709   -3.3691    0.0000 H   0  0  0  0  0  0  0  0  0  0  0  0
   10.4802    5.3154    0.0000 H   0  0  0  0  0  0  0  0  0  0  0  0
    5.5436   -5.3154    0.0000 H   0  0  0  0  0  0  0  0  0  0  0  0
   12.9117    6.2631    0.0000 H   0  0  0  0  0  0  0  0  0  0  0  0
   12.2917    6.8831    0.0000 H   0  0  0  0  0  0  0  0  0  0  0  0
   11.6717    6.2631    0.0000 H   0  0  0  0  0  0  0  0  0  0  0  0
    3.1120   -6.2631    0.0000 H   0  0  0  0  0  0  0  0  0  0  0  0
    3.7320   -6.8831    0.0000 H   0  0  0  0  0  0  0  0  0  0  0  0
    4.3520   -6.2631    0.0000 H   0  0  0  0  0  0  0  0  0  0  0  0
   13.1208    2.5871    0.0000 H   0  0  0  0  0  0  0  0  0  0  0  0
   13.9677    2.3602    0.0000 H   0  0  0  0  0  0  0  0  0  0  0  0
   14.1947    3.2071    0.0000 H   0  0  0  0  0  0  0  0  0  0  0  0
   12.1208    3.2071    0.0000 H   0  0  0  0  0  0  0  0  0  0  0  0
   12.3477    2.3602    0.0000 H   0  0  0  0  0  0  0  0  0  0  0  0
   13.1947    2.5871    0.0000 H   0  0  0  0  0  0  0  0  0  0  0  0
    3.9030   -3.2071    0.0000 H   0  0  0  0  0  0  0  0  0  0  0  0
    3.6760   -2.3602    0.0000 H   0  0  0  0  0  0  0  0  0  0  0  0
    2.8291   -2.5871    0.0000 H   0  0  0  0  0  0  0  0  0  0  0  0
    2.9030   -2.5871    0.0000 H   0  0  0  0  0  0  0  0  0  0  0  0
    2.0560   -2.3602    0.0000 H   0  0  0  0  0  0  0  0  0  0  0  0
    1.8291   -3.2071    0.0000 H   0  0  0  0  0  0  0  0  0  0  0  0
    9.7988    5.9392    0.0000 H   0  0  0  0  0  0  0  0  0  0  0  0
    8.9519    6.1661    0.0000 H   0  0  0  0  0  0  0  0  0  0  0  0
    8.7249    5.3192    0.0000 H   0  0  0  0  0  0  0  0  0  0  0  0
    6.2249   -5.9392    0.0000 H   0  0  0  0  0  0  0  0  0  0  0  0
    7.0719   -6.1661    0.0000 H   0  0  0  0  0  0  0  0  0  0  0  0
    7.2988   -5.3192    0.0000 H   0  0  0  0  0  0  0  0  0  0  0  0
    8.6419    3.8971    0.0000 H   0  0  0  0  0  0  0  0  0  0  0  0
    7.3819   -3.8971    0.0000 H   0  0  0  0  0  0  0  0  0  0  0  0
   10.3819    3.0311    0.0000 H   0  0  0  0  0  0  0  0  0  0  0  0
    5.6419   -3.0311    0.0000 H   0  0  0  0  0  0  0  0  0  0  0  0
    9.5719    1.6281    0.0000 H   0  0  0  0  0  0  0  0  0  0  0  0
    7.3819   -2.1651    0.0000 H   0  0  0  0  0  0  0  0  0  0  0  0
    8.2988    3.3411    0.0000 H   0  0  0  0  0  0  0  0  0  0  0  0
    7.4519    3.5680    0.0000 H   0  0  0  0  0  0  0  0  0  0  0  0
    7.2249    2.7211    0.0000 H   0  0  0  0  0  0  0  0  0  0  0  0
    5.2619   -0.6790    0.0000 H   0  0  0  0  0  0  0  0  0  0  0  0
    4.6419   -1.2990    0.0000 H   0  0  0  0  0  0  0  0  0  0  0  0
    5.2619   -1.9190    0.0000 H   0  0  0  0  0  0  0  0  0  0  0  0
    8.0719    0.7621    0.0000 H   0  0  0  0  0  0  0  0  0  0  0  0
    7.3819   -0.4330    0.0000 H   0  0  0  0  0  0  0  0  0  0  0  0
    6.4519    1.8360    0.0000 H   0  0  0  0  0  0  0  0  0  0  0  0
    5.6419    0.4330    0.0000 H   0  0  0  0  0  0  0  0  0  0  0  0
  1  3  1  0  0  0  0
  1 17  1  0  0  0  0
  2  4  1  0  0  0  0
  2 18  1  0  0  0  0
  3  7  1  0  0  0  0
  3  9  1  0  0  0  0
  3 19  1  0  0  0  0
  4  8  1  0  0  0  0
  4 10  1  0  0  0  0
  4 20  1  0  0  0  0
  5  7  1  0  0  0  0
  5 11  1  0  0  0  0
  5 21  1  0  0  0  0
  5 22  1  0  0  0  0
  6  8  1  0  0  0  0
  6 12  1  0  0  0  0
  6 23  1  0  0  0  0
  6 24  1  0  0  0  0
  7 15  2  0  0  0  0
  8 16  2  0  0  0  0
  9 13  1  0  0  0  0
  9 43  1  0  0  0  0
  9 44  1  0  0  0  0
 10 14  1  0  0  0  0
 10 45  1  0  0  0  0
 10 46  1  0  0  0  0
 11 13  1  0  0  0  0
 11 47  1  0  0  0  0
 11 48  1  0  0  0  0
 12 14  1  0  0  0  0
 12 49  1  0  0  0  0
 12 50  1  0  0  0  0
 13 51  1  0  0  0  0
 13 52  1  0  0  0  0
 14 53  1  0  0  0  0
 14 54  1  0  0  0  0
 15 17  1  0  0  0  0
 15 55  1  0  0  0  0
 16 18  1  0  0  0  0
 16 56  1  0  0  0  0
 17 25  1  0  0  0  0
 17 57  1  0  0  0  0
 18 26  1  0  0  0  0
 18 58  1  0  0  0  0
 19 59  1  0  0  0  0
 19 60  1  0  0  0  0
 19 61  1  0  0  0  0
 20 62  1  0  0  0  0
 20 63  1  0  0  0  0
 20 64  1  0  0  0  0
 21 65  1  0  0  0  0
 21 66  1  0  0  0  0
 21 67  1  0  0  0  0
 22 68  1  0  0  0  0
 22 69  1  0  0  0  0
 22 70  1  0  0  0  0
 23 74  1  0  0  0  0
 23 75  1  0  0  0  0
 23 76  1  0  0  0  0
 24 71  1  0  0  0  0
 24 72  1  0  0  0  0
 24 73  1  0  0  0  0
 25 27  1  0  0  0  0
 25 29  2  0  0  0  0
 26 28  1  0  0  0  0
 26 30  2  0  0  0  0
 27 77  1  0  0  0  0
 27 78  1  0  0  0  0
 27 79  1  0  0  0  0
 28 80  1  0  0  0  0
 28 81  1  0  0  0  0
 28 82  1  0  0  0  0
 29 31  1  0  0  0  0
 29 83  1  0  0  0  0
 30 32  1  0  0  0  0
 30 84  1  0  0  0  0
 31 33  2  0  0  0  0
 31 85  1  0  0  0  0
 32 34  2  0  0  0  0
 32 86  1  0  0  0  0
 33 35  1  0  0  0  0
 33 87  1  0  0  0  0
 34 36  1  0  0  0  0
 34 88  1  0  0  0  0
 35 37  1  0  0  0  0
 35 39  2  0  0  0  0
 36 38  1  0  0  0  0
 36 40  2  0  0  0  0
 37 89  1  0  0  0  0
 37 90  1  0  0  0  0
 37 91  1  0  0  0  0
 38 92  1  0  0  0  0
 38 93  1  0  0  0  0
 38 94  1  0  0  0  0
 39 41  1  0  0  0  0
 39 95  1  0  0  0  0
 40 42  1  0  0  0  0
 40 96  1  0  0  0  0
 41 42  2  0  0  0  0
 41 97  1  0  0  0  0
 42 98  1  0  0  0  0
M  END
>  <PUBCHEM_COMPOUND_CID>
131752075

>  <PUBCHEM_COMPOUND_CANONICALIZED>
1

>  <PUBCHEM_CACTVS_COMPLEXITY>
1200

>  <PUBCHEM_CACTVS_HBOND_ACCEPTOR>
2

>  <PUBCHEM_CACTVS_HBOND_DONOR>
0

>  <PUBCHEM_CACTVS_ROTATABLE_BOND>
8

>  <PUBCHEM_CACTVS_SUBSKEYS>
AAADcfB8MAAAAAAAAAAAAAAAAAAAAQIAAAAwYAAAAAAAAEAAAAAAGgAAAAAADlSggAICAAAABACAAiBCAAAAAAAgAAAICAAAAAgIBAIAIQACEAAEgAAIoAOAwFAPAAAAAAAAAAAAAAYAAAAAAAAAAAAAAA==

>  <PUBCHEM_IUPAC_OPENEYE_NAME>
2-[(1Z,3Z,5E,7Z,9E,11E,13Z)-14-(4,4,7a-trimethyl-2,5,6,7-tetrahydrobenzofuran-2-yl)-1,5,10-trimethyl-pentadeca-1,3,5,7,9,11,13-heptaenyl]-4,4,7a-trimethyl-2,5,6,7-tetrahydrobenzofuran

>  <PUBCHEM_IUPAC_CAS_NAME>
2-[(2Z,4Z,6E,8Z,10E,12E,14Z)-15-(4,4,7a-trimethyl-2,5,6,7-tetrahydrobenzofuran-2-yl)-6,11-dimethylhexadeca-2,4,6,8,10,12,14-heptaen-2-yl]-4,4,7a-trimethyl-2,5,6,7-tetrahydrobenzofuran

>  <PUBCHEM_IUPAC_NAME>
2-[(2Z,4Z,6E,8Z,10E,12E,14Z)-15-(4,4,7a-trimethyl-2,5,6,7-tetrahydro-1-benzofuran-2-yl)-6,11-dimethylhexadeca-2,4,6,8,10,12,14-heptaen-2-yl]-4,4,7a-trimethyl-2,5,6,7-tetrahydro-1-benzofuran

>  <PUBCHEM_IUPAC_SYSTEMATIC_NAME>
2-[(2Z,4Z,6E,8Z,10E,12E,14Z)-15-(4,4,7a-trimethyl-2,5,6,7-tetrahydro-1-benzofuran-2-yl)-6,11-dimethyl-hexadeca-2,4,6,8,10,12,14-heptaen-2-yl]-4,4,7a-trimethyl-2,5,6,7-tetrahydro-1-benzofuran

>  <PUBCHEM_IUPAC_TRADITIONAL_NAME>
2-[(1Z,3Z,5E,7Z,9E,11E,13Z)-14-(4,4,7a-trimethyl-2,5,6,7-tetrahydrobenzofuran-2-yl)-1,5,10-trimethyl-pentadeca-1,3,5,7,9,11,13-heptaenyl]-4,4,7a-trimethyl-2,5,6,7-tetrahydrobenzofuran

>  <PUBCHEM_IUPAC_INCHI>
InChI=1S/C40H56O2/c1-29(19-13-21-31(3)33-27-35-37(5,6)23-15-25-39(35,9)41-33)17-11-12-18-30(2)20-14-22-32(4)34-28-36-38(7,8)24-16-26-40(36,10)42-34/h11-14,17-22,27-28,33-34H,15-16,23-26H2,1-10H3/b12-11-,19-13-,20-14+,29-17+,30-18+,31-21-,32-22-

>  <PUBCHEM_IUPAC_INCHIKEY>
JLFOTJPFBATTLK-KBGQBOCOSA-N

>  <PUBCHEM_EXACT_MASS>
568.428

>  <PUBCHEM_MOLECULAR_FORMULA>
C40H56O2

>  <PUBCHEM_MOLECULAR_WEIGHT>
568.886

>  <PUBCHEM_OPENEYE_CAN_SMILES>
CC(=CC=CC=C(C)C=CC=C(C)C1C=C2C(CCCC2(O1)C)(C)C)C=CC=C(C)C3C=C4C(CCCC4(O3)C)(C)C

>  <PUBCHEM_OPENEYE_ISO_SMILES>
C/C(=C\C=C/C=C(\C)/C=C\C=C(\C)/C1C=C2C(CCCC2(O1)C)(C)C)/C=C/C=C(/C)\C3C=C4C(CCCC4(O3)C)(C)C

>  <PUBCHEM_CACTVS_TPSA>
18.5

>  <PUBCHEM_MONOISOTOPIC_WEIGHT>
568.428

>  <PUBCHEM_TOTAL_CHARGE>
0

>  <PUBCHEM_HEAVY_ATOM_COUNT>
42

>  <PUBCHEM_ATOM_DEF_STEREO_COUNT>
0

>  <PUBCHEM_ATOM_UDEF_STEREO_COUNT>
4

>  <PUBCHEM_BOND_DEF_STEREO_COUNT>
7

>  <PUBCHEM_BOND_UDEF_STEREO_COUNT>
0

>  <PUBCHEM_ISOTOPIC_ATOM_COUNT>
0

>  <PUBCHEM_COMPONENT_COUNT>
1

>  <PUBCHEM_CACTVS_TAUTO_COUNT>
18

>  <PUBCHEM_COORDINATE_TYPE>
1
5
255

>  <PUBCHEM_BONDANNOTATIONS>
17  25  3
18  26  3
3  19  3
4  20  3

$$$$
