131752882
 OpenBabel06101807152D

 48 49  0  0  1  0  0  0  0  0999 V2000
    7.3301    0.7500    0.0000 O   0  0  0  0  0  0  0  0  0  0  0  0
    2.8660   -3.2500    0.0000 O   0  0  0  0  0  0  0  0  0  0  0  0
    6.8301   -0.1160    0.0000 C   0  0  0  0  0  0  0  0  0  0  0  0
    6.3301    0.7500    0.0000 C   0  0  3  0  0  0  0  0  0  0  0  0
    5.4641    1.2500    0.0000 C   0  0  3  0  0  0  0  0  0  0  0  0
    7.6962   -0.6160    0.0000 C   0  0  0  0  0  0  0  0  0  0  0  0
    5.9641   -0.6160    0.0000 C   0  0  0  0  0  0  0  0  0  0  0  0
    4.5981    0.7500    0.0000 C   0  0  0  0  0  0  0  0  0  0  0  0
    5.4641    2.2500    0.0000 C   0  0  0  0  0  0  0  0  0  0  0  0
    3.7320    1.2500    0.0000 C   0  0  0  0  0  0  0  0  0  0  0  0
    6.3301    2.7500    0.0000 C   0  0  0  0  0  0  0  0  0  0  0  0
    2.8660    0.7500    0.0000 C   0  0  0  0  0  0  0  0  0  0  0  0
    6.3301    3.7500    0.0000 C   0  0  0  0  0  0  0  0  0  0  0  0
    7.1962    2.2500    0.0000 C   0  0  0  0  0  0  0  0  0  0  0  0
    2.8660   -0.2500    0.0000 C   0  0  0  0  0  0  0  0  0  0  0  0
    8.0622    2.7500    0.0000 C   0  0  0  0  0  0  0  0  0  0  0  0
    3.7320   -0.7500    0.0000 C   0  0  0  0  0  0  0  0  0  0  0  0
    2.0000   -0.7500    0.0000 C   0  0  0  0  0  0  0  0  0  0  0  0
    3.7320   -1.7500    0.0000 C   0  0  0  0  0  0  0  0  0  0  0  0
    2.0000   -1.7500    0.0000 C   0  0  0  0  0  0  0  0  0  0  0  0
    2.8660   -2.2500    0.0000 C   0  0  0  0  0  0  0  0  0  0  0  0
    2.0000   -3.7500    0.0000 C   0  0  0  0  0  0  0  0  0  0  0  0
    6.4906    1.3489    0.0000 H   0  0  0  0  0  0  0  0  0  0  0  0
    5.4641    0.6300    0.0000 H   0  0  0  0  0  0  0  0  0  0  0  0
    7.3862   -1.1530    0.0000 H   0  0  0  0  0  0  0  0  0  0  0  0
    8.2331   -0.9260    0.0000 H   0  0  0  0  0  0  0  0  0  0  0  0
    8.0062   -0.0791    0.0000 H   0  0  0  0  0  0  0  0  0  0  0  0
    5.6541   -0.0791    0.0000 H   0  0  0  0  0  0  0  0  0  0  0  0
    5.4272   -0.9260    0.0000 H   0  0  0  0  0  0  0  0  0  0  0  0
    6.2741   -1.1530    0.0000 H   0  0  0  0  0  0  0  0  0  0  0  0
    4.1996    0.2751    0.0000 H   0  0  0  0  0  0  0  0  0  0  0  0
    4.9966    0.2751    0.0000 H   0  0  0  0  0  0  0  0  0  0  0  0
    4.9272    2.5600    0.0000 H   0  0  0  0  0  0  0  0  0  0  0  0
    3.7320    1.8700    0.0000 H   0  0  0  0  0  0  0  0  0  0  0  0
    2.3291    1.0600    0.0000 H   0  0  0  0  0  0  0  0  0  0  0  0
    6.9501    3.7500    0.0000 H   0  0  0  0  0  0  0  0  0  0  0  0
    6.3301    4.3700    0.0000 H   0  0  0  0  0  0  0  0  0  0  0  0
    5.7101    3.7500    0.0000 H   0  0  0  0  0  0  0  0  0  0  0  0
    7.1962    1.6300    0.0000 H   0  0  0  0  0  0  0  0  0  0  0  0
    8.5991    2.4400    0.0000 H   0  0  0  0  0  0  0  0  0  0  0  0
    8.0622    3.3700    0.0000 H   0  0  0  0  0  0  0  0  0  0  0  0
    4.2690   -0.4400    0.0000 H   0  0  0  0  0  0  0  0  0  0  0  0
    1.4631   -0.4400    0.0000 H   0  0  0  0  0  0  0  0  0  0  0  0
    4.2690   -2.0600    0.0000 H   0  0  0  0  0  0  0  0  0  0  0  0
    1.4631   -2.0600    0.0000 H   0  0  0  0  0  0  0  0  0  0  0  0
    1.6900   -3.2131    0.0000 H   0  0  0  0  0  0  0  0  0  0  0  0
    1.4631   -4.0600    0.0000 H   0  0  0  0  0  0  0  0  0  0  0  0
    2.3100   -4.2869    0.0000 H   0  0  0  0  0  0  0  0  0  0  0  0
  1  3  1  0  0  0  0
  1  4  1  0  0  0  0
  2 21  1  0  0  0  0
  2 22  1  0  0  0  0
  3  4  1  0  0  0  0
  3  6  1  0  0  0  0
  3  7  1  0  0  0  0
  4  5  1  0  0  0  0
  4 23  1  0  0  0  0
  5  8  1  0  0  0  0
  5  9  1  0  0  0  0
  5 24  1  0  0  0  0
  6 25  1  0  0  0  0
  6 26  1  0  0  0  0
  6 27  1  0  0  0  0
  7 28  1  0  0  0  0
  7 29  1  0  0  0  0
  7 30  1  0  0  0  0
  8 10  1  0  0  0  0
  8 31  1  0  0  0  0
  8 32  1  0  0  0  0
  9 11  2  0  0  0  0
  9 33  1  0  0  0  0
 10 12  2  0  0  0  0
 10 34  1  0  0  0  0
 11 13  1  0  0  0  0
 11 14  1  0  0  0  0
 12 15  1  0  0  0  0
 12 35  1  0  0  0  0
 13 36  1  0  0  0  0
 13 37  1  0  0  0  0
 13 38  1  0  0  0  0
 14 16  2  0  0  0  0
 14 39  1  0  0  0  0
 15 17  2  0  0  0  0
 15 18  1  0  0  0  0
 16 40  1  0  0  0  0
 16 41  1  0  0  0  0
 17 19  1  0  0  0  0
 17 42  1  0  0  0  0
 18 20  2  0  0  0  0
 18 43  1  0  0  0  0
 19 21  2  0  0  0  0
 19 44  1  0  0  0  0
 20 21  1  0  0  0  0
 20 45  1  0  0  0  0
 22 46  1  0  0  0  0
 22 47  1  0  0  0  0
 22 48  1  0  0  0  0
M  END
>  <PUBCHEM_COMPOUND_CID>
131752882

>  <PUBCHEM_COMPOUND_CANONICALIZED>
1

>  <PUBCHEM_CACTVS_COMPLEXITY>
425

>  <PUBCHEM_CACTVS_HBOND_ACCEPTOR>
2

>  <PUBCHEM_CACTVS_HBOND_DONOR>
0

>  <PUBCHEM_CACTVS_ROTATABLE_BOND>
7

>  <PUBCHEM_CACTVS_SUBSKEYS>
AAADceB4MAAAAAAAAAAAAAAAEgAAAAAAAAAwAAAAAAAAAAABAAAAGgAAAAAADVSgmAIyBoAABACAAiBCAAACCAAgIAAIiAAGCIgMJiKEMRqCMCAkwBEIqAeAwAAOIAAAAAAAAABAAAAAAAAAAAAAAAAAAA==

>  <PUBCHEM_IUPAC_OPENEYE_NAME>
3-[(2Z)-1-[(Z)-3-(4-methoxyphenyl)allyl]-3-methyl-penta-2,4-dienyl]-2,2-dimethyl-oxirane

>  <PUBCHEM_IUPAC_CAS_NAME>
3-[(1Z,5Z)-1-(4-methoxyphenyl)-6-methylocta-1,5,7-trien-4-yl]-2,2-dimethyloxirane

>  <PUBCHEM_IUPAC_NAME>
3-[(1Z,5Z)-1-(4-methoxyphenyl)-6-methylocta-1,5,7-trien-4-yl]-2,2-dimethyloxirane

>  <PUBCHEM_IUPAC_SYSTEMATIC_NAME>
3-[(1Z,5Z)-1-(4-methoxyphenyl)-6-methyl-octa-1,5,7-trien-4-yl]-2,2-dimethyl-oxirane

>  <PUBCHEM_IUPAC_TRADITIONAL_NAME>
3-[(2Z)-1-[(Z)-3-(4-methoxyphenyl)allyl]-3-methyl-penta-2,4-dienyl]-2,2-dimethyl-oxirane

>  <PUBCHEM_IUPAC_INCHI>
InChI=1S/C20H26O2/c1-6-15(2)14-17(19-20(3,4)22-19)9-7-8-16-10-12-18(21-5)13-11-16/h6-8,10-14,17,19H,1,9H2,2-5H3/b8-7-,15-14-

>  <PUBCHEM_IUPAC_INCHIKEY>
JVHUDTINIJAQHA-XWUSKMMESA-N

>  <PUBCHEM_EXACT_MASS>
298.193

>  <PUBCHEM_MOLECULAR_FORMULA>
C20H26O2

>  <PUBCHEM_MOLECULAR_WEIGHT>
298.426

>  <PUBCHEM_OPENEYE_CAN_SMILES>
CC(=CC(CC=CC1=CC=C(C=C1)OC)C2C(O2)(C)C)C=C

>  <PUBCHEM_OPENEYE_ISO_SMILES>
C/C(=C/C(C/C=C\C1=CC=C(C=C1)OC)C2C(O2)(C)C)/C=C

>  <PUBCHEM_CACTVS_TPSA>
21.8

>  <PUBCHEM_MONOISOTOPIC_WEIGHT>
298.193

>  <PUBCHEM_TOTAL_CHARGE>
0

>  <PUBCHEM_HEAVY_ATOM_COUNT>
22

>  <PUBCHEM_ATOM_DEF_STEREO_COUNT>
0

>  <PUBCHEM_ATOM_UDEF_STEREO_COUNT>
2

>  <PUBCHEM_BOND_DEF_STEREO_COUNT>
2

>  <PUBCHEM_BOND_UDEF_STEREO_COUNT>
0

>  <PUBCHEM_ISOTOPIC_ATOM_COUNT>
0

>  <PUBCHEM_COMPONENT_COUNT>
1

>  <PUBCHEM_CACTVS_TAUTO_COUNT>
1

>  <PUBCHEM_COORDINATE_TYPE>
1
5
255

>  <PUBCHEM_BONDANNOTATIONS>
15  17  8
15  18  8
17  19  8
18  20  8
19  21  8
20  21  8
4  3  3
5  8  3

$$$$
