131752524
 OpenBabel06101807152D

 71 75  0  0  1  0  0  0  0  0999 V2000
   12.0632   -2.3080    0.0000 O   0  0  0  0  0  0  0  0  0  0  0  0
   10.3312   -2.3080    0.0000 O   0  0  0  0  0  0  0  0  0  0  0  0
   12.8679    0.2756    0.0000 O   0  0  0  0  0  0  0  0  0  0  0  0
   12.0632   -4.3080    0.0000 O   0  0  0  0  0  0  0  0  0  0  0  0
   10.3312   -5.3080    0.0000 O   0  0  0  0  0  0  0  0  0  0  0  0
    8.5991   -4.3080    0.0000 O   0  0  0  0  0  0  0  0  0  0  0  0
    8.5991   -1.3080    0.0000 O   0  0  0  0  0  0  0  0  0  0  0  0
   14.0632    2.0879    0.0000 O   0  0  0  0  0  0  0  0  0  0  0  0
   13.0979    3.8478    0.0000 O   0  0  0  0  0  0  0  0  0  0  0  0
    7.7331    0.1920    0.0000 O   0  0  0  0  0  0  0  0  0  0  0  0
   13.0874    5.6180    0.0000 O   0  0  0  0  0  0  0  0  0  0  0  0
    2.5369   -2.8080    0.0000 O   0  0  0  0  0  0  0  0  0  0  0  0
   12.0632   -1.3080    0.0000 C   0  0  0  0  0  0  0  0  0  0  0  0
   12.0632   -0.3080    0.0000 C   0  0  3  0  0  0  0  0  0  0  0  0
   11.1972   -2.8080    0.0000 C   0  0  3  0  0  0  0  0  0  0  0  0
   11.1972   -3.8080    0.0000 C   0  0  3  0  0  0  0  0  0  0  0  0
   10.3312   -4.3080    0.0000 C   0  0  3  0  0  0  0  0  0  0  0  0
    9.4651   -3.8080    0.0000 C   0  0  3  0  0  0  0  0  0  0  0  0
    9.4651   -2.8080    0.0000 C   0  0  3  0  0  0  0  0  0  0  0  0
   11.2585    0.2756    0.0000 C   0  0  0  0  0  0  0  0  0  0  0  0
   13.0632   -1.3080    0.0000 C   0  0  0  0  0  0  0  0  0  0  0  0
   11.0632   -1.3080    0.0000 C   0  0  0  0  0  0  0  0  0  0  0  0
   11.5632    1.2218    0.0000 C   0  0  0  0  0  0  0  0  0  0  0  0
   12.5632    1.2218    0.0000 C   0  0  0  0  0  0  0  0  0  0  0  0
    8.5991   -2.3080    0.0000 C   0  0  0  0  0  0  0  0  0  0  0  0
   11.0632    2.0879    0.0000 C   0  0  0  0  0  0  0  0  0  0  0  0
   13.0632    2.0879    0.0000 C   0  0  0  0  0  0  0  0  0  0  0  0
   11.5632    2.9539    0.0000 C   0  0  0  0  0  0  0  0  0  0  0  0
   12.5632    2.9539    0.0000 C   0  0  0  0  0  0  0  0  0  0  0  0
   11.0286    3.8478    0.0000 C   0  0  0  0  0  0  0  0  0  0  0  0
    7.7331   -0.8080    0.0000 C   0  0  0  0  0  0  0  0  0  0  0  0
   11.5424    4.7539    0.0000 C   0  0  0  0  0  0  0  0  0  0  0  0
   12.5840    4.7539    0.0000 C   0  0  0  0  0  0  0  0  0  0  0  0
    6.8671   -1.3080    0.0000 C   0  0  0  0  0  0  0  0  0  0  0  0
    6.0010   -0.8080    0.0000 C   0  0  0  0  0  0  0  0  0  0  0  0
    5.1350   -1.3080    0.0000 C   0  0  0  0  0  0  0  0  0  0  0  0
    5.1350   -2.3080    0.0000 C   0  0  0  0  0  0  0  0  0  0  0  0
    4.2690   -0.8080    0.0000 C   0  0  0  0  0  0  0  0  0  0  0  0
    4.2690   -2.8080    0.0000 C   0  0  0  0  0  0  0  0  0  0  0  0
    3.4030   -1.3080    0.0000 C   0  0  0  0  0  0  0  0  0  0  0  0
    3.4030   -2.3080    0.0000 C   0  0  0  0  0  0  0  0  0  0  0  0
   12.6155   -0.5897    0.0000 H   0  0  0  0  0  0  0  0  0  0  0  0
   11.7341   -3.1180    0.0000 H   0  0  0  0  0  0  0  0  0  0  0  0
   11.1972   -4.4280    0.0000 H   0  0  0  0  0  0  0  0  0  0  0  0
   10.8681   -4.6180    0.0000 H   0  0  0  0  0  0  0  0  0  0  0  0
    9.4651   -4.4280    0.0000 H   0  0  0  0  0  0  0  0  0  0  0  0
    9.4651   -2.1880    0.0000 H   0  0  0  0  0  0  0  0  0  0  0  0
   10.6916    0.5267    0.0000 H   0  0  0  0  0  0  0  0  0  0  0  0
   10.9493   -0.2618    0.0000 H   0  0  0  0  0  0  0  0  0  0  0  0
   11.0632   -0.6880    0.0000 H   0  0  0  0  0  0  0  0  0  0  0  0
   10.4432   -1.3080    0.0000 H   0  0  0  0  0  0  0  0  0  0  0  0
   11.0632   -1.9280    0.0000 H   0  0  0  0  0  0  0  0  0  0  0  0
   13.0632   -1.9280    0.0000 H   0  0  0  0  0  0  0  0  0  0  0  0
   13.6832   -1.3080    0.0000 H   0  0  0  0  0  0  0  0  0  0  0  0
   13.0632   -0.6880    0.0000 H   0  0  0  0  0  0  0  0  0  0  0  0
    7.9885   -2.2003    0.0000 H   0  0  0  0  0  0  0  0  0  0  0  0
    8.3871   -2.8906    0.0000 H   0  0  0  0  0  0  0  0  0  0  0  0
   10.4432    2.0879    0.0000 H   0  0  0  0  0  0  0  0  0  0  0  0
   12.6002   -3.9980    0.0000 H   0  0  0  0  0  0  0  0  0  0  0  0
    9.7942   -5.6180    0.0000 H   0  0  0  0  0  0  0  0  0  0  0  0
    8.0622   -3.9980    0.0000 H   0  0  0  0  0  0  0  0  0  0  0  0
   10.4086    3.8407    0.0000 H   0  0  0  0  0  0  0  0  0  0  0  0
   14.3732    2.6248    0.0000 H   0  0  0  0  0  0  0  0  0  0  0  0
   11.2303    5.2896    0.0000 H   0  0  0  0  0  0  0  0  0  0  0  0
    6.8671   -1.9280    0.0000 H   0  0  0  0  0  0  0  0  0  0  0  0
    6.0010   -0.1880    0.0000 H   0  0  0  0  0  0  0  0  0  0  0  0
    5.6720   -2.6180    0.0000 H   0  0  0  0  0  0  0  0  0  0  0  0
    4.2690   -0.1880    0.0000 H   0  0  0  0  0  0  0  0  0  0  0  0
    4.2690   -3.4280    0.0000 H   0  0  0  0  0  0  0  0  0  0  0  0
    2.8660   -0.9980    0.0000 H   0  0  0  0  0  0  0  0  0  0  0  0
    2.0000   -2.4980    0.0000 H   0  0  0  0  0  0  0  0  0  0  0  0
  1 13  1  0  0  0  0
  1 15  1  0  0  0  0
  2 15  1  0  0  0  0
  2 19  1  0  0  0  0
  3 14  1  0  0  0  0
  3 24  1  0  0  0  0
  4 16  1  0  0  0  0
  4 59  1  0  0  0  0
  5 17  1  0  0  0  0
  5 60  1  0  0  0  0
  6 18  1  0  0  0  0
  6 61  1  0  0  0  0
  7 25  1  0  0  0  0
  7 31  1  0  0  0  0
  8 27  1  0  0  0  0
  8 63  1  0  0  0  0
  9 29  1  0  0  0  0
  9 33  1  0  0  0  0
 10 31  2  0  0  0  0
 11 33  2  0  0  0  0
 12 41  1  0  0  0  0
 12 71  1  0  0  0  0
 13 14  1  0  0  0  0
 13 21  1  0  0  0  0
 13 22  1  0  0  0  0
 14 20  1  0  0  0  0
 14 42  1  0  0  0  0
 15 16  1  0  0  0  0
 15 43  1  0  0  0  0
 16 17  1  0  0  0  0
 16 44  1  0  0  0  0
 17 18  1  0  0  0  0
 17 45  1  0  0  0  0
 18 19  1  0  0  0  0
 18 46  1  0  0  0  0
 19 25  1  0  0  0  0
 19 47  1  0  0  0  0
 20 23  1  0  0  0  0
 20 48  1  0  0  0  0
 20 49  1  0  0  0  0
 21 53  1  0  0  0  0
 21 54  1  0  0  0  0
 21 55  1  0  0  0  0
 22 50  1  0  0  0  0
 22 51  1  0  0  0  0
 22 52  1  0  0  0  0
 23 24  2  0  0  0  0
 23 26  1  0  0  0  0
 24 27  1  0  0  0  0
 25 56  1  0  0  0  0
 25 57  1  0  0  0  0
 26 28  2  0  0  0  0
 26 58  1  0  0  0  0
 27 29  2  0  0  0  0
 28 29  1  0  0  0  0
 28 30  1  0  0  0  0
 30 32  2  0  0  0  0
 30 62  1  0  0  0  0
 31 34  1  0  0  0  0
 32 33  1  0  0  0  0
 32 64  1  0  0  0  0
 34 35  2  0  0  0  0
 34 65  1  0  0  0  0
 35 36  1  0  0  0  0
 35 66  1  0  0  0  0
 36 37  2  0  0  0  0
 36 38  1  0  0  0  0
 37 39  1  0  0  0  0
 37 67  1  0  0  0  0
 38 40  2  0  0  0  0
 38 68  1  0  0  0  0
 39 41  2  0  0  0  0
 39 69  1  0  0  0  0
 40 41  1  0  0  0  0
 40 70  1  0  0  0  0
M  END
>  <PUBCHEM_COMPOUND_CID>
131752524

>  <PUBCHEM_COMPOUND_CANONICALIZED>
1

>  <PUBCHEM_CACTVS_COMPLEXITY>
1000

>  <PUBCHEM_CACTVS_HBOND_ACCEPTOR>
12

>  <PUBCHEM_CACTVS_HBOND_DONOR>
5

>  <PUBCHEM_CACTVS_ROTATABLE_BOND>
8

>  <PUBCHEM_CACTVS_SUBSKEYS>
AAADceB4PAAAAAAAAAAAAAAAAAAAASAAAAA0YIEAAAAAAEiBQAAAGgAACAAADFSwmAMyDoAABgCIAiDSCAACCAAgIAAIiAAGiMgdNyKGMRqieiOlwBUPuYfA4PwOIAADCAAIQABAAAYQABCAAAAAAAAAAA==

>  <PUBCHEM_IUPAC_OPENEYE_NAME>
[3,4,5-trihydroxy-6-[1-(9-hydroxy-7-oxo-2,3-dihydrofuro[3,2-g]chromen-2-yl)-1-methyl-ethoxy]tetrahydropyran-2-yl]methyl (E)-3-(4-hydroxyphenyl)prop-2-enoate

>  <PUBCHEM_IUPAC_CAS_NAME>
(E)-3-(4-hydroxyphenyl)-2-propenoic acid [3,4,5-trihydroxy-6-[2-(9-hydroxy-7-oxo-2,3-dihydrofuro[3,2-g][1]benzopyran-2-yl)propan-2-yloxy]-2-oxanyl]methyl ester

>  <PUBCHEM_IUPAC_NAME>
[3,4,5-trihydroxy-6-[2-(9-hydroxy-7-oxo-2,3-dihydrofuro[3,2-g]chromen-2-yl)propan-2-yloxy]oxan-2-yl]methyl (E)-3-(4-hydroxyphenyl)prop-2-enoate

>  <PUBCHEM_IUPAC_SYSTEMATIC_NAME>
[3,4,5-tris(oxidanyl)-6-[2-(9-oxidanyl-7-oxidanylidene-2,3-dihydrofuro[3,2-g]chromen-2-yl)propan-2-yloxy]oxan-2-yl]methyl (E)-3-(4-hydroxyphenyl)prop-2-enoate

>  <PUBCHEM_IUPAC_TRADITIONAL_NAME>
(E)-3-(4-hydroxyphenyl)acrylic acid [3,4,5-trihydroxy-6-[1-(9-hydroxy-7-keto-2,3-dihydrofuro[3,2-g]chromen-2-yl)-1-methyl-ethoxy]tetrahydropyran-2-yl]methyl ester

>  <PUBCHEM_IUPAC_INCHI>
InChI=1S/C29H30O12/c1-29(2,19-12-16-11-15-6-10-21(32)40-26(15)25(36)27(16)39-19)41-28-24(35)23(34)22(33)18(38-28)13-37-20(31)9-5-14-3-7-17(30)8-4-14/h3-11,18-19,22-24,28,30,33-36H,12-13H2,1-2H3/b9-5+

>  <PUBCHEM_IUPAC_INCHIKEY>
PUPQENMYBCRTJC-WEVVVXLNSA-N

>  <PUBCHEM_EXACT_MASS>
570.174

>  <PUBCHEM_MOLECULAR_FORMULA>
C29H30O12

>  <PUBCHEM_MOLECULAR_WEIGHT>
570.547

>  <PUBCHEM_OPENEYE_CAN_SMILES>
CC(C)(C1CC2=C(O1)C(=C3C(=C2)C=CC(=O)O3)O)OC4C(C(C(C(O4)COC(=O)C=CC5=CC=C(C=C5)O)O)O)O

>  <PUBCHEM_OPENEYE_ISO_SMILES>
CC(C)(C1CC2=C(O1)C(=C3C(=C2)C=CC(=O)O3)O)OC4C(C(C(C(O4)COC(=O)/C=C/C5=CC=C(C=C5)O)O)O)O

>  <PUBCHEM_CACTVS_TPSA>
181

>  <PUBCHEM_MONOISOTOPIC_WEIGHT>
570.174

>  <PUBCHEM_TOTAL_CHARGE>
0

>  <PUBCHEM_HEAVY_ATOM_COUNT>
41

>  <PUBCHEM_ATOM_DEF_STEREO_COUNT>
0

>  <PUBCHEM_ATOM_UDEF_STEREO_COUNT>
6

>  <PUBCHEM_BOND_DEF_STEREO_COUNT>
1

>  <PUBCHEM_BOND_UDEF_STEREO_COUNT>
0

>  <PUBCHEM_ISOTOPIC_ATOM_COUNT>
0

>  <PUBCHEM_COMPONENT_COUNT>
1

>  <PUBCHEM_CACTVS_TAUTO_COUNT>
36

>  <PUBCHEM_COORDINATE_TYPE>
1
5
255

>  <PUBCHEM_BONDANNOTATIONS>
15  1  3
14  13  3
19  25  3
23  24  8
23  26  8
24  27  8
26  28  8
27  29  8
28  29  8
28  30  8
30  32  8
32  33  8
36  37  8
36  38  8
37  39  8
38  40  8
39  41  8
16  4  3
40  41  8
17  5  3
18  6  3
9  29  8
9  33  8

$$$$
