131751081
 OpenBabel06101807152D

 43 47  0  0  1  0  0  0  0  0999 V2000
    7.6619   -0.6363    0.0000 O   0  0  0  0  0  0  0  0  0  0  0  0
    7.8711    2.3356    0.0000 O   0  0  0  0  0  0  0  0  0  0  0  0
    6.1390    1.3356    0.0000 O   0  0  0  0  0  0  0  0  0  0  0  0
    3.5547   -0.4135    0.0000 O   0  0  0  0  0  0  0  0  0  0  0  0
   11.4012    2.3597    0.0000 O   0  0  0  0  0  0  0  0  0  0  0  0
    7.0051    0.8356    0.0000 C   0  0  3  0  0  0  0  0  0  0  0  0
    7.8711    0.3356    0.0000 C   0  0  3  0  0  0  0  0  0  0  0  0
    6.2680    0.1685    0.0000 C   0  0  0  0  0  0  0  0  0  0  0  0
    7.0051    1.8356    0.0000 C   0  0  0  0  0  0  0  0  0  0  0  0
    6.6732   -0.7393    0.0000 C   0  0  0  0  0  0  0  0  0  0  0  0
    8.7371    0.8356    0.0000 C   0  0  0  0  0  0  0  0  0  0  0  0
    5.2399    0.2917    0.0000 C   0  0  0  0  0  0  0  0  0  0  0  0
    8.7371    1.8356    0.0000 C   0  0  0  0  0  0  0  0  0  0  0  0
    4.6256   -0.5418    0.0000 C   0  0  0  0  0  0  0  0  0  0  0  0
    6.0782   -1.5868    0.0000 C   0  0  0  0  0  0  0  0  0  0  0  0
    5.0476   -1.4874    0.0000 C   0  0  0  0  0  0  0  0  0  0  0  0
    2.9148   -1.2817    0.0000 C   0  0  0  0  0  0  0  0  0  0  0  0
    9.6310    0.3009    0.0000 C   0  0  0  0  0  0  0  0  0  0  0  0
    9.6310    2.3702    0.0000 C   0  0  0  0  0  0  0  0  0  0  0  0
    4.4279   -2.3702    0.0000 C   0  0  0  0  0  0  0  0  0  0  0  0
    3.3543   -2.2667    0.0000 C   0  0  0  0  0  0  0  0  0  0  0  0
   10.5371    0.8147    0.0000 C   0  0  0  0  0  0  0  0  0  0  0  0
   10.5371    1.8564    0.0000 C   0  0  0  0  0  0  0  0  0  0  0  0
    2.0000   -1.6857    0.0000 C   0  0  0  0  0  0  0  0  0  0  0  0
    2.1075   -0.6915    0.0000 C   0  0  0  0  0  0  0  0  0  0  0  0
    8.3722   -0.0295    0.0000 H   0  0  0  0  0  0  0  0  0  0  0  0
    6.7930    2.4182    0.0000 H   0  0  0  0  0  0  0  0  0  0  0  0
    6.3945    1.7279    0.0000 H   0  0  0  0  0  0  0  0  0  0  0  0
    4.9938    0.8607    0.0000 H   0  0  0  0  0  0  0  0  0  0  0  0
    6.3374   -2.1500    0.0000 H   0  0  0  0  0  0  0  0  0  0  0  0
    6.1390    1.9556    0.0000 H   0  0  0  0  0  0  0  0  0  0  0  0
    9.6239   -0.3191    0.0000 H   0  0  0  0  0  0  0  0  0  0  0  0
    9.6239    2.9902    0.0000 H   0  0  0  0  0  0  0  0  0  0  0  0
    4.6871   -2.9334    0.0000 H   0  0  0  0  0  0  0  0  0  0  0  0
    2.9922   -2.7700    0.0000 H   0  0  0  0  0  0  0  0  0  0  0  0
   11.0729    0.5027    0.0000 H   0  0  0  0  0  0  0  0  0  0  0  0
    2.4734   -0.1910    0.0000 H   0  0  0  0  0  0  0  0  0  0  0  0
    1.6070   -0.3256    0.0000 H   0  0  0  0  0  0  0  0  0  0  0  0
    1.7495   -1.1186    0.0000 H   0  0  0  0  0  0  0  0  0  0  0  0
    1.4328   -1.9362    0.0000 H   0  0  0  0  0  0  0  0  0  0  0  0
    2.2505   -2.2529    0.0000 H   0  0  0  0  0  0  0  0  0  0  0  0
    1.7416   -1.1920    0.0000 H   0  0  0  0  0  0  0  0  0  0  0  0
   11.9393    2.0518    0.0000 H   0  0  0  0  0  0  0  0  0  0  0  0
  1  7  1  0  0  0  0
  1 10  1  0  0  0  0
  2  9  1  0  0  0  0
  2 13  1  0  0  0  0
  3  6  1  0  0  0  0
  3 31  1  0  0  0  0
  4 14  1  0  0  0  0
  4 17  1  0  0  0  0
  5 23  1  0  0  0  0
  5 43  1  0  0  0  0
  6  7  1  0  0  0  0
  6  8  1  0  0  0  0
  6  9  1  0  0  0  0
  7 11  1  0  0  0  0
  7 26  1  0  0  0  0
  8 10  2  0  0  0  0
  8 12  1  0  0  0  0
  9 27  1  0  0  0  0
  9 28  1  0  0  0  0
 10 15  1  0  0  0  0
 11 13  2  0  0  0  0
 11 18  1  0  0  0  0
 12 14  2  0  0  0  0
 12 29  1  0  0  0  0
 13 19  1  0  0  0  0
 14 16  1  0  0  0  0
 15 16  2  0  0  0  0
 15 30  1  0  0  0  0
 16 20  1  0  0  0  0
 17 21  1  0  0  0  0
 17 24  1  0  0  0  0
 17 25  1  0  0  0  0
 18 22  2  0  0  0  0
 18 32  1  0  0  0  0
 19 23  2  0  0  0  0
 19 33  1  0  0  0  0
 20 21  2  0  0  0  0
 20 34  1  0  0  0  0
 21 35  1  0  0  0  0
 22 23  1  0  0  0  0
 22 36  1  0  0  0  0
 24 39  1  0  0  0  0
 24 40  1  0  0  0  0
 24 41  1  0  0  0  0
 25 37  1  0  0  0  0
 25 38  1  0  0  0  0
 25 42  1  0  0  0  0
M  END
>  <PUBCHEM_COMPOUND_CID>
131751081

>  <PUBCHEM_COMPOUND_CANONICALIZED>
1

>  <PUBCHEM_CACTVS_COMPLEXITY>
574

>  <PUBCHEM_CACTVS_HBOND_ACCEPTOR>
5

>  <PUBCHEM_CACTVS_HBOND_DONOR>
2

>  <PUBCHEM_CACTVS_ROTATABLE_BOND>
0

>  <PUBCHEM_CACTVS_SUBSKEYS>
AAADceB4OAAAAAAAAAAAAAAAAAAAASAAAAA0YIEAAAAAAEiRQAAAGgAACAAADFSgmAIyBoAABgCAAiBCAAACCAAgIAAIiAAGCIgNJyKGMRqCeCClwBULuAfA4PwO4QABCAAIAADCAAIQABAAAAAAAAAAAA==

>  <PUBCHEM_IUPAC_INCHI>
InChI=1S/C20H18O5/c1-19(2)6-5-11-7-17-14(9-15(11)25-19)20(22)10-23-16-8-12(21)3-4-13(16)18(20)24-17/h3-9,18,21-22H,10H2,1-2H3

>  <PUBCHEM_IUPAC_INCHIKEY>
KVUZVBGGLCNPQI-UHFFFAOYSA-N

>  <PUBCHEM_EXACT_MASS>
338.115

>  <PUBCHEM_MOLECULAR_FORMULA>
C20H18O5

>  <PUBCHEM_MOLECULAR_WEIGHT>
338.359

>  <PUBCHEM_OPENEYE_CAN_SMILES>
CC1(C=CC2=CC3=C(C=C2O1)C4(COC5=C(C4O3)C=CC(=C5)O)O)C

>  <PUBCHEM_OPENEYE_ISO_SMILES>
CC1(C=CC2=CC3=C(C=C2O1)C4(COC5=C(C4O3)C=CC(=C5)O)O)C

>  <PUBCHEM_CACTVS_TPSA>
68.2

>  <PUBCHEM_MONOISOTOPIC_WEIGHT>
338.115

>  <PUBCHEM_TOTAL_CHARGE>
0

>  <PUBCHEM_HEAVY_ATOM_COUNT>
25

>  <PUBCHEM_ATOM_DEF_STEREO_COUNT>
0

>  <PUBCHEM_ATOM_UDEF_STEREO_COUNT>
2

>  <PUBCHEM_BOND_DEF_STEREO_COUNT>
0

>  <PUBCHEM_BOND_UDEF_STEREO_COUNT>
0

>  <PUBCHEM_ISOTOPIC_ATOM_COUNT>
0

>  <PUBCHEM_COMPONENT_COUNT>
1

>  <PUBCHEM_CACTVS_TAUTO_COUNT>
3

>  <PUBCHEM_COORDINATE_TYPE>
1
5
255

>  <PUBCHEM_BONDANNOTATIONS>
7  1  3
10  15  8
11  13  8
11  18  8
12  14  8
13  19  8
14  16  8
15  16  8
18  22  8
19  23  8
22  23  8
6  3  3
8  10  8
8  12  8

$$$$
