131751104
 OpenBabel06101807152D

 33 33  0  0  0  0  0  0  0  0999 V2000
    8.0995   -1.4370    0.0000 O   0  0  0  0  0  0  0  0  0  0  0  0
    6.1316   -2.1364    0.0000 O   0  0  0  0  0  0  0  0  0  0  0  0
   11.1380    1.1582    0.0000 O   0  0  0  0  0  0  0  0  0  0  0  0
    9.4438    0.7981    0.0000 O   0  0  0  0  0  0  0  0  0  0  0  0
    8.9086   -0.8492    0.0000 C   0  0  0  0  0  0  0  0  0  0  0  0
    7.2905   -0.8492    0.0000 C   0  0  0  0  0  0  0  0  0  0  0  0
    8.5995    0.1019    0.0000 C   0  0  0  0  0  0  0  0  0  0  0  0
    7.5995    0.1019    0.0000 C   0  0  0  0  0  0  0  0  0  0  0  0
    9.8596   -1.1582    0.0000 C   0  0  0  0  0  0  0  0  0  0  0  0
    2.9511   -0.4380    0.0000 C   0  0  0  0  0  0  0  0  0  0  0  0
    6.3395   -1.1582    0.0000 C   0  0  0  0  0  0  0  0  0  0  0  0
    2.0000   -0.7470    0.0000 C   0  0  0  0  0  0  0  0  0  0  0  0
    3.1590    0.5402    0.0000 C   0  0  0  0  0  0  0  0  0  0  0  0
   10.6028   -0.4891    0.0000 C   0  0  0  0  0  0  0  0  0  0  0  0
    4.1100    0.8492    0.0000 C   0  0  0  0  0  0  0  0  0  0  0  0
   10.3948    0.4891    0.0000 C   0  0  0  0  0  0  0  0  0  0  0  0
    5.5963   -0.4891    0.0000 C   0  0  0  0  0  0  0  0  0  0  0  0
    4.8532    0.1801    0.0000 C   0  0  0  0  0  0  0  0  0  0  0  0
   10.9301    2.1364    0.0000 C   0  0  0  0  0  0  0  0  0  0  0  0
    8.9640    0.6035    0.0000 H   0  0  0  0  0  0  0  0  0  0  0  0
    7.2351    0.6035    0.0000 H   0  0  0  0  0  0  0  0  0  0  0  0
    9.9885   -1.7647    0.0000 H   0  0  0  0  0  0  0  0  0  0  0  0
    3.0373   -1.0519    0.0000 H   0  0  0  0  0  0  0  0  0  0  0  0
    3.5707   -0.4596    0.0000 H   0  0  0  0  0  0  0  0  0  0  0  0
    1.8084   -0.1573    0.0000 H   0  0  0  0  0  0  0  0  0  0  0  0
    1.4103   -0.9386    0.0000 H   0  0  0  0  0  0  0  0  0  0  0  0
    2.1916   -1.3366    0.0000 H   0  0  0  0  0  0  0  0  0  0  0  0
    2.6982    0.9550    0.0000 H   0  0  0  0  0  0  0  0  0  0  0  0
   11.1924   -0.6807    0.0000 H   0  0  0  0  0  0  0  0  0  0  0  0
    4.2389    1.4556    0.0000 H   0  0  0  0  0  0  0  0  0  0  0  0
   11.5365    2.2653    0.0000 H   0  0  0  0  0  0  0  0  0  0  0  0
   10.8012    2.7428    0.0000 H   0  0  0  0  0  0  0  0  0  0  0  0
   10.3236    2.0074    0.0000 H   0  0  0  0  0  0  0  0  0  0  0  0
  1  5  1  0  0  0  0
  1  6  1  0  0  0  0
  2 11  2  0  0  0  0
  3 16  1  0  0  0  0
  3 19  1  0  0  0  0
  4 16  2  0  0  0  0
  5  7  2  0  0  0  0
  5  9  1  0  0  0  0
  6  8  2  0  0  0  0
  6 11  1  0  0  0  0
  7  8  1  0  0  0  0
  7 20  1  0  0  0  0
  8 21  1  0  0  0  0
  9 14  2  0  0  0  0
  9 22  1  0  0  0  0
 10 12  1  0  0  0  0
 10 13  1  0  0  0  0
 10 23  1  0  0  0  0
 10 24  1  0  0  0  0
 11 17  1  0  0  0  0
 12 25  1  0  0  0  0
 12 26  1  0  0  0  0
 12 27  1  0  0  0  0
 13 15  2  0  0  0  0
 13 28  1  0  0  0  0
 14 16  1  0  0  0  0
 14 29  1  0  0  0  0
 15 18  1  0  0  0  0
 15 30  1  0  0  0  0
 17 18  3  0  0  0  0
 19 31  1  0  0  0  0
 19 32  1  0  0  0  0
 19 33  1  0  0  0  0
M  END
>  <PUBCHEM_COMPOUND_CID>
131751104

>  <PUBCHEM_COMPOUND_CANONICALIZED>
1

>  <PUBCHEM_CACTVS_COMPLEXITY>
447

>  <PUBCHEM_CACTVS_HBOND_ACCEPTOR>
4

>  <PUBCHEM_CACTVS_HBOND_DONOR>
0

>  <PUBCHEM_CACTVS_ROTATABLE_BOND>
5

>  <PUBCHEM_CACTVS_SUBSKEYS>
AAADccBwOAAAAAAAAAAAAAAAAAAAASAAAAAAAAAAAAAAAAABgAAAGgAAAAAACASAkAIyDIAABEDIEKDSCAoCCAAkIAAIiAFGCMgMJjKENR6CGSCkwBEIqYeIzgBgAAAAAAAAAAAAAAAAAAAAAAAAAAAAAA==

>  <PUBCHEM_IUPAC_OPENEYE_NAME>
methyl (Z)-3-[5-[(Z)-hept-4-en-2-ynoyl]-2-furyl]prop-2-enoate

>  <PUBCHEM_IUPAC_CAS_NAME>
(Z)-3-[5-[(Z)-1-oxohept-4-en-2-ynyl]-2-furanyl]-2-propenoic acid methyl ester

>  <PUBCHEM_IUPAC_NAME>
methyl (Z)-3-[5-[(Z)-hept-4-en-2-ynoyl]furan-2-yl]prop-2-enoate

>  <PUBCHEM_IUPAC_SYSTEMATIC_NAME>
methyl (Z)-3-[5-[(Z)-hept-4-en-2-ynoyl]furan-2-yl]prop-2-enoate

>  <PUBCHEM_IUPAC_TRADITIONAL_NAME>
(Z)-3-[5-[(Z)-hept-4-en-2-ynoyl]-2-furyl]acrylic acid methyl ester

>  <PUBCHEM_IUPAC_INCHI>
InChI=1S/C15H14O4/c1-3-4-5-6-7-13(16)14-10-8-12(19-14)9-11-15(17)18-2/h4-5,8-11H,3H2,1-2H3/b5-4-,11-9-

>  <PUBCHEM_IUPAC_INCHIKEY>
NQZCQIDFBYCBAU-JXWPTCDWSA-N

>  <PUBCHEM_EXACT_MASS>
258.089

>  <PUBCHEM_MOLECULAR_FORMULA>
C15H14O4

>  <PUBCHEM_MOLECULAR_WEIGHT>
258.273

>  <PUBCHEM_OPENEYE_CAN_SMILES>
CCC=CC#CC(=O)C1=CC=C(O1)C=CC(=O)OC

>  <PUBCHEM_OPENEYE_ISO_SMILES>
CC/C=C\C#CC(=O)C1=CC=C(O1)/C=C\C(=O)OC

>  <PUBCHEM_CACTVS_TPSA>
56.5

>  <PUBCHEM_MONOISOTOPIC_WEIGHT>
258.089

>  <PUBCHEM_TOTAL_CHARGE>
0

>  <PUBCHEM_HEAVY_ATOM_COUNT>
19

>  <PUBCHEM_ATOM_DEF_STEREO_COUNT>
0

>  <PUBCHEM_ATOM_UDEF_STEREO_COUNT>
0

>  <PUBCHEM_BOND_DEF_STEREO_COUNT>
2

>  <PUBCHEM_BOND_UDEF_STEREO_COUNT>
0

>  <PUBCHEM_ISOTOPIC_ATOM_COUNT>
0

>  <PUBCHEM_COMPONENT_COUNT>
1

>  <PUBCHEM_CACTVS_TAUTO_COUNT>
1

>  <PUBCHEM_COORDINATE_TYPE>
1
5
255

>  <PUBCHEM_BONDANNOTATIONS>
1  5  8
1  6  8
5  7  8
6  8  8
7  8  8

$$$$
