131751375
 OpenBabel06101807152D

 44 46  0  0  1  0  0  0  0  0999 V2000
    4.2690   -1.2997    0.0000 O   0  0  0  0  0  0  0  0  0  0  0  0
    6.0010   -1.2997    0.0000 O   0  0  0  0  0  0  0  0  0  0  0  0
    4.2690   -4.2997    0.0000 O   0  0  0  0  0  0  0  0  0  0  0  0
    2.5369   -3.2997    0.0000 O   0  0  0  0  0  0  0  0  0  0  0  0
    6.0010   -3.2997    0.0000 O   0  0  0  0  0  0  0  0  0  0  0  0
    2.5369   -0.2997    0.0000 O   0  0  0  0  0  0  0  0  0  0  0  0
    6.9716    4.1948    0.0000 N   0  0  0  0  0  0  0  0  0  0  0  0
    7.7806    2.7936    0.0000 N   0  0  0  0  0  0  0  0  0  0  0  0
    4.2690   -3.2997    0.0000 C   0  0  3  0  0  0  0  0  0  0  0  0
    3.4030   -2.7997    0.0000 C   0  0  3  0  0  0  0  0  0  0  0  0
    5.1350   -2.7997    0.0000 C   0  0  3  0  0  0  0  0  0  0  0  0
    3.4030   -1.7997    0.0000 C   0  0  3  0  0  0  0  0  0  0  0  0
    5.1350   -1.7997    0.0000 C   0  0  3  0  0  0  0  0  0  0  0  0
    2.5369   -1.2997    0.0000 C   0  0  0  0  0  0  0  0  0  0  0  0
    6.0010   -0.2997    0.0000 C   0  0  0  0  0  0  0  0  0  0  0  0
    6.8671    0.2003    0.0000 C   0  0  0  0  0  0  0  0  0  0  0  0
    5.1350    0.2003    0.0000 C   0  0  0  0  0  0  0  0  0  0  0  0
    6.0010    1.7003    0.0000 C   0  0  0  0  0  0  0  0  0  0  0  0
    6.8671    1.2003    0.0000 C   0  0  0  0  0  0  0  0  0  0  0  0
    5.1350    1.2003    0.0000 C   0  0  0  0  0  0  0  0  0  0  0  0
    6.0010    2.7003    0.0000 C   0  0  0  0  0  0  0  0  0  0  0  0
    6.8671    3.2003    0.0000 C   0  0  0  0  0  0  0  0  0  0  0  0
    7.9497    4.4027    0.0000 C   0  0  0  0  0  0  0  0  0  0  0  0
    8.4497    3.5367    0.0000 C   0  0  0  0  0  0  0  0  0  0  0  0
    3.7320   -3.6097    0.0000 H   0  0  0  0  0  0  0  0  0  0  0  0
    3.4030   -3.4197    0.0000 H   0  0  0  0  0  0  0  0  0  0  0  0
    5.1350   -3.4197    0.0000 H   0  0  0  0  0  0  0  0  0  0  0  0
    3.4030   -1.1797    0.0000 H   0  0  0  0  0  0  0  0  0  0  0  0
    5.1350   -1.1797    0.0000 H   0  0  0  0  0  0  0  0  0  0  0  0
    1.9264   -1.1920    0.0000 H   0  0  0  0  0  0  0  0  0  0  0  0
    2.3249   -1.8823    0.0000 H   0  0  0  0  0  0  0  0  0  0  0  0
    3.7320   -4.6097    0.0000 H   0  0  0  0  0  0  0  0  0  0  0  0
    2.0000   -2.9897    0.0000 H   0  0  0  0  0  0  0  0  0  0  0  0
    6.5380   -2.9897    0.0000 H   0  0  0  0  0  0  0  0  0  0  0  0
    2.0000    0.0103    0.0000 H   0  0  0  0  0  0  0  0  0  0  0  0
    7.4040   -0.1097    0.0000 H   0  0  0  0  0  0  0  0  0  0  0  0
    4.5981   -0.1097    0.0000 H   0  0  0  0  0  0  0  0  0  0  0  0
    7.4040    1.5103    0.0000 H   0  0  0  0  0  0  0  0  0  0  0  0
    4.5981    1.5103    0.0000 H   0  0  0  0  0  0  0  0  0  0  0  0
    5.7890    3.2829    0.0000 H   0  0  0  0  0  0  0  0  0  0  0  0
    5.3905    2.5926    0.0000 H   0  0  0  0  0  0  0  0  0  0  0  0
    6.5108    4.6097    0.0000 H   0  0  0  0  0  0  0  0  0  0  0  0
    8.2019    4.9691    0.0000 H   0  0  0  0  0  0  0  0  0  0  0  0
    9.0663    3.4719    0.0000 H   0  0  0  0  0  0  0  0  0  0  0  0
  1 12  1  0  0  0  0
  1 13  1  0  0  0  0
  2 13  1  0  0  0  0
  2 15  1  0  0  0  0
  3  9  1  0  0  0  0
  3 32  1  0  0  0  0
  4 10  1  0  0  0  0
  4 33  1  0  0  0  0
  5 11  1  0  0  0  0
  5 34  1  0  0  0  0
  6 14  1  0  0  0  0
  6 35  1  0  0  0  0
  7 22  1  0  0  0  0
  7 23  1  0  0  0  0
  7 42  1  0  0  0  0
  8 22  2  0  0  0  0
  8 24  1  0  0  0  0
  9 10  1  0  0  0  0
  9 11  1  0  0  0  0
  9 25  1  0  0  0  0
 10 12  1  0  0  0  0
 10 26  1  0  0  0  0
 11 13  1  0  0  0  0
 11 27  1  0  0  0  0
 12 14  1  0  0  0  0
 12 28  1  0  0  0  0
 13 29  1  0  0  0  0
 14 30  1  0  0  0  0
 14 31  1  0  0  0  0
 15 16  2  0  0  0  0
 15 17  1  0  0  0  0
 16 19  1  0  0  0  0
 16 36  1  0  0  0  0
 17 20  2  0  0  0  0
 17 37  1  0  0  0  0
 18 19  2  0  0  0  0
 18 20  1  0  0  0  0
 18 21  1  0  0  0  0
 19 38  1  0  0  0  0
 20 39  1  0  0  0  0
 21 22  1  0  0  0  0
 21 40  1  0  0  0  0
 21 41  1  0  0  0  0
 23 24  2  0  0  0  0
 23 43  1  0  0  0  0
 24 44  1  0  0  0  0
M  END
>  <PUBCHEM_COMPOUND_CID>
131751375

>  <PUBCHEM_COMPOUND_CANONICALIZED>
1

>  <PUBCHEM_CACTVS_COMPLEXITY>
393

>  <PUBCHEM_CACTVS_HBOND_ACCEPTOR>
7

>  <PUBCHEM_CACTVS_HBOND_DONOR>
5

>  <PUBCHEM_CACTVS_ROTATABLE_BOND>
5

>  <PUBCHEM_CACTVS_SUBSKEYS>
AAADceB7OAAAAAAAAAAAAAAAAAAAAWAAAAA0QAAAAAAAAAABwAAAHgAQCAAADBTxmwc9npbJlgCgAjJnZAACiC2xMqAJyYA+OIidfiKEuRu2eCCt0BOPqCfQ4IwOIAAAAAAAAABAAAAAAAAAAAAAAAAAAA==

>  <PUBCHEM_IUPAC_OPENEYE_NAME>
2-(hydroxymethyl)-6-[4-(1H-imidazol-2-ylmethyl)phenoxy]tetrahydropyran-3,4,5-triol

>  <PUBCHEM_IUPAC_CAS_NAME>
2-(hydroxymethyl)-6-[4-(1H-imidazol-2-ylmethyl)phenoxy]oxane-3,4,5-triol

>  <PUBCHEM_IUPAC_NAME>
2-(hydroxymethyl)-6-[4-(1H-imidazol-2-ylmethyl)phenoxy]oxane-3,4,5-triol

>  <PUBCHEM_IUPAC_SYSTEMATIC_NAME>
2-(hydroxymethyl)-6-[4-(1H-imidazol-2-ylmethyl)phenoxy]oxane-3,4,5-triol

>  <PUBCHEM_IUPAC_TRADITIONAL_NAME>
2-[4-(1H-imidazol-2-ylmethyl)phenoxy]-6-methylol-tetrahydropyran-3,4,5-triol

>  <PUBCHEM_IUPAC_INCHI>
InChI=1S/C16H20N2O6/c19-8-11-13(20)14(21)15(22)16(24-11)23-10-3-1-9(2-4-10)7-12-17-5-6-18-12/h1-6,11,13-16,19-22H,7-8H2,(H,17,18)

>  <PUBCHEM_IUPAC_INCHIKEY>
PVXWBKJKWJZGQJ-UHFFFAOYSA-N

>  <PUBCHEM_EXACT_MASS>
336.132

>  <PUBCHEM_MOLECULAR_FORMULA>
C16H20N2O6

>  <PUBCHEM_MOLECULAR_WEIGHT>
336.344

>  <PUBCHEM_OPENEYE_CAN_SMILES>
C1=CC(=CC=C1CC2=NC=CN2)OC3C(C(C(C(O3)CO)O)O)O

>  <PUBCHEM_OPENEYE_ISO_SMILES>
C1=CC(=CC=C1CC2=NC=CN2)OC3C(C(C(C(O3)CO)O)O)O

>  <PUBCHEM_CACTVS_TPSA>
128

>  <PUBCHEM_MONOISOTOPIC_WEIGHT>
336.132

>  <PUBCHEM_TOTAL_CHARGE>
0

>  <PUBCHEM_HEAVY_ATOM_COUNT>
24

>  <PUBCHEM_ATOM_DEF_STEREO_COUNT>
0

>  <PUBCHEM_ATOM_UDEF_STEREO_COUNT>
5

>  <PUBCHEM_BOND_DEF_STEREO_COUNT>
0

>  <PUBCHEM_BOND_UDEF_STEREO_COUNT>
0

>  <PUBCHEM_ISOTOPIC_ATOM_COUNT>
0

>  <PUBCHEM_COMPONENT_COUNT>
1

>  <PUBCHEM_CACTVS_TAUTO_COUNT>
7

>  <PUBCHEM_COORDINATE_TYPE>
1
5
255

>  <PUBCHEM_BONDANNOTATIONS>
12  14  3
15  16  8
15  17  8
16  19  8
17  20  8
18  19  8
18  20  8
13  2  3
23  24  8
9  3  3
10  4  3
11  5  3
7  22  8
7  23  8
8  22  8
8  24  8

$$$$
