131752952
 OpenBabel06101807152D

103105  0  0  1  0  0  0  0  0999 V2000
    4.2690    0.6550    0.0000 O   0  0  0  0  0  0  0  0  0  0  0  0
    6.8671    0.1550    0.0000 O   0  0  0  0  0  0  0  0  0  0  0  0
    7.7331   -1.3450    0.0000 O   0  0  0  0  0  0  0  0  0  0  0  0
    9.4651   -2.3450    0.0000 O   0  0  0  0  0  0  0  0  0  0  0  0
    5.1350    2.1550    0.0000 O   0  0  0  0  0  0  0  0  0  0  0  0
    4.2690   -1.3450    0.0000 O   0  0  0  0  0  0  0  0  0  0  0  0
   11.1972   -2.3450    0.0000 O   0  0  0  0  0  0  0  0  0  0  0  0
    6.0010   -2.3450    0.0000 O   0  0  0  0  0  0  0  0  0  0  0  0
    7.7331   -4.3450    0.0000 O   0  0  0  0  0  0  0  0  0  0  0  0
    2.5369    1.6550    0.0000 O   0  0  0  0  0  0  0  0  0  0  0  0
    9.4651   -5.3450    0.0000 O   0  0  0  0  0  0  0  0  0  0  0  0
    2.5369    3.6550    0.0000 O   0  0  0  0  0  0  0  0  0  0  0  0
   11.1972   -4.3450    0.0000 O   0  0  0  0  0  0  0  0  0  0  0  0
    4.2690    4.6550    0.0000 O   0  0  0  0  0  0  0  0  0  0  0  0
    5.1350    0.1550    0.0000 C   0  0  3  0  0  0  0  0  0  0  0  0
    5.1350   -0.8450    0.0000 C   0  0  3  0  0  0  0  0  0  0  0  0
    6.0010    0.6550    0.0000 C   0  0  3  0  0  0  0  0  0  0  0  0
    6.0010   -1.3450    0.0000 C   0  0  3  0  0  0  0  0  0  0  0  0
    6.8671   -0.8450    0.0000 C   0  0  3  0  0  0  0  0  0  0  0  0
    8.5991   -2.8450    0.0000 C   0  0  3  0  0  0  0  0  0  0  0  0
    4.2690    1.6550    0.0000 C   0  0  3  0  0  0  0  0  0  0  0  0
    8.5991   -3.8450    0.0000 C   0  0  3  0  0  0  0  0  0  0  0  0
    3.4030    2.1550    0.0000 C   0  0  3  0  0  0  0  0  0  0  0  0
    9.4651   -4.3450    0.0000 C   0  0  3  0  0  0  0  0  0  0  0  0
    3.4030    3.1550    0.0000 C   0  0  3  0  0  0  0  0  0  0  0  0
   10.3312   -3.8450    0.0000 C   0  0  3  0  0  0  0  0  0  0  0  0
    4.2690    3.6550    0.0000 C   0  0  3  0  0  0  0  0  0  0  0  0
   10.3312   -2.8450    0.0000 C   0  0  3  0  0  0  0  0  0  0  0  0
    7.7331   -2.3450    0.0000 C   0  0  0  0  0  0  0  0  0  0  0  0
    5.1350    3.1550    0.0000 C   0  0  3  0  0  0  0  0  0  0  0  0
    6.0010    1.6550    0.0000 C   0  0  0  0  0  0  0  0  0  0  0  0
   11.1972   -1.3450    0.0000 C   0  0  3  0  0  0  0  0  0  0  0  0
    6.0010    3.6550    0.0000 C   0  0  0  0  0  0  0  0  0  0  0  0
   11.1972   -0.3450    0.0000 C   0  0  0  0  0  0  0  0  0  0  0  0
   10.1972   -1.3450    0.0000 C   0  0  0  0  0  0  0  0  0  0  0  0
   12.1972   -1.3450    0.0000 C   0  0  0  0  0  0  0  0  0  0  0  0
   12.0632    0.1550    0.0000 C   0  0  0  0  0  0  0  0  0  0  0  0
   12.0632    1.1550    0.0000 C   0  0  0  0  0  0  0  0  0  0  0  0
   12.6972   -2.2110    0.0000 C   0  0  0  0  0  0  0  0  0  0  0  0
   12.9292    1.6550    0.0000 C   0  0  0  0  0  0  0  0  0  0  0  0
   12.9292    2.6550    0.0000 C   0  0  0  0  0  0  0  0  0  0  0  0
   13.7953    1.1550    0.0000 C   0  0  0  0  0  0  0  0  0  0  0  0
   13.7953    3.1550    0.0000 C   0  0  0  0  0  0  0  0  0  0  0  0
   13.7953    4.1550    0.0000 C   0  0  0  0  0  0  0  0  0  0  0  0
   14.6613    4.6550    0.0000 C   0  0  0  0  0  0  0  0  0  0  0  0
   14.6613    5.6550    0.0000 C   0  0  0  0  0  0  0  0  0  0  0  0
   15.5273    4.1550    0.0000 C   0  0  0  0  0  0  0  0  0  0  0  0
    4.5981   -0.1550    0.0000 H   0  0  0  0  0  0  0  0  0  0  0  0
    5.6720   -0.5350    0.0000 H   0  0  0  0  0  0  0  0  0  0  0  0
    6.5380    0.9650    0.0000 H   0  0  0  0  0  0  0  0  0  0  0  0
    5.4641   -1.6550    0.0000 H   0  0  0  0  0  0  0  0  0  0  0  0
    6.8671   -1.4650    0.0000 H   0  0  0  0  0  0  0  0  0  0  0  0
    8.5991   -2.2250    0.0000 H   0  0  0  0  0  0  0  0  0  0  0  0
    3.7320    1.3450    0.0000 H   0  0  0  0  0  0  0  0  0  0  0  0
    8.0622   -3.5350    0.0000 H   0  0  0  0  0  0  0  0  0  0  0  0
    2.8660    2.4650    0.0000 H   0  0  0  0  0  0  0  0  0  0  0  0
   10.0021   -4.6550    0.0000 H   0  0  0  0  0  0  0  0  0  0  0  0
    3.4030    3.7750    0.0000 H   0  0  0  0  0  0  0  0  0  0  0  0
   10.8681   -3.5350    0.0000 H   0  0  0  0  0  0  0  0  0  0  0  0
    4.8059    3.9650    0.0000 H   0  0  0  0  0  0  0  0  0  0  0  0
   10.3312   -2.2250    0.0000 H   0  0  0  0  0  0  0  0  0  0  0  0
    7.1225   -2.2373    0.0000 H   0  0  0  0  0  0  0  0  0  0  0  0
    7.5210   -2.9276    0.0000 H   0  0  0  0  0  0  0  0  0  0  0  0
    5.6720    2.8450    0.0000 H   0  0  0  0  0  0  0  0  0  0  0  0
    6.6210    1.6550    0.0000 H   0  0  0  0  0  0  0  0  0  0  0  0
    6.0010    2.2750    0.0000 H   0  0  0  0  0  0  0  0  0  0  0  0
    5.3810    1.6550    0.0000 H   0  0  0  0  0  0  0  0  0  0  0  0
    4.2690   -1.9650    0.0000 H   0  0  0  0  0  0  0  0  0  0  0  0
    5.4641   -2.6550    0.0000 H   0  0  0  0  0  0  0  0  0  0  0  0
    6.3110    3.1181    0.0000 H   0  0  0  0  0  0  0  0  0  0  0  0
    6.5380    3.9650    0.0000 H   0  0  0  0  0  0  0  0  0  0  0  0
    5.6910    4.1919    0.0000 H   0  0  0  0  0  0  0  0  0  0  0  0
    7.1962   -4.0350    0.0000 H   0  0  0  0  0  0  0  0  0  0  0  0
    2.0000    1.9650    0.0000 H   0  0  0  0  0  0  0  0  0  0  0  0
   10.9851    0.2376    0.0000 H   0  0  0  0  0  0  0  0  0  0  0  0
   10.5866   -0.4527    0.0000 H   0  0  0  0  0  0  0  0  0  0  0  0
    8.9282   -5.6550    0.0000 H   0  0  0  0  0  0  0  0  0  0  0  0
    2.5369    4.2750    0.0000 H   0  0  0  0  0  0  0  0  0  0  0  0
   11.7341   -4.0350    0.0000 H   0  0  0  0  0  0  0  0  0  0  0  0
    4.8059    4.9650    0.0000 H   0  0  0  0  0  0  0  0  0  0  0  0
   10.1972   -0.7250    0.0000 H   0  0  0  0  0  0  0  0  0  0  0  0
    9.5772   -1.3450    0.0000 H   0  0  0  0  0  0  0  0  0  0  0  0
   10.1972   -1.9650    0.0000 H   0  0  0  0  0  0  0  0  0  0  0  0
   12.5072   -0.8081    0.0000 H   0  0  0  0  0  0  0  0  0  0  0  0
   12.2753   -0.4276    0.0000 H   0  0  0  0  0  0  0  0  0  0  0  0
   12.6738    0.2627    0.0000 H   0  0  0  0  0  0  0  0  0  0  0  0
   11.5263    1.4650    0.0000 H   0  0  0  0  0  0  0  0  0  0  0  0
   12.3872   -2.7480    0.0000 H   0  0  0  0  0  0  0  0  0  0  0  0
   13.3172   -2.2110    0.0000 H   0  0  0  0  0  0  0  0  0  0  0  0
   12.7172    3.2376    0.0000 H   0  0  0  0  0  0  0  0  0  0  0  0
   12.3187    2.5473    0.0000 H   0  0  0  0  0  0  0  0  0  0  0  0
   13.4853    0.6181    0.0000 H   0  0  0  0  0  0  0  0  0  0  0  0
   14.3322    0.8450    0.0000 H   0  0  0  0  0  0  0  0  0  0  0  0
   14.1053    1.6919    0.0000 H   0  0  0  0  0  0  0  0  0  0  0  0
   14.0073    2.5724    0.0000 H   0  0  0  0  0  0  0  0  0  0  0  0
   14.4058    3.2627    0.0000 H   0  0  0  0  0  0  0  0  0  0  0  0
   13.2583    4.4650    0.0000 H   0  0  0  0  0  0  0  0  0  0  0  0
   15.2813    5.6550    0.0000 H   0  0  0  0  0  0  0  0  0  0  0  0
   15.2173    3.6181    0.0000 H   0  0  0  0  0  0  0  0  0  0  0  0
   16.0643    3.8450    0.0000 H   0  0  0  0  0  0  0  0  0  0  0  0
   15.8373    4.6919    0.0000 H   0  0  0  0  0  0  0  0  0  0  0  0
   14.6613    6.2750    0.0000 H   0  0  0  0  0  0  0  0  0  0  0  0
   14.0413    5.6550    0.0000 H   0  0  0  0  0  0  0  0  0  0  0  0
  1 15  1  0  0  0  0
  1 21  1  0  0  0  0
  2 17  1  0  0  0  0
  2 19  1  0  0  0  0
  3 19  1  0  0  0  0
  3 29  1  0  0  0  0
  4 20  1  0  0  0  0
  4 28  1  0  0  0  0
  5 21  1  0  0  0  0
  5 30  1  0  0  0  0
  6 16  1  0  0  0  0
  6 68  1  0  0  0  0
  7 28  1  0  0  0  0
  7 32  1  0  0  0  0
  8 18  1  0  0  0  0
  8 69  1  0  0  0  0
  9 22  1  0  0  0  0
  9 73  1  0  0  0  0
 10 23  1  0  0  0  0
 10 74  1  0  0  0  0
 11 24  1  0  0  0  0
 11 77  1  0  0  0  0
 12 25  1  0  0  0  0
 12 78  1  0  0  0  0
 13 26  1  0  0  0  0
 13 79  1  0  0  0  0
 14 27  1  0  0  0  0
 14 80  1  0  0  0  0
 15 16  1  0  0  0  0
 15 17  1  0  0  0  0
 15 48  1  0  0  0  0
 16 18  1  0  0  0  0
 16 49  1  0  0  0  0
 17 31  1  0  0  0  0
 17 50  1  0  0  0  0
 18 19  1  0  0  0  0
 18 51  1  0  0  0  0
 19 52  1  0  0  0  0
 20 22  1  0  0  0  0
 20 29  1  0  0  0  0
 20 53  1  0  0  0  0
 21 23  1  0  0  0  0
 21 54  1  0  0  0  0
 22 24  1  0  0  0  0
 22 55  1  0  0  0  0
 23 25  1  0  0  0  0
 23 56  1  0  0  0  0
 24 26  1  0  0  0  0
 24 57  1  0  0  0  0
 25 27  1  0  0  0  0
 25 58  1  0  0  0  0
 26 28  1  0  0  0  0
 26 59  1  0  0  0  0
 27 30  1  0  0  0  0
 27 60  1  0  0  0  0
 28 61  1  0  0  0  0
 29 62  1  0  0  0  0
 29 63  1  0  0  0  0
 30 33  1  0  0  0  0
 30 64  1  0  0  0  0
 31 65  1  0  0  0  0
 31 66  1  0  0  0  0
 31 67  1  0  0  0  0
 32 34  1  0  0  0  0
 32 35  1  0  0  0  0
 32 36  1  0  0  0  0
 33 70  1  0  0  0  0
 33 71  1  0  0  0  0
 33 72  1  0  0  0  0
 34 37  1  0  0  0  0
 34 75  1  0  0  0  0
 34 76  1  0  0  0  0
 35 81  1  0  0  0  0
 35 82  1  0  0  0  0
 35 83  1  0  0  0  0
 36 39  2  0  0  0  0
 36 84  1  0  0  0  0
 37 38  1  0  0  0  0
 37 85  1  0  0  0  0
 37 86  1  0  0  0  0
 38 40  2  0  0  0  0
 38 87  1  0  0  0  0
 39 88  1  0  0  0  0
 39 89  1  0  0  0  0
 40 41  1  0  0  0  0
 40 42  1  0  0  0  0
 41 43  1  0  0  0  0
 41 90  1  0  0  0  0
 41 91  1  0  0  0  0
 42 92  1  0  0  0  0
 42 93  1  0  0  0  0
 42 94  1  0  0  0  0
 43 44  1  0  0  0  0
 43 95  1  0  0  0  0
 43 96  1  0  0  0  0
 44 45  2  0  0  0  0
 44 97  1  0  0  0  0
 45 46  1  0  0  0  0
 45 47  1  0  0  0  0
 46 98  1  0  0  0  0
 46102  1  0  0  0  0
 46103  1  0  0  0  0
 47 99  1  0  0  0  0
 47100  1  0  0  0  0
 47101  1  0  0  0  0
M  END
>  <PUBCHEM_COMPOUND_CID>
131752952

>  <PUBCHEM_COMPOUND_CANONICALIZED>
1

>  <PUBCHEM_CACTVS_COMPLEXITY>
1050

>  <PUBCHEM_CACTVS_HBOND_ACCEPTOR>
14

>  <PUBCHEM_CACTVS_HBOND_DONOR>
8

>  <PUBCHEM_CACTVS_ROTATABLE_BOND>
14

>  <PUBCHEM_CACTVS_SUBSKEYS>
AAADcfB8PAAAAAAAAAAAAAAAAAAAAAAAAAAkSJAAAAAAAAAAAAAAGgAACAAADFSwgAMCCAAABgCAAiBCAAAAAAAgAAAICAAAAAgRFAIAIQAiQAAFgAAPIAPAYAwMAAAAAAAAAAAAAAAAAAAAAAAAAAAAAA==

>  <PUBCHEM_IUPAC_OPENEYE_NAME>
2-[4,5-dihydroxy-2-methyl-6-[[3,4,5-trihydroxy-6-[(4E)-1,5,9-trimethyl-1-vinyl-deca-4,8-dienoxy]tetrahydropyran-2-yl]methoxy]tetrahydropyran-3-yl]oxy-6-methyl-tetrahydropyran-3,4,5-triol

>  <PUBCHEM_IUPAC_CAS_NAME>
2-[[4,5-dihydroxy-2-methyl-6-[[3,4,5-trihydroxy-6-[(6E)-3,7,11-trimethyldodeca-1,6,10-trien-3-yl]oxy-2-oxanyl]methoxy]-3-oxanyl]oxy]-6-methyloxane-3,4,5-triol

>  <PUBCHEM_IUPAC_NAME>
2-[4,5-dihydroxy-2-methyl-6-[[3,4,5-trihydroxy-6-[(6E)-3,7,11-trimethyldodeca-1,6,10-trien-3-yl]oxyoxan-2-yl]methoxy]oxan-3-yl]oxy-6-methyloxane-3,4,5-triol

>  <PUBCHEM_IUPAC_SYSTEMATIC_NAME>
2-methyl-6-[2-methyl-4,5-bis(oxidanyl)-6-[[3,4,5-tris(oxidanyl)-6-[(6E)-3,7,11-trimethyldodeca-1,6,10-trien-3-yl]oxy-oxan-2-yl]methoxy]oxan-3-yl]oxy-oxane-3,4,5-triol

>  <PUBCHEM_IUPAC_TRADITIONAL_NAME>
2-[4,5-dihydroxy-2-methyl-6-[[3,4,5-trihydroxy-6-[(4E)-1,5,9-trimethyl-1-vinyl-deca-4,8-dienoxy]tetrahydropyran-2-yl]methoxy]tetrahydropyran-3-yl]oxy-6-methyl-tetrahydropyran-3,4,5-triol

>  <PUBCHEM_IUPAC_INCHI>
InChI=1S/C33H56O14/c1-8-33(7,14-10-13-17(4)12-9-11-16(2)3)47-32-27(40)24(37)22(35)20(45-32)15-42-30-28(41)25(38)29(19(6)44-30)46-31-26(39)23(36)21(34)18(5)43-31/h8,11,13,18-32,34-41H,1,9-10,12,14-15H2,2-7H3/b17-13+

>  <PUBCHEM_IUPAC_INCHIKEY>
HIAIQDVRFUXFLS-GHRIWEEISA-N

>  <PUBCHEM_EXACT_MASS>
676.367

>  <PUBCHEM_MOLECULAR_FORMULA>
C33H56O14

>  <PUBCHEM_MOLECULAR_WEIGHT>
676.797

>  <PUBCHEM_OPENEYE_CAN_SMILES>
CC1C(C(C(C(O1)OC2C(OC(C(C2O)O)OCC3C(C(C(C(O3)OC(C)(CCC=C(C)CCC=C(C)C)C=C)O)O)O)C)O)O)O

>  <PUBCHEM_OPENEYE_ISO_SMILES>
CC1C(C(C(C(O1)OC2C(OC(C(C2O)O)OCC3C(C(C(C(O3)OC(C)(CC/C=C(\C)/CCC=C(C)C)C=C)O)O)O)C)O)O)O

>  <PUBCHEM_CACTVS_TPSA>
217

>  <PUBCHEM_MONOISOTOPIC_WEIGHT>
676.367

>  <PUBCHEM_TOTAL_CHARGE>
0

>  <PUBCHEM_HEAVY_ATOM_COUNT>
47

>  <PUBCHEM_ATOM_DEF_STEREO_COUNT>
0

>  <PUBCHEM_ATOM_UDEF_STEREO_COUNT>
16

>  <PUBCHEM_BOND_DEF_STEREO_COUNT>
1

>  <PUBCHEM_BOND_UDEF_STEREO_COUNT>
0

>  <PUBCHEM_ISOTOPIC_ATOM_COUNT>
0

>  <PUBCHEM_COMPONENT_COUNT>
1

>  <PUBCHEM_CACTVS_TAUTO_COUNT>
1

>  <PUBCHEM_COORDINATE_TYPE>
1
5
255

>  <PUBCHEM_BONDANNOTATIONS>
15  1  3
21  1  3
23  10  3
24  11  3
25  12  3
26  13  3
27  14  3
17  31  3
20  29  3
19  3  3
30  33  3
32  35  3
16  6  3
28  7  3
18  8  3
22  9  3

$$$$
