131751324
 OpenBabel06101807152D

 52 55  0  0  1  0  0  0  0  0999 V2000
    4.2370    3.3674    0.0000 O   0  0  0  0  0  0  0  0  0  0  0  0
    6.7168   -1.1225    0.0000 O   0  0  0  0  0  0  0  0  0  0  0  0
    2.1106    0.8986    0.0000 O   0  0  0  0  0  0  0  0  0  0  0  0
    5.5177   -2.3723    0.0000 O   0  0  0  0  0  0  0  0  0  0  0  0
    2.6346   -3.2598    0.0000 O   0  0  0  0  0  0  0  0  0  0  0  0
    4.3664   -3.2901    0.0000 O   0  0  0  0  0  0  0  0  0  0  0  0
    5.1708    0.2758    0.0000 C   0  0  3  0  0  0  0  0  0  0  0  0
    4.2699    0.7097    0.0000 C   0  0  3  0  0  0  0  0  0  0  0  0
    3.5848   -0.0106    0.0000 C   0  0  3  0  0  0  0  0  0  0  0  0
    4.0566   -0.8856    0.0000 C   0  0  3  0  0  0  0  0  0  0  0  0
    5.0349   -0.7089    0.0000 C   0  0  3  0  0  0  0  0  0  0  0  0
    5.0640    1.4526    0.0000 C   0  0  0  0  0  0  0  0  0  0  0  0
    5.6708    2.4665    0.0000 C   0  0  3  0  0  0  0  0  0  0  0  0
    6.0718    0.7097    0.0000 C   0  0  0  0  0  0  0  0  0  0  0  0
    4.0474    1.6846    0.0000 C   0  0  0  0  0  0  0  0  0  0  0  0
    3.5267   -1.7752    0.0000 C   0  0  3  0  0  0  0  0  0  0  0  0
    2.5503    0.0354    0.0000 C   0  0  0  0  0  0  0  0  0  0  0  0
    4.6708    2.4665    0.0000 C   0  0  3  0  0  0  0  0  0  0  0  0
    6.2943    1.6846    0.0000 C   0  0  0  0  0  0  0  0  0  0  0  0
    2.4915   -1.7531    0.0000 C   0  0  0  0  0  0  0  0  0  0  0  0
    2.0000   -0.8417    0.0000 C   0  0  0  0  0  0  0  0  0  0  0  0
    3.1102    0.8696    0.0000 C   0  0  0  0  0  0  0  0  0  0  0  0
    5.7565   -1.4012    0.0000 C   0  0  0  0  0  0  0  0  0  0  0  0
    4.3838   -2.2902    0.0000 C   0  0  0  0  0  0  0  0  0  0  0  0
    3.5092   -2.7750    0.0000 C   0  0  0  0  0  0  0  0  0  0  0  0
    7.2693    1.9072    0.0000 C   0  0  0  0  0  0  0  0  0  0  0  0
    3.6720    0.8739    0.0000 H   0  0  0  0  0  0  0  0  0  0  0  0
    4.4098   -1.3951    0.0000 H   0  0  0  0  0  0  0  0  0  0  0  0
    4.8558   -1.3025    0.0000 H   0  0  0  0  0  0  0  0  0  0  0  0
    4.6562    1.9196    0.0000 H   0  0  0  0  0  0  0  0  0  0  0  0
    4.4940    1.2088    0.0000 H   0  0  0  0  0  0  0  0  0  0  0  0
    5.9399    3.0251    0.0000 H   0  0  0  0  0  0  0  0  0  0  0  0
    6.2098    0.1052    0.0000 H   0  0  0  0  0  0  0  0  0  0  0  0
    6.6918    0.7097    0.0000 H   0  0  0  0  0  0  0  0  0  0  0  0
    3.6608    2.1694    0.0000 H   0  0  0  0  0  0  0  0  0  0  0  0
    3.4888    1.4156    0.0000 H   0  0  0  0  0  0  0  0  0  0  0  0
    2.6835    0.6410    0.0000 H   0  0  0  0  0  0  0  0  0  0  0  0
    1.9765    0.2702    0.0000 H   0  0  0  0  0  0  0  0  0  0  0  0
    4.0548    2.5359    0.0000 H   0  0  0  0  0  0  0  0  0  0  0  0
    1.9034   -1.9496    0.0000 H   0  0  0  0  0  0  0  0  0  0  0  0
    2.5845   -2.3660    0.0000 H   0  0  0  0  0  0  0  0  0  0  0  0
    1.5390   -0.4271    0.0000 H   0  0  0  0  0  0  0  0  0  0  0  0
    1.5127   -1.2250    0.0000 H   0  0  0  0  0  0  0  0  0  0  0  0
    3.4356    1.3973    0.0000 H   0  0  0  0  0  0  0  0  0  0  0  0
    4.0645   -2.8217    0.0000 H   0  0  0  0  0  0  0  0  0  0  0  0
    4.9153   -2.6096    0.0000 H   0  0  0  0  0  0  0  0  0  0  0  0
    4.7032   -1.7588    0.0000 H   0  0  0  0  0  0  0  0  0  0  0  0
    7.6910    1.4527    0.0000 H   0  0  0  0  0  0  0  0  0  0  0  0
    7.4520    2.4996    0.0000 H   0  0  0  0  0  0  0  0  0  0  0  0
    4.5862    3.8797    0.0000 H   0  0  0  0  0  0  0  0  0  0  0  0
    7.1642   -1.5517    0.0000 H   0  0  0  0  0  0  0  0  0  0  0  0
    2.6237   -3.8797    0.0000 H   0  0  0  0  0  0  0  0  0  0  0  0
  1 18  1  0  0  0  0
  1 50  1  0  0  0  0
  2 23  1  0  0  0  0
  2 51  1  0  0  0  0
  3 22  2  0  0  0  0
  4 23  2  0  0  0  0
  5 25  1  0  0  0  0
  5 52  1  0  0  0  0
  6 25  2  0  0  0  0
  7  8  1  0  0  0  0
  7 11  1  0  0  0  0
  7 12  1  0  0  0  0
  7 14  1  0  0  0  0
  8  9  1  0  0  0  0
  8 15  1  0  0  0  0
  8 27  1  0  0  0  0
  9 10  1  0  0  0  0
  9 17  1  0  0  0  0
  9 22  1  0  0  0  0
 10 11  1  0  0  0  0
 10 16  1  0  0  0  0
 10 28  1  0  0  0  0
 11 23  1  0  0  0  0
 11 29  1  0  0  0  0
 12 13  1  0  0  0  0
 12 30  1  0  0  0  0
 12 31  1  0  0  0  0
 13 18  1  0  0  0  0
 13 19  1  0  0  0  0
 13 32  1  0  0  0  0
 14 19  1  0  0  0  0
 14 33  1  0  0  0  0
 14 34  1  0  0  0  0
 15 18  1  0  0  0  0
 15 35  1  0  0  0  0
 15 36  1  0  0  0  0
 16 20  1  0  0  0  0
 16 24  1  0  0  0  0
 16 25  1  0  0  0  0
 17 21  1  0  0  0  0
 17 37  1  0  0  0  0
 17 38  1  0  0  0  0
 18 39  1  0  0  0  0
 19 26  2  0  0  0  0
 20 21  1  0  0  0  0
 20 40  1  0  0  0  0
 20 41  1  0  0  0  0
 21 42  1  0  0  0  0
 21 43  1  0  0  0  0
 22 44  1  0  0  0  0
 24 45  1  0  0  0  0
 24 46  1  0  0  0  0
 24 47  1  0  0  0  0
 26 48  1  0  0  0  0
 26 49  1  0  0  0  0
M  END
>  <PUBCHEM_COMPOUND_CID>
131751324

>  <PUBCHEM_COMPOUND_CANONICALIZED>
1

>  <PUBCHEM_CACTVS_COMPLEXITY>
715

>  <PUBCHEM_CACTVS_HBOND_ACCEPTOR>
6

>  <PUBCHEM_CACTVS_HBOND_DONOR>
3

>  <PUBCHEM_CACTVS_ROTATABLE_BOND>
3

>  <PUBCHEM_CACTVS_SUBSKEYS>
AAADceB4OAAAAAAAAAAAAAAAAAAAAYMAAAAwYAAABgAAAGDAAAAAGgAACAAADxSggAICCAAAAgCIAgjSiAAAAAAgAAAAAAEAAAgAEBIAAQAAQAAEwAAAAAGI7vDPgAAAAAAAAADAAAYAADAAAQAACAAAAA==

>  <PUBCHEM_IUPAC_INCHI>
InChI=1S/C20H26O6/c1-10-7-20-8-11(10)12(22)6-13(20)19(9-21)5-3-4-18(2,17(25)26)15(19)14(20)16(23)24/h9,11-15,22H,1,3-8H2,2H3,(H,23,24)(H,25,26)

>  <PUBCHEM_IUPAC_INCHIKEY>
ABTNJGAZZKYLLD-UHFFFAOYSA-N

>  <PUBCHEM_EXACT_MASS>
362.173

>  <PUBCHEM_MOLECULAR_FORMULA>
C20H26O6

>  <PUBCHEM_MOLECULAR_WEIGHT>
362.422

>  <PUBCHEM_OPENEYE_CAN_SMILES>
CC1(CCCC2(C1C(C34C2CC(C(C3)C(=C)C4)O)C(=O)O)C=O)C(=O)O

>  <PUBCHEM_OPENEYE_ISO_SMILES>
CC1(CCCC2(C1C(C34C2CC(C(C3)C(=C)C4)O)C(=O)O)C=O)C(=O)O

>  <PUBCHEM_CACTVS_TPSA>
112

>  <PUBCHEM_MONOISOTOPIC_WEIGHT>
362.173

>  <PUBCHEM_TOTAL_CHARGE>
0

>  <PUBCHEM_HEAVY_ATOM_COUNT>
26

>  <PUBCHEM_ATOM_DEF_STEREO_COUNT>
0

>  <PUBCHEM_ATOM_UDEF_STEREO_COUNT>
8

>  <PUBCHEM_BOND_DEF_STEREO_COUNT>
0

>  <PUBCHEM_BOND_UDEF_STEREO_COUNT>
0

>  <PUBCHEM_ISOTOPIC_ATOM_COUNT>
0

>  <PUBCHEM_COMPONENT_COUNT>
1

>  <PUBCHEM_CACTVS_TAUTO_COUNT>
1

>  <PUBCHEM_COORDINATE_TYPE>
1
5
255

>  <PUBCHEM_BONDANNOTATIONS>
18  1  3
10  11  3
11  23  3
13  12  3
16  24  3
7  14  3
8  15  3
9  22  3

$$$$
