131752587
 OpenBabel06101807152D

 80 86  0  0  1  0  0  0  0  0999 V2000
    7.5510   -0.6758    0.0000 O   0  0  0  0  0  0  0  0  0  0  0  0
    7.1353   -1.5157    0.0000 O   0  0  0  0  0  0  0  0  0  0  0  0
    5.7562    0.6625    0.0000 O   0  0  0  0  0  0  0  0  0  0  0  0
    8.4686    1.8796    0.0000 O   0  0  0  0  0  0  0  0  0  0  0  0
    5.6840   -1.9822    0.0000 O   0  0  0  0  0  0  0  0  0  0  0  0
    3.7310   -1.5508    0.0000 O   0  0  0  0  0  0  0  0  0  0  0  0
   10.2170    1.8450    0.0000 O   0  0  0  0  0  0  0  0  0  0  0  0
    9.4438   -1.3519    0.0000 O   0  0  0  0  0  0  0  0  0  0  0  0
   11.9490   -1.1550    0.0000 O   0  0  0  0  0  0  0  0  0  0  0  0
   11.9490    0.8450    0.0000 O   0  0  0  0  0  0  0  0  0  0  0  0
    7.3198   -3.1366    0.0000 O   0  0  0  0  0  0  0  0  0  0  0  0
   11.4096   -2.2078    0.0000 O   0  0  0  0  0  0  0  0  0  0  0  0
    3.8262    0.5769    0.0000 O   0  0  0  0  0  0  0  0  0  0  0  0
   11.2120   -4.1401    0.0000 O   0  0  0  0  0  0  0  0  0  0  0  0
    9.4497   -4.9568    0.0000 O   0  0  0  0  0  0  0  0  0  0  0  0
    2.0795   -2.0729    0.0000 O   0  0  0  0  0  0  0  0  0  0  0  0
    2.1937    3.2401    0.0000 O   0  0  0  0  0  0  0  0  0  0  0  0
    4.0190    2.0704    0.0000 O   0  0  0  0  0  0  0  0  0  0  0  0
    5.5648    4.3201    0.0000 O   0  0  0  0  0  0  0  0  0  0  0  0
    3.2140   -1.5738    0.0000 O   0  0  0  0  0  0  0  0  0  0  0  0
    3.5647    4.7619    0.0000 O   0  0  0  0  0  0  0  0  0  0  0  0
    4.9485   -0.3962    0.0000 O   0  0  0  0  0  0  0  0  0  0  0  0
    7.5510    0.3658    0.0000 C   0  0  3  0  0  0  0  0  0  0  0  0
    7.0340   -0.5067    0.0000 C   0  0  3  0  0  0  0  0  0  0  0  0
    8.4570    0.8796    0.0000 C   0  0  3  0  0  0  0  0  0  0  0  0
    6.0576   -0.2910    0.0000 C   0  0  3  0  0  0  0  0  0  0  0  0
    9.3510    0.3450    0.0000 C   0  0  0  0  0  0  0  0  0  0  0  0
    5.3826   -1.0287    0.0000 C   0  0  3  0  0  0  0  0  0  0  0  0
    9.3510   -0.6550    0.0000 C   0  0  0  0  0  0  0  0  0  0  0  0
   10.2170   -1.1550    0.0000 C   0  0  0  0  0  0  0  0  0  0  0  0
    8.4570   -1.1897    0.0000 C   0  0  0  0  0  0  0  0  0  0  0  0
   10.2170    0.8450    0.0000 C   0  0  0  0  0  0  0  0  0  0  0  0
    4.4061   -0.8130    0.0000 C   0  0  0  0  0  0  0  0  0  0  0  0
    9.7291   -2.0440    0.0000 C   0  0  0  0  0  0  0  0  0  0  0  0
   11.0830   -0.6550    0.0000 C   0  0  0  0  0  0  0  0  0  0  0  0
    8.8090   -2.4704    0.0000 C   0  0  0  0  0  0  0  0  0  0  0  0
    7.8153   -2.2680    0.0000 C   0  0  0  0  0  0  0  0  0  0  0  0
   11.0830    0.3450    0.0000 C   0  0  0  0  0  0  0  0  0  0  0  0
   10.4947   -2.6115    0.0000 C   0  0  0  0  0  0  0  0  0  0  0  0
    4.7797    0.8782    0.0000 C   0  0  0  0  0  0  0  0  0  0  0  0
    8.7470   -3.4214    0.0000 C   0  0  0  0  0  0  0  0  0  0  0  0
    4.4783    1.8317    0.0000 C   0  0  0  0  0  0  0  0  0  0  0  0
   10.3978   -3.5596    0.0000 C   0  0  0  0  0  0  0  0  0  0  0  0
    9.5331   -3.9603    0.0000 C   0  0  0  0  0  0  0  0  0  0  0  0
    3.5018    2.0474    0.0000 C   0  0  0  0  0  0  0  0  0  0  0  0
    2.7546   -1.3351    0.0000 C   0  0  0  0  0  0  0  0  0  0  0  0
    2.8268    1.3097    0.0000 C   0  0  0  0  0  0  0  0  0  0  0  0
    2.4532   -0.3816    0.0000 C   0  0  0  0  0  0  0  0  0  0  0  0
    5.1932    2.5893    0.0000 C   0  0  0  0  0  0  0  0  0  0  0  0
    2.1518    0.5719    0.0000 C   0  0  0  0  0  0  0  0  0  0  0  0
    3.1726    3.0357    0.0000 C   0  0  0  0  0  0  0  0  0  0  0  0
    3.8032    1.0940    0.0000 C   0  0  0  0  0  0  0  0  0  0  0  0
    4.8869    3.5849    0.0000 C   0  0  0  0  0  0  0  0  0  0  0  0
    3.4296   -0.5973    0.0000 C   0  0  0  0  0  0  0  0  0  0  0  0
    3.8698    3.8096    0.0000 C   0  0  0  0  0  0  0  0  0  0  0  0
    4.1047    0.1405    0.0000 C   0  0  0  0  0  0  0  0  0  0  0  0
    7.1167    0.8083    0.0000 H   0  0  0  0  0  0  0  0  0  0  0  0
    7.6394   -0.6404    0.0000 H   0  0  0  0  0  0  0  0  0  0  0  0
    8.9981    1.1824    0.0000 H   0  0  0  0  0  0  0  0  0  0  0  0
    6.4761    0.1665    0.0000 H   0  0  0  0  0  0  0  0  0  0  0  0
    4.9640   -1.4862    0.0000 H   0  0  0  0  0  0  0  0  0  0  0  0
    4.6429   -0.2400    0.0000 H   0  0  0  0  0  0  0  0  0  0  0  0
    3.8829   -0.4803    0.0000 H   0  0  0  0  0  0  0  0  0  0  0  0
    7.9353    2.1958    0.0000 H   0  0  0  0  0  0  0  0  0  0  0  0
    5.2654   -2.4396    0.0000 H   0  0  0  0  0  0  0  0  0  0  0  0
    8.1894   -3.6924    0.0000 H   0  0  0  0  0  0  0  0  0  0  0  0
   10.7539    2.1550    0.0000 H   0  0  0  0  0  0  0  0  0  0  0  0
   12.4860   -0.8450    0.0000 H   0  0  0  0  0  0  0  0  0  0  0  0
   11.9490    1.4650    0.0000 H   0  0  0  0  0  0  0  0  0  0  0  0
    5.7970    2.4486    0.0000 H   0  0  0  0  0  0  0  0  0  0  0  0
   11.9100   -2.5739    0.0000 H   0  0  0  0  0  0  0  0  0  0  0  0
    1.5463    0.7056    0.0000 H   0  0  0  0  0  0  0  0  0  0  0  0
   11.1527   -4.7573    0.0000 H   0  0  0  0  0  0  0  0  0  0  0  0
    8.8888   -5.2209    0.0000 H   0  0  0  0  0  0  0  0  0  0  0  0
    2.0000    3.8290    0.0000 H   0  0  0  0  0  0  0  0  0  0  0  0
    3.8321    2.6616    0.0000 H   0  0  0  0  0  0  0  0  0  0  0  0
    5.3802    4.9119    0.0000 H   0  0  0  0  0  0  0  0  0  0  0  0
    3.4010   -2.1649    0.0000 H   0  0  0  0  0  0  0  0  0  0  0  0
    3.9814    5.2209    0.0000 H   0  0  0  0  0  0  0  0  0  0  0  0
    5.2812    0.1270    0.0000 H   0  0  0  0  0  0  0  0  0  0  0  0
  1 23  1  0  0  0  0
  1 31  1  0  0  0  0
  2 24  1  0  0  0  0
  2 37  1  0  0  0  0
  3 26  1  0  0  0  0
  3 40  1  0  0  0  0
  4 25  1  0  0  0  0
  4 64  1  0  0  0  0
  5 28  1  0  0  0  0
  5 65  1  0  0  0  0
  6 33  1  0  0  0  0
  6 46  1  0  0  0  0
  7 32  1  0  0  0  0
  7 67  1  0  0  0  0
  8 31  2  0  0  0  0
  9 35  1  0  0  0  0
  9 68  1  0  0  0  0
 10 38  1  0  0  0  0
 10 69  1  0  0  0  0
 11 37  2  0  0  0  0
 12 39  1  0  0  0  0
 12 71  1  0  0  0  0
 13 40  2  0  0  0  0
 14 43  1  0  0  0  0
 14 73  1  0  0  0  0
 15 44  1  0  0  0  0
 15 74  1  0  0  0  0
 16 46  2  0  0  0  0
 17 51  1  0  0  0  0
 17 75  1  0  0  0  0
 18 52  1  0  0  0  0
 18 76  1  0  0  0  0
 19 53  1  0  0  0  0
 19 77  1  0  0  0  0
 20 54  1  0  0  0  0
 20 78  1  0  0  0  0
 21 55  1  0  0  0  0
 21 79  1  0  0  0  0
 22 56  1  0  0  0  0
 22 80  1  0  0  0  0
 23 24  1  0  0  0  0
 23 25  1  0  0  0  0
 23 57  1  0  0  0  0
 24 26  1  0  0  0  0
 24 58  1  0  0  0  0
 25 27  1  0  0  0  0
 25 59  1  0  0  0  0
 26 28  1  0  0  0  0
 26 60  1  0  0  0  0
 27 29  1  0  0  0  0
 27 32  2  0  0  0  0
 28 33  1  0  0  0  0
 28 61  1  0  0  0  0
 29 30  2  0  0  0  0
 29 31  1  0  0  0  0
 30 34  1  0  0  0  0
 30 35  1  0  0  0  0
 32 38  1  0  0  0  0
 33 62  1  0  0  0  0
 33 63  1  0  0  0  0
 34 36  1  0  0  0  0
 34 39  2  0  0  0  0
 35 38  2  0  0  0  0
 36 37  1  0  0  0  0
 36 41  2  0  0  0  0
 39 43  1  0  0  0  0
 40 42  1  0  0  0  0
 41 44  1  0  0  0  0
 41 66  1  0  0  0  0
 42 45  1  0  0  0  0
 42 49  2  0  0  0  0
 43 44  2  0  0  0  0
 45 47  1  0  0  0  0
 45 51  2  0  0  0  0
 46 48  1  0  0  0  0
 47 50  2  0  0  0  0
 47 52  1  0  0  0  0
 48 50  1  0  0  0  0
 48 54  2  0  0  0  0
 49 53  1  0  0  0  0
 49 70  1  0  0  0  0
 50 72  1  0  0  0  0
 51 55  1  0  0  0  0
 52 56  2  0  0  0  0
 53 55  2  0  0  0  0
 54 56  1  0  0  0  0
M  END
>  <PUBCHEM_COMPOUND_CID>
131752587

>  <PUBCHEM_COMPOUND_CANONICALIZED>
1

>  <PUBCHEM_CACTVS_COMPLEXITY>
1530

>  <PUBCHEM_CACTVS_HBOND_ACCEPTOR>
22

>  <PUBCHEM_CACTVS_HBOND_DONOR>
14

>  <PUBCHEM_CACTVS_ROTATABLE_BOND>
1

>  <PUBCHEM_CACTVS_SUBSKEYS>
AAADceB8PgAAAAAAAAAAAAAAAAAAAAAAAAA0YMGCAAAAAACRVAAAGgAACAAADBSgmAIwDoAABgCIAiDSCAACAAAkIAAAiAEGiMgJNzaCNBqCcUEl4BULuYfK7PzOoAADCAAYQABAAAYQADCAAAAAAAAAAA==

>  <PUBCHEM_IUPAC_INCHI>
InChI=1S/C34H24O22/c35-9-2-6-12(21(42)19(9)40)5-1-8(18(39)26(47)17(5)38)31(49)53-4-11(37)28(54-32(6)50)30-29-25(46)16-15(34(52)55-29)14(23(44)27(48)24(16)45)13-7(33(51)56-30)3-10(36)20(41)22(13)43/h1-3,11,25,28-30,35-48H,4H2

>  <PUBCHEM_IUPAC_INCHIKEY>
ULOZLJUAARUDHM-UHFFFAOYSA-N

>  <PUBCHEM_EXACT_MASS>
784.076

>  <PUBCHEM_MOLECULAR_FORMULA>
C34H24O22

>  <PUBCHEM_MOLECULAR_WEIGHT>
784.544

>  <PUBCHEM_OPENEYE_CAN_SMILES>
C1C(C(OC(=O)C2=CC(=C(C(=C2C3=CC(=C(C(=C3O)O)O)C(=O)O1)O)O)O)C4C5C(C6=C(C(=C(C(=C6C(=O)O5)C7=C(C(=C(C=C7C(=O)O4)O)O)O)O)O)O)O)O

>  <PUBCHEM_OPENEYE_ISO_SMILES>
C1C(C(OC(=O)C2=CC(=C(C(=C2C3=CC(=C(C(=C3O)O)O)C(=O)O1)O)O)O)C4C5C(C6=C(C(=C(C(=C6C(=O)O5)C7=C(C(=C(C=C7C(=O)O4)O)O)O)O)O)O)O)O

>  <PUBCHEM_CACTVS_TPSA>
388

>  <PUBCHEM_MONOISOTOPIC_WEIGHT>
784.076

>  <PUBCHEM_TOTAL_CHARGE>
0

>  <PUBCHEM_HEAVY_ATOM_COUNT>
56

>  <PUBCHEM_ATOM_DEF_STEREO_COUNT>
0

>  <PUBCHEM_ATOM_UDEF_STEREO_COUNT>
5

>  <PUBCHEM_BOND_DEF_STEREO_COUNT>
0

>  <PUBCHEM_BOND_UDEF_STEREO_COUNT>
0

>  <PUBCHEM_ISOTOPIC_ATOM_COUNT>
0

>  <PUBCHEM_COMPONENT_COUNT>
1

>  <PUBCHEM_CACTVS_TAUTO_COUNT>
986

>  <PUBCHEM_COORDINATE_TYPE>
1
5
255

>  <PUBCHEM_BONDANNOTATIONS>
23  1  3
24  2  3
27  29  8
27  32  8
29  30  8
26  3  3
30  35  8
32  38  8
34  36  8
34  39  8
35  38  8
36  41  8
39  43  8
25  4  3
41  44  8
42  45  8
42  49  8
43  44  8
45  51  8
47  50  8
47  52  8
48  50  8
48  54  8
49  53  8
28  5  3
51  55  8
52  56  8
53  55  8
54  56  8

$$$$
