131752066
 OpenBabel06101807152D

 70 71  0  0  1  0  0  0  0  0999 V2000
    6.0812   -4.3849    0.0000 O   0  0  0  0  0  0  0  0  0  0  0  0
    2.5369   -4.5801    0.0000 O   0  0  0  0  0  0  0  0  0  0  0  0
   12.6648    5.0801    0.0000 O   0  0  0  0  0  0  0  0  0  0  0  0
    5.1350   -4.0801    0.0000 C   0  0  3  0  0  0  0  0  0  0  0  0
    4.2690   -2.5801    0.0000 C   0  0  0  0  0  0  0  0  0  0  0  0
    5.1350   -3.0801    0.0000 C   0  0  0  0  0  0  0  0  0  0  0  0
    4.2690   -4.5801    0.0000 C   0  0  0  0  0  0  0  0  0  0  0  0
    3.4030   -3.0801    0.0000 C   0  0  0  0  0  0  0  0  0  0  0  0
    3.4030   -4.0801    0.0000 C   0  0  3  0  0  0  0  0  0  0  0  0
    6.0812   -2.7754    0.0000 C   0  0  0  0  0  0  0  0  0  0  0  0
    6.6648   -3.5801    0.0000 C   0  0  3  0  0  0  0  0  0  0  0  0
    5.1350   -5.0801    0.0000 C   0  0  0  0  0  0  0  0  0  0  0  0
    3.7690   -1.7141    0.0000 C   0  0  0  0  0  0  0  0  0  0  0  0
    4.7690   -1.7141    0.0000 C   0  0  0  0  0  0  0  0  0  0  0  0
    7.6648   -3.5801    0.0000 C   0  0  0  0  0  0  0  0  0  0  0  0
    8.1648   -4.4462    0.0000 C   0  0  0  0  0  0  0  0  0  0  0  0
    8.1648   -2.7141    0.0000 C   0  0  0  0  0  0  0  0  0  0  0  0
    7.6648   -1.8481    0.0000 C   0  0  0  0  0  0  0  0  0  0  0  0
    8.1648   -0.9821    0.0000 C   0  0  0  0  0  0  0  0  0  0  0  0
    7.6648   -0.1160    0.0000 C   0  0  0  0  0  0  0  0  0  0  0  0
    6.6648   -0.1160    0.0000 C   0  0  0  0  0  0  0  0  0  0  0  0
    8.1648    0.7500    0.0000 C   0  0  0  0  0  0  0  0  0  0  0  0
    7.6648    1.6160    0.0000 C   0  0  0  0  0  0  0  0  0  0  0  0
   10.6648    3.3481    0.0000 C   0  0  0  0  0  0  0  0  0  0  0  0
    9.6648    3.3481    0.0000 C   0  0  0  0  0  0  0  0  0  0  0  0
   11.1648    4.2141    0.0000 C   0  0  0  0  0  0  0  0  0  0  0  0
    8.1648    2.4820    0.0000 C   0  0  0  0  0  0  0  0  0  0  0  0
    9.1648    2.4820    0.0000 C   0  0  0  0  0  0  0  0  0  0  0  0
   12.1648    4.2141    0.0000 C   0  0  0  0  0  0  0  0  0  0  0  0
    9.1648    4.2141    0.0000 C   0  0  0  0  0  0  0  0  0  0  0  0
    3.8705   -5.0551    0.0000 H   0  0  0  0  0  0  0  0  0  0  0  0
    4.6675   -5.0551    0.0000 H   0  0  0  0  0  0  0  0  0  0  0  0
    3.1909   -2.4975    0.0000 H   0  0  0  0  0  0  0  0  0  0  0  0
    2.7924   -3.1878    0.0000 H   0  0  0  0  0  0  0  0  0  0  0  0
    3.4030   -4.7001    0.0000 H   0  0  0  0  0  0  0  0  0  0  0  0
    6.2738   -2.1861    0.0000 H   0  0  0  0  0  0  0  0  0  0  0  0
    6.9466   -4.1324    0.0000 H   0  0  0  0  0  0  0  0  0  0  0  0
    4.5150   -5.0801    0.0000 H   0  0  0  0  0  0  0  0  0  0  0  0
    5.1350   -5.7001    0.0000 H   0  0  0  0  0  0  0  0  0  0  0  0
    5.7550   -5.0801    0.0000 H   0  0  0  0  0  0  0  0  0  0  0  0
    5.3059   -2.0241    0.0000 H   0  0  0  0  0  0  0  0  0  0  0  0
    5.0790   -1.1772    0.0000 H   0  0  0  0  0  0  0  0  0  0  0  0
    4.2320   -1.4041    0.0000 H   0  0  0  0  0  0  0  0  0  0  0  0
    4.3059   -1.4041    0.0000 H   0  0  0  0  0  0  0  0  0  0  0  0
    3.4590   -1.1772    0.0000 H   0  0  0  0  0  0  0  0  0  0  0  0
    3.2320   -2.0241    0.0000 H   0  0  0  0  0  0  0  0  0  0  0  0
    2.0000   -4.2701    0.0000 H   0  0  0  0  0  0  0  0  0  0  0  0
    7.6279   -4.7562    0.0000 H   0  0  0  0  0  0  0  0  0  0  0  0
    8.4748   -4.9831    0.0000 H   0  0  0  0  0  0  0  0  0  0  0  0
    8.7018   -4.1362    0.0000 H   0  0  0  0  0  0  0  0  0  0  0  0
    8.7848   -2.7141    0.0000 H   0  0  0  0  0  0  0  0  0  0  0  0
    7.0448   -1.8481    0.0000 H   0  0  0  0  0  0  0  0  0  0  0  0
    8.7848   -0.9821    0.0000 H   0  0  0  0  0  0  0  0  0  0  0  0
    6.6648    0.5040    0.0000 H   0  0  0  0  0  0  0  0  0  0  0  0
    6.0448   -0.1160    0.0000 H   0  0  0  0  0  0  0  0  0  0  0  0
    6.6648   -0.7360    0.0000 H   0  0  0  0  0  0  0  0  0  0  0  0
    8.7848    0.7500    0.0000 H   0  0  0  0  0  0  0  0  0  0  0  0
    7.0448    1.6160    0.0000 H   0  0  0  0  0  0  0  0  0  0  0  0
   10.5572    2.7375    0.0000 H   0  0  0  0  0  0  0  0  0  0  0  0
   11.2474    3.1360    0.0000 H   0  0  0  0  0  0  0  0  0  0  0  0
   11.2725    4.8247    0.0000 H   0  0  0  0  0  0  0  0  0  0  0  0
   10.5822    4.4262    0.0000 H   0  0  0  0  0  0  0  0  0  0  0  0
    7.8548    3.0190    0.0000 H   0  0  0  0  0  0  0  0  0  0  0  0
    9.4748    1.9451    0.0000 H   0  0  0  0  0  0  0  0  0  0  0  0
   12.0572    3.6035    0.0000 H   0  0  0  0  0  0  0  0  0  0  0  0
   12.7474    4.0020    0.0000 H   0  0  0  0  0  0  0  0  0  0  0  0
    9.7018    4.5241    0.0000 H   0  0  0  0  0  0  0  0  0  0  0  0
    8.8548    4.7510    0.0000 H   0  0  0  0  0  0  0  0  0  0  0  0
    8.6279    3.9041    0.0000 H   0  0  0  0  0  0  0  0  0  0  0  0
   13.2848    5.0801    0.0000 H   0  0  0  0  0  0  0  0  0  0  0  0
  1  4  1  0  0  0  0
  1 11  1  0  0  0  0
  2  9  1  0  0  0  0
  2 47  1  0  0  0  0
  3 29  1  0  0  0  0
  3 70  1  0  0  0  0
  4  6  1  0  0  0  0
  4  7  1  0  0  0  0
  4 12  1  0  0  0  0
  5  6  1  0  0  0  0
  5  8  1  0  0  0  0
  5 13  1  0  0  0  0
  5 14  1  0  0  0  0
  6 10  2  0  0  0  0
  7  9  1  0  0  0  0
  7 31  1  0  0  0  0
  7 32  1  0  0  0  0
  8  9  1  0  0  0  0
  8 33  1  0  0  0  0
  8 34  1  0  0  0  0
  9 35  1  0  0  0  0
 10 11  1  0  0  0  0
 10 36  1  0  0  0  0
 11 15  1  0  0  0  0
 11 37  1  0  0  0  0
 12 38  1  0  0  0  0
 12 39  1  0  0  0  0
 12 40  1  0  0  0  0
 13 44  1  0  0  0  0
 13 45  1  0  0  0  0
 13 46  1  0  0  0  0
 14 41  1  0  0  0  0
 14 42  1  0  0  0  0
 14 43  1  0  0  0  0
 15 16  1  0  0  0  0
 15 17  2  0  0  0  0
 16 48  1  0  0  0  0
 16 49  1  0  0  0  0
 16 50  1  0  0  0  0
 17 18  1  0  0  0  0
 17 51  1  0  0  0  0
 18 19  2  0  0  0  0
 18 52  1  0  0  0  0
 19 20  1  0  0  0  0
 19 53  1  0  0  0  0
 20 21  1  0  0  0  0
 20 22  2  0  0  0  0
 21 54  1  0  0  0  0
 21 55  1  0  0  0  0
 21 56  1  0  0  0  0
 22 23  1  0  0  0  0
 22 57  1  0  0  0  0
 23 27  2  0  0  0  0
 23 58  1  0  0  0  0
 24 25  1  0  0  0  0
 24 26  1  0  0  0  0
 24 59  1  0  0  0  0
 24 60  1  0  0  0  0
 25 28  2  0  0  0  0
 25 30  1  0  0  0  0
 26 29  1  0  0  0  0
 26 61  1  0  0  0  0
 26 62  1  0  0  0  0
 27 28  1  0  0  0  0
 27 63  1  0  0  0  0
 28 64  1  0  0  0  0
 29 65  1  0  0  0  0
 29 66  1  0  0  0  0
 30 67  1  0  0  0  0
 30 68  1  0  0  0  0
 30 69  1  0  0  0  0
M  END
>  <PUBCHEM_COMPOUND_CID>
131752066

>  <PUBCHEM_COMPOUND_CANONICALIZED>
1

>  <PUBCHEM_CACTVS_COMPLEXITY>
776

>  <PUBCHEM_CACTVS_HBOND_ACCEPTOR>
3

>  <PUBCHEM_CACTVS_HBOND_DONOR>
2

>  <PUBCHEM_CACTVS_ROTATABLE_BOND>
8

>  <PUBCHEM_CACTVS_SUBSKEYS>
AAADcfB4MAAAAAAAAAAAAAAAAAAAAQAAAAAwAAAAAAAAAEAAAAAAGgAACAAADlSggAICAAAABgCAAiBCAAAAAAAgAAAICAAAAAgIFAIAIQACUAAFgAAIoAOA4FwPAAAAAAAAAAAAAAYQAAAAAAAAAAAAAA==

>  <PUBCHEM_IUPAC_OPENEYE_NAME>
2-[(1Z,3E,5E,7Z,9E)-13-hydroxy-1,5,10-trimethyl-trideca-1,3,5,7,9-pentaenyl]-4,4,7a-trimethyl-2,5,6,7-tetrahydrobenzofuran-6-ol

>  <PUBCHEM_IUPAC_CAS_NAME>
2-[(2Z,4E,6E,8Z,10E)-14-hydroxy-6,11-dimethyltetradeca-2,4,6,8,10-pentaen-2-yl]-4,4,7a-trimethyl-2,5,6,7-tetrahydrobenzofuran-6-ol

>  <PUBCHEM_IUPAC_NAME>
2-[(2Z,4E,6E,8Z,10E)-14-hydroxy-6,11-dimethyltetradeca-2,4,6,8,10-pentaen-2-yl]-4,4,7a-trimethyl-2,5,6,7-tetrahydro-1-benzofuran-6-ol

>  <PUBCHEM_IUPAC_SYSTEMATIC_NAME>
2-[(2Z,4E,6E,8Z,10E)-6,11-dimethyl-14-oxidanyl-tetradeca-2,4,6,8,10-pentaen-2-yl]-4,4,7a-trimethyl-2,5,6,7-tetrahydro-1-benzofuran-6-ol

>  <PUBCHEM_IUPAC_TRADITIONAL_NAME>
2-[(1Z,3E,5E,7Z,9E)-13-hydroxy-1,5,10-trimethyl-trideca-1,3,5,7,9-pentaenyl]-4,4,7a-trimethyl-2,5,6,7-tetrahydrobenzofuran-6-ol

>  <PUBCHEM_IUPAC_INCHI>
InChI=1S/C27H40O3/c1-20(11-7-8-12-21(2)14-10-16-28)13-9-15-22(3)24-17-25-26(4,5)18-23(29)19-27(25,6)30-24/h7-9,11-13,15,17,23-24,28-29H,10,14,16,18-19H2,1-6H3/b8-7-,13-9+,20-11+,21-12+,22-15-

>  <PUBCHEM_IUPAC_INCHIKEY>
SMTGOURXPBLNQN-IOCJBXAWSA-N

>  <PUBCHEM_EXACT_MASS>
412.298

>  <PUBCHEM_MOLECULAR_FORMULA>
C27H40O3

>  <PUBCHEM_MOLECULAR_WEIGHT>
412.614

>  <PUBCHEM_OPENEYE_CAN_SMILES>
CC(=CC=CC=C(C)C=CC=C(C)C1C=C2C(CC(CC2(O1)C)O)(C)C)CCCO

>  <PUBCHEM_OPENEYE_ISO_SMILES>
C/C(=C\C=C/C=C(\C)/C=C/C=C(/C)\C1C=C2C(CC(CC2(O1)C)O)(C)C)/CCCO

>  <PUBCHEM_CACTVS_TPSA>
49.7

>  <PUBCHEM_MONOISOTOPIC_WEIGHT>
412.298

>  <PUBCHEM_TOTAL_CHARGE>
0

>  <PUBCHEM_HEAVY_ATOM_COUNT>
30

>  <PUBCHEM_ATOM_DEF_STEREO_COUNT>
0

>  <PUBCHEM_ATOM_UDEF_STEREO_COUNT>
3

>  <PUBCHEM_BOND_DEF_STEREO_COUNT>
5

>  <PUBCHEM_BOND_UDEF_STEREO_COUNT>
0

>  <PUBCHEM_ISOTOPIC_ATOM_COUNT>
0

>  <PUBCHEM_COMPONENT_COUNT>
1

>  <PUBCHEM_CACTVS_TAUTO_COUNT>
13

>  <PUBCHEM_COORDINATE_TYPE>
1
5
255

>  <PUBCHEM_BONDANNOTATIONS>
11  15  3
9  2  3
4  12  3

$$$$
