131836651
 OpenBabel06101807152D

 40 42  0  0  1  0  0  0  0  0999 V2000
    6.0682   -0.4254    0.0000 O   0  0  0  0  0  0  0  0  0  0  0  0
    7.8003    1.5746    0.0000 O   0  0  0  0  0  0  0  0  0  0  0  0
    6.0682    2.5746    0.0000 O   0  0  0  0  0  0  0  0  0  0  0  0
    4.3198   -1.4600    0.0000 O   0  0  0  0  0  0  0  0  0  0  0  0
    4.3198    2.6092    0.0000 O   0  0  0  0  0  0  0  0  0  0  0  0
    2.5381   -0.4495    0.0000 O   0  0  0  0  0  0  0  0  0  0  0  0
   10.3984   -1.9254    0.0000 O   0  0  0  0  0  0  0  0  0  0  0  0
    6.9343    0.0746    0.0000 C   0  0  3  0  0  0  0  0  0  0  0  0
    6.9343    1.0746    0.0000 C   0  0  3  0  0  0  0  0  0  0  0  0
    5.2022    1.0746    0.0000 C   0  0  0  0  0  0  0  0  0  0  0  0
    7.8003   -0.4254    0.0000 C   0  0  0  0  0  0  0  0  0  0  0  0
    6.0682    1.5746    0.0000 C   0  0  0  0  0  0  0  0  0  0  0  0
    5.2022    0.0746    0.0000 C   0  0  0  0  0  0  0  0  0  0  0  0
    4.3083   -0.4601    0.0000 C   0  0  0  0  0  0  0  0  0  0  0  0
    4.3083    1.6093    0.0000 C   0  0  0  0  0  0  0  0  0  0  0  0
    8.6663    0.0746    0.0000 C   0  0  0  0  0  0  0  0  0  0  0  0
    7.8003   -1.4254    0.0000 C   0  0  0  0  0  0  0  0  0  0  0  0
    3.4022    0.0538    0.0000 C   0  0  0  0  0  0  0  0  0  0  0  0
    3.4022    1.0954    0.0000 C   0  0  0  0  0  0  0  0  0  0  0  0
    9.5323   -0.4254    0.0000 C   0  0  0  0  0  0  0  0  0  0  0  0
    8.6663   -1.9254    0.0000 C   0  0  0  0  0  0  0  0  0  0  0  0
    9.5323   -1.4254    0.0000 C   0  0  0  0  0  0  0  0  0  0  0  0
    3.4597   -1.9700    0.0000 C   0  0  0  0  0  0  0  0  0  0  0  0
   10.3984   -2.9254    0.0000 C   0  0  0  0  0  0  0  0  0  0  0  0
    6.9343   -0.5454    0.0000 H   0  0  0  0  0  0  0  0  0  0  0  0
    6.9343    1.6946    0.0000 H   0  0  0  0  0  0  0  0  0  0  0  0
    8.6663    0.6946    0.0000 H   0  0  0  0  0  0  0  0  0  0  0  0
    7.2634   -1.7354    0.0000 H   0  0  0  0  0  0  0  0  0  0  0  0
    7.8003    2.1946    0.0000 H   0  0  0  0  0  0  0  0  0  0  0  0
    2.8665    1.4075    0.0000 H   0  0  0  0  0  0  0  0  0  0  0  0
   10.0693   -0.1154    0.0000 H   0  0  0  0  0  0  0  0  0  0  0  0
    8.6663   -2.5454    0.0000 H   0  0  0  0  0  0  0  0  0  0  0  0
    3.7865    2.9254    0.0000 H   0  0  0  0  0  0  0  0  0  0  0  0
    2.0000   -0.1416    0.0000 H   0  0  0  0  0  0  0  0  0  0  0  0
    3.1435   -1.4366    0.0000 H   0  0  0  0  0  0  0  0  0  0  0  0
    2.9263   -2.2862    0.0000 H   0  0  0  0  0  0  0  0  0  0  0  0
    3.7758   -2.5033    0.0000 H   0  0  0  0  0  0  0  0  0  0  0  0
    9.7784   -2.9254    0.0000 H   0  0  0  0  0  0  0  0  0  0  0  0
   10.3984   -3.5454    0.0000 H   0  0  0  0  0  0  0  0  0  0  0  0
   11.0184   -2.9254    0.0000 H   0  0  0  0  0  0  0  0  0  0  0  0
  1  8  1  0  0  0  0
  1 13  1  0  0  0  0
  2  9  1  0  0  0  0
  2 29  1  0  0  0  0
  3 12  2  0  0  0  0
  4 14  1  0  0  0  0
  4 23  1  0  0  0  0
  5 15  1  0  0  0  0
  5 33  1  0  0  0  0
  6 18  1  0  0  0  0
  6 34  1  0  0  0  0
  7 22  1  0  0  0  0
  7 24  1  0  0  0  0
  8  9  1  0  0  0  0
  8 11  1  0  0  0  0
  8 25  1  0  0  0  0
  9 12  1  0  0  0  0
  9 26  1  0  0  0  0
 10 12  1  0  0  0  0
 10 13  2  0  0  0  0
 10 15  1  0  0  0  0
 11 16  2  0  0  0  0
 11 17  1  0  0  0  0
 13 14  1  0  0  0  0
 14 18  2  0  0  0  0
 15 19  2  0  0  0  0
 16 20  1  0  0  0  0
 16 27  1  0  0  0  0
 17 21  2  0  0  0  0
 17 28  1  0  0  0  0
 18 19  1  0  0  0  0
 19 30  1  0  0  0  0
 20 22  2  0  0  0  0
 20 31  1  0  0  0  0
 21 22  1  0  0  0  0
 21 32  1  0  0  0  0
 23 35  1  0  0  0  0
 23 36  1  0  0  0  0
 23 37  1  0  0  0  0
 24 38  1  0  0  0  0
 24 39  1  0  0  0  0
 24 40  1  0  0  0  0
M  END
>  <PUBCHEM_COMPOUND_CID>
131836651

>  <PUBCHEM_COMPOUND_CANONICALIZED>
1

>  <PUBCHEM_CACTVS_COMPLEXITY>
448

>  <PUBCHEM_CACTVS_HBOND_ACCEPTOR>
7

>  <PUBCHEM_CACTVS_HBOND_DONOR>
3

>  <PUBCHEM_CACTVS_ROTATABLE_BOND>
3

>  <PUBCHEM_CACTVS_SUBSKEYS>
AAADceB4OAAAAAAAAAAAAAAAAAAAAAAAAAA0YIAAAAAAAACRQAAAGgAACAAADBSgmAIyBoAABgCIAqBSAAICCAAkIAAIiAFGiMgNNzaGNRqCeWOl4BULuQfK7PzOIQABCAAIQABCAAIQABCAAAAAAAAAAA==

>  <PUBCHEM_IUPAC_OPENEYE_NAME>
3,5,7-trihydroxy-8-methoxy-2-(4-methoxyphenyl)chroman-4-one

>  <PUBCHEM_IUPAC_CAS_NAME>
3,5,7-trihydroxy-8-methoxy-2-(4-methoxyphenyl)-3,4-dihydro-2H-1-benzopyran-4-one

>  <PUBCHEM_IUPAC_NAME>
3,5,7-trihydroxy-8-methoxy-2-(4-methoxyphenyl)-2,3-dihydrochromen-4-one

>  <PUBCHEM_IUPAC_SYSTEMATIC_NAME>
8-methoxy-2-(4-methoxyphenyl)-3,5,7-tris(oxidanyl)-2,3-dihydrochromen-4-one

>  <PUBCHEM_IUPAC_TRADITIONAL_NAME>
3,5,7-trihydroxy-8-methoxy-2-(4-methoxyphenyl)chroman-4-one

>  <PUBCHEM_IUPAC_INCHI>
InChI=1S/C17H16O7/c1-22-9-5-3-8(4-6-9)15-14(21)13(20)12-10(18)7-11(19)16(23-2)17(12)24-15/h3-7,14-15,18-19,21H,1-2H3

>  <PUBCHEM_IUPAC_INCHIKEY>
KALYBGCOEHEKGT-UHFFFAOYSA-N

>  <PUBCHEM_XLOGP3_AA>
2.1

>  <PUBCHEM_EXACT_MASS>
332.09

>  <PUBCHEM_MOLECULAR_FORMULA>
C17H16O7

>  <PUBCHEM_MOLECULAR_WEIGHT>
332.308

>  <PUBCHEM_OPENEYE_CAN_SMILES>
COC1=CC=C(C=C1)C2C(C(=O)C3=C(O2)C(=C(C=C3O)O)OC)O

>  <PUBCHEM_OPENEYE_ISO_SMILES>
COC1=CC=C(C=C1)C2C(C(=O)C3=C(O2)C(=C(C=C3O)O)OC)O

>  <PUBCHEM_CACTVS_TPSA>
105

>  <PUBCHEM_MONOISOTOPIC_WEIGHT>
332.09

>  <PUBCHEM_TOTAL_CHARGE>
0

>  <PUBCHEM_HEAVY_ATOM_COUNT>
24

>  <PUBCHEM_ATOM_DEF_STEREO_COUNT>
0

>  <PUBCHEM_ATOM_UDEF_STEREO_COUNT>
2

>  <PUBCHEM_BOND_DEF_STEREO_COUNT>
0

>  <PUBCHEM_BOND_UDEF_STEREO_COUNT>
0

>  <PUBCHEM_ISOTOPIC_ATOM_COUNT>
0

>  <PUBCHEM_COMPONENT_COUNT>
1

>  <PUBCHEM_CACTVS_TAUTO_COUNT>
39

>  <PUBCHEM_COORDINATE_TYPE>
1
5
255

>  <PUBCHEM_BONDANNOTATIONS>
10  13  8
10  15  8
11  16  8
11  17  8
13  14  8
14  18  8
15  19  8
16  20  8
17  21  8
18  19  8
9  2  3
20  22  8
21  22  8
8  11  3

$$$$
