13647408
 OpenBabel06101807152D

 73 77  0  0  1  0  0  0  0  0999 V2000
    5.1459   -3.1913    0.0000 O   0  0  0  0  0  0  0  0  0  0  0  0
    5.1396    3.8813    0.0000 O   0  0  0  0  0  0  0  0  0  0  0  0
    6.8779   -3.1913    0.0000 O   0  0  0  0  0  0  0  0  0  0  0  0
    5.9998    2.3780    0.0000 O   0  0  0  0  0  0  0  0  0  0  0  0
    5.1459   -6.1913    0.0000 O   0  0  0  0  0  0  0  0  0  0  0  0
    3.4138   -5.1913    0.0000 O   0  0  0  0  0  0  0  0  0  0  0  0
    2.5357    2.3913    0.0000 O   0  0  0  0  0  0  0  0  0  0  0  0
    2.5434    4.3913    0.0000 O   0  0  0  0  0  0  0  0  0  0  0  0
    6.8779   -5.1913    0.0000 O   0  0  0  0  0  0  0  0  0  0  0  0
    4.2639    1.3847    0.0000 O   0  0  0  0  0  0  0  0  0  0  0  0
    2.5478   -3.6913    0.0000 O   0  0  0  0  0  0  0  0  0  0  0  0
    5.1473    5.8813    0.0000 O   0  0  0  0  0  0  0  0  0  0  0  0
    7.7440   -0.6913    0.0000 O   0  0  0  0  0  0  0  0  0  0  0  0
    5.1459   -2.1913    0.0000 O   0  0  0  0  0  0  0  0  0  0  0  0
    4.2417   -0.6944    0.0000 O   0  0  0  0  0  0  0  0  0  0  0  0
   11.2081   -3.6913    0.0000 O   0  0  0  0  0  0  0  0  0  0  0  0
    5.1459   -5.1913    0.0000 C   0  0  3  0  0  0  0  0  0  0  0  0
    4.2799   -4.6913    0.0000 C   0  0  3  0  0  0  0  0  0  0  0  0
    3.4037    2.8880    0.0000 C   0  0  3  0  0  0  0  0  0  0  0  0
    3.4075    3.8880    0.0000 C   0  0  3  0  0  0  0  0  0  0  0  0
    6.0119   -4.6913    0.0000 C   0  0  3  0  0  0  0  0  0  0  0  0
    4.2799   -3.6913    0.0000 C   0  0  3  0  0  0  0  0  0  0  0  0
    4.2678    2.3846    0.0000 C   0  0  3  0  0  0  0  0  0  0  0  0
    4.2755    4.3846    0.0000 C   0  0  3  0  0  0  0  0  0  0  0  0
    6.0119   -3.6913    0.0000 C   0  0  3  0  0  0  0  0  0  0  0  0
    5.1357    2.8813    0.0000 C   0  0  3  0  0  0  0  0  0  0  0  0
    3.4138   -3.1913    0.0000 C   0  0  0  0  0  0  0  0  0  0  0  0
    4.2793    5.3846    0.0000 C   0  0  0  0  0  0  0  0  0  0  0  0
    6.8779   -2.1913    0.0000 C   0  0  0  0  0  0  0  0  0  0  0  0
    5.9960    1.3780    0.0000 C   0  0  0  0  0  0  0  0  0  0  0  0
    6.0119   -0.6913    0.0000 C   0  0  0  0  0  0  0  0  0  0  0  0
    6.0119   -1.6913    0.0000 C   0  0  0  0  0  0  0  0  0  0  0  0
    7.7440   -1.6913    0.0000 C   0  0  0  0  0  0  0  0  0  0  0  0
    6.8779   -0.1913    0.0000 C   0  0  0  0  0  0  0  0  0  0  0  0
    6.8940    0.8502    0.0000 C   0  0  0  0  0  0  0  0  0  0  0  0
    5.0939    0.8572    0.0000 C   0  0  0  0  0  0  0  0  0  0  0  0
    5.1019   -0.1844    0.0000 C   0  0  0  0  0  0  0  0  0  0  0  0
    8.6100   -2.1913    0.0000 C   0  0  0  0  0  0  0  0  0  0  0  0
    9.4760   -1.6913    0.0000 C   0  0  0  0  0  0  0  0  0  0  0  0
    8.6100   -3.1913    0.0000 C   0  0  0  0  0  0  0  0  0  0  0  0
   10.3420   -2.1913    0.0000 C   0  0  0  0  0  0  0  0  0  0  0  0
    9.4760   -3.6913    0.0000 C   0  0  0  0  0  0  0  0  0  0  0  0
   10.3420   -3.1913    0.0000 C   0  0  0  0  0  0  0  0  0  0  0  0
    5.6828   -5.5013    0.0000 H   0  0  0  0  0  0  0  0  0  0  0  0
    3.7429   -4.3813    0.0000 H   0  0  0  0  0  0  0  0  0  0  0  0
    3.4013    2.2680    0.0000 H   0  0  0  0  0  0  0  0  0  0  0  0
    2.8694    3.5800    0.0000 H   0  0  0  0  0  0  0  0  0  0  0  0
    6.5488   -4.3813    0.0000 H   0  0  0  0  0  0  0  0  0  0  0  0
    4.2799   -3.0713    0.0000 H   0  0  0  0  0  0  0  0  0  0  0  0
    4.8035    2.0726    0.0000 H   0  0  0  0  0  0  0  0  0  0  0  0
    4.8136    4.6926    0.0000 H   0  0  0  0  0  0  0  0  0  0  0  0
    6.0119   -3.0713    0.0000 H   0  0  0  0  0  0  0  0  0  0  0  0
    5.6738    3.1892    0.0000 H   0  0  0  0  0  0  0  0  0  0  0  0
    3.8124   -2.7163    0.0000 H   0  0  0  0  0  0  0  0  0  0  0  0
    3.0153   -2.7163    0.0000 H   0  0  0  0  0  0  0  0  0  0  0  0
    4.0695    5.9680    0.0000 H   0  0  0  0  0  0  0  0  0  0  0  0
    3.6684    5.2793    0.0000 H   0  0  0  0  0  0  0  0  0  0  0  0
    4.6090   -6.5013    0.0000 H   0  0  0  0  0  0  0  0  0  0  0  0
    3.4138   -5.8113    0.0000 H   0  0  0  0  0  0  0  0  0  0  0  0
    2.0000    2.7034    0.0000 H   0  0  0  0  0  0  0  0  0  0  0  0
    2.5458    5.0113    0.0000 H   0  0  0  0  0  0  0  0  0  0  0  0
    6.8779   -5.8113    0.0000 H   0  0  0  0  0  0  0  0  0  0  0  0
    3.7258    1.0767    0.0000 H   0  0  0  0  0  0  0  0  0  0  0  0
    7.4345    1.1540    0.0000 H   0  0  0  0  0  0  0  0  0  0  0  0
    2.0109   -3.3813    0.0000 H   0  0  0  0  0  0  0  0  0  0  0  0
    5.1497    6.5013    0.0000 H   0  0  0  0  0  0  0  0  0  0  0  0
    4.5558    1.1651    0.0000 H   0  0  0  0  0  0  0  0  0  0  0  0
    9.4760   -1.0713    0.0000 H   0  0  0  0  0  0  0  0  0  0  0  0
    8.0730   -3.5013    0.0000 H   0  0  0  0  0  0  0  0  0  0  0  0
    3.7012   -0.3906    0.0000 H   0  0  0  0  0  0  0  0  0  0  0  0
   10.8790   -1.8813    0.0000 H   0  0  0  0  0  0  0  0  0  0  0  0
    9.4760   -4.3113    0.0000 H   0  0  0  0  0  0  0  0  0  0  0  0
   11.2081   -4.3113    0.0000 H   0  0  0  0  0  0  0  0  0  0  0  0
  1 22  1  0  0  0  0
  1 25  1  0  0  0  0
  2 24  1  0  0  0  0
  2 26  1  0  0  0  0
  3 25  1  0  0  0  0
  3 29  1  0  0  0  0
  4 26  1  0  0  0  0
  4 30  1  0  0  0  0
  5 17  1  0  0  0  0
  5 58  1  0  0  0  0
  6 18  1  0  0  0  0
  6 59  1  0  0  0  0
  7 19  1  0  0  0  0
  7 60  1  0  0  0  0
  8 20  1  0  0  0  0
  8 61  1  0  0  0  0
  9 21  1  0  0  0  0
  9 62  1  0  0  0  0
 10 23  1  0  0  0  0
 10 63  1  0  0  0  0
 11 27  1  0  0  0  0
 11 65  1  0  0  0  0
 12 28  1  0  0  0  0
 12 66  1  0  0  0  0
 13 33  1  0  0  0  0
 13 34  1  0  0  0  0
 14 32  2  0  0  0  0
 15 37  1  0  0  0  0
 15 70  1  0  0  0  0
 16 43  1  0  0  0  0
 16 73  1  0  0  0  0
 17 18  1  0  0  0  0
 17 21  1  0  0  0  0
 17 44  1  0  0  0  0
 18 22  1  0  0  0  0
 18 45  1  0  0  0  0
 19 20  1  0  0  0  0
 19 23  1  0  0  0  0
 19 46  1  0  0  0  0
 20 24  1  0  0  0  0
 20 47  1  0  0  0  0
 21 25  1  0  0  0  0
 21 48  1  0  0  0  0
 22 27  1  0  0  0  0
 22 49  1  0  0  0  0
 23 26  1  0  0  0  0
 23 50  1  0  0  0  0
 24 28  1  0  0  0  0
 24 51  1  0  0  0  0
 25 52  1  0  0  0  0
 26 53  1  0  0  0  0
 27 54  1  0  0  0  0
 27 55  1  0  0  0  0
 28 56  1  0  0  0  0
 28 57  1  0  0  0  0
 29 32  1  0  0  0  0
 29 33  2  0  0  0  0
 30 35  1  0  0  0  0
 30 36  2  0  0  0  0
 31 32  1  0  0  0  0
 31 34  1  0  0  0  0
 31 37  2  0  0  0  0
 33 38  1  0  0  0  0
 34 35  2  0  0  0  0
 35 64  1  0  0  0  0
 36 37  1  0  0  0  0
 36 67  1  0  0  0  0
 38 39  2  0  0  0  0
 38 40  1  0  0  0  0
 39 41  1  0  0  0  0
 39 68  1  0  0  0  0
 40 42  2  0  0  0  0
 40 69  1  0  0  0  0
 41 43  2  0  0  0  0
 41 71  1  0  0  0  0
 42 43  1  0  0  0  0
 42 72  1  0  0  0  0
M  END
>  <PUBCHEM_COMPOUND_CID>
13647408

>  <PUBCHEM_COMPOUND_CANONICALIZED>
1

>  <PUBCHEM_CACTVS_COMPLEXITY>
1000

>  <PUBCHEM_CACTVS_HBOND_ACCEPTOR>
16

>  <PUBCHEM_CACTVS_HBOND_DONOR>
10

>  <PUBCHEM_CACTVS_ROTATABLE_BOND>
7

>  <PUBCHEM_CACTVS_SUBSKEYS>
AAADceB4PgAAAAAAAAAAAAAAAAAAAAAAAAA0aIECAAAAAACBQAAAGgAACAAADBSwmAMwDoAABgCIAqBSAAICCAAkIAAIiAFGCMgdNzaGNR6ieWCl4BUPuQfI7KzOIAAACAAIAABAAAAQABAAAAAAAAAAAA==

>  <PUBCHEM_IUPAC_OPENEYE_NAME>
5-hydroxy-2-(4-hydroxyphenyl)-3,7-bis[[3,4,5-trihydroxy-6-(hydroxymethyl)tetrahydropyran-2-yl]oxy]chromen-4-one

>  <PUBCHEM_IUPAC_CAS_NAME>
5-hydroxy-2-(4-hydroxyphenyl)-3,7-bis[[3,4,5-trihydroxy-6-(hydroxymethyl)-2-oxanyl]oxy]-1-benzopyran-4-one

>  <PUBCHEM_IUPAC_NAME>
5-hydroxy-2-(4-hydroxyphenyl)-3,7-bis[[3,4,5-trihydroxy-6-(hydroxymethyl)oxan-2-yl]oxy]chromen-4-one

>  <PUBCHEM_IUPAC_SYSTEMATIC_NAME>
3,7-bis[[6-(hydroxymethyl)-3,4,5-tris(oxidanyl)oxan-2-yl]oxy]-2-(4-hydroxyphenyl)-5-oxidanyl-chromen-4-one

>  <PUBCHEM_IUPAC_TRADITIONAL_NAME>
5-hydroxy-2-(4-hydroxyphenyl)-3,7-bis[(3,4,5-trihydroxy-6-methylol-tetrahydropyran-2-yl)oxy]chromone

>  <PUBCHEM_IUPAC_INCHI>
InChI=1S/C27H30O16/c28-7-14-17(32)20(35)22(37)26(41-14)39-11-5-12(31)16-13(6-11)40-24(9-1-3-10(30)4-2-9)25(19(16)34)43-27-23(38)21(36)18(33)15(8-29)42-27/h1-6,14-15,17-18,20-23,26-33,35-38H,7-8H2

>  <PUBCHEM_IUPAC_INCHIKEY>
XFFQVRFGLSBFON-UHFFFAOYSA-N

>  <PUBCHEM_XLOGP3_AA>
-1.1

>  <PUBCHEM_EXACT_MASS>
610.153

>  <PUBCHEM_MOLECULAR_FORMULA>
C27H30O16

>  <PUBCHEM_MOLECULAR_WEIGHT>
610.521

>  <PUBCHEM_OPENEYE_CAN_SMILES>
C1=CC(=CC=C1C2=C(C(=O)C3=C(C=C(C=C3O2)OC4C(C(C(C(O4)CO)O)O)O)O)OC5C(C(C(C(O5)CO)O)O)O)O

>  <PUBCHEM_OPENEYE_ISO_SMILES>
C1=CC(=CC=C1C2=C(C(=O)C3=C(C=C(C=C3O2)OC4C(C(C(C(O4)CO)O)O)O)O)OC5C(C(C(C(O5)CO)O)O)O)O

>  <PUBCHEM_CACTVS_TPSA>
266

>  <PUBCHEM_MONOISOTOPIC_WEIGHT>
610.153

>  <PUBCHEM_TOTAL_CHARGE>
0

>  <PUBCHEM_HEAVY_ATOM_COUNT>
43

>  <PUBCHEM_ATOM_DEF_STEREO_COUNT>
0

>  <PUBCHEM_ATOM_UDEF_STEREO_COUNT>
10

>  <PUBCHEM_BOND_DEF_STEREO_COUNT>
0

>  <PUBCHEM_BOND_UDEF_STEREO_COUNT>
0

>  <PUBCHEM_ISOTOPIC_ATOM_COUNT>
0

>  <PUBCHEM_COMPONENT_COUNT>
1

>  <PUBCHEM_CACTVS_TAUTO_COUNT>
24

>  <PUBCHEM_COORDINATE_TYPE>
1
5
255

>  <PUBCHEM_BONDANNOTATIONS>
23  10  3
13  33  8
13  34  8
22  27  3
24  28  3
29  32  8
29  33  8
25  3  3
30  35  8
30  36  8
31  32  8
31  34  8
31  37  8
34  35  8
36  37  8
38  39  8
38  40  8
39  41  8
26  4  3
40  42  8
41  43  8
42  43  8
17  5  3
18  6  3
19  7  3
20  8  3
21  9  3

$$$$
