13779265
 OpenBabel06101807152D

 23 24  0  0  0  0  0  0  0  0999 V2000
    4.5032    0.7802    0.0000 S   0  0  0  0  0  0  0  0  0  0  0  0
    6.5723    0.1080    0.0000 S   0  0  0  0  0  0  0  0  0  0  0  0
    2.0000    1.7282    0.0000 O   0  0  0  0  0  0  0  0  0  0  0  0
    5.3122    1.3680    0.0000 C   0  0  0  0  0  0  0  0  0  0  0  0
    6.2633    1.0590    0.0000 C   0  0  0  0  0  0  0  0  0  0  0  0
    5.0032    2.3191    0.0000 C   0  0  0  0  0  0  0  0  0  0  0  0
    7.0723    1.6468    0.0000 C   0  0  0  0  0  0  0  0  0  0  0  0
    3.6942    1.3680    0.0000 C   0  0  0  0  0  0  0  0  0  0  0  0
    4.0032    2.3191    0.0000 C   0  0  0  0  0  0  0  0  0  0  0  0
    7.8813    1.0590    0.0000 C   0  0  0  0  0  0  0  0  0  0  0  0
    7.5723    0.1080    0.0000 C   0  0  0  0  0  0  0  0  0  0  0  0
    2.7431    1.0590    0.0000 C   0  0  0  0  0  0  0  0  0  0  0  0
    8.1601   -0.7011    0.0000 C   0  0  0  0  0  0  0  0  0  0  0  0
    8.7479   -1.5101    0.0000 C   0  0  0  0  0  0  0  0  0  0  0  0
    9.3357   -2.3191    0.0000 C   0  0  0  0  0  0  0  0  0  0  0  0
    5.3676    2.8207    0.0000 H   0  0  0  0  0  0  0  0  0  0  0  0
    7.0723    2.2668    0.0000 H   0  0  0  0  0  0  0  0  0  0  0  0
    3.6388    2.8207    0.0000 H   0  0  0  0  0  0  0  0  0  0  0  0
    8.4710    1.2506    0.0000 H   0  0  0  0  0  0  0  0  0  0  0  0
    2.6142    0.4526    0.0000 H   0  0  0  0  0  0  0  0  0  0  0  0
    8.8341   -2.6835    0.0000 H   0  0  0  0  0  0  0  0  0  0  0  0
    9.7001   -2.8207    0.0000 H   0  0  0  0  0  0  0  0  0  0  0  0
    9.8373   -1.9547    0.0000 H   0  0  0  0  0  0  0  0  0  0  0  0
  1  4  1  0  0  0  0
  1  8  1  0  0  0  0
  2  5  1  0  0  0  0
  2 11  1  0  0  0  0
  3 12  2  0  0  0  0
  4  5  1  0  0  0  0
  4  6  2  0  0  0  0
  5  7  2  0  0  0  0
  6  9  1  0  0  0  0
  6 16  1  0  0  0  0
  7 10  1  0  0  0  0
  7 17  1  0  0  0  0
  8  9  2  0  0  0  0
  8 12  1  0  0  0  0
  9 18  1  0  0  0  0
 10 11  2  0  0  0  0
 10 19  1  0  0  0  0
 11 13  1  0  0  0  0
 12 20  1  0  0  0  0
 13 14  3  0  0  0  0
 14 15  1  0  0  0  0
 15 21  1  0  0  0  0
 15 22  1  0  0  0  0
 15 23  1  0  0  0  0
M  END
>  <PUBCHEM_COMPOUND_CID>
13779265

>  <PUBCHEM_COMPOUND_CANONICALIZED>
1

>  <PUBCHEM_CACTVS_COMPLEXITY>
301

>  <PUBCHEM_CACTVS_HBOND_ACCEPTOR>
3

>  <PUBCHEM_CACTVS_HBOND_DONOR>
0

>  <PUBCHEM_CACTVS_ROTATABLE_BOND>
3

>  <PUBCHEM_CACTVS_SUBSKEYS>
AAADccBwIABgAAAAAAAAAAAAAAAAASJAAAAAAAAAAAAAAAAB4AAAGgQAAAAACACg0AIyAYAAAAjMEChSgAgDAIAkCBBIiBkAAMgIIDKgFRCAIQAggAAoiYcIiICAAAAAAAAAAAAAAAAAAAAAAAAAAAAAAA==

>  <PUBCHEM_IUPAC_OPENEYE_NAME>
5-(5-prop-1-ynyl-2-thienyl)thiophene-2-carbaldehyde

>  <PUBCHEM_IUPAC_CAS_NAME>
5-(5-prop-1-ynyl-2-thiophenyl)-2-thiophenecarboxaldehyde

>  <PUBCHEM_IUPAC_NAME>
5-(5-prop-1-ynylthiophen-2-yl)thiophene-2-carbaldehyde

>  <PUBCHEM_IUPAC_SYSTEMATIC_NAME>
5-(5-prop-1-ynylthiophen-2-yl)thiophene-2-carbaldehyde

>  <PUBCHEM_IUPAC_TRADITIONAL_NAME>
5-(5-prop-1-ynyl-2-thienyl)thiophene-2-carbaldehyde

>  <PUBCHEM_IUPAC_INCHI>
InChI=1S/C12H8OS2/c1-2-3-9-4-6-11(14-9)12-7-5-10(8-13)15-12/h4-8H,1H3

>  <PUBCHEM_IUPAC_INCHIKEY>
ZEAXBOPUTILUGH-UHFFFAOYSA-N

>  <PUBCHEM_XLOGP3_AA>
3.6

>  <PUBCHEM_EXACT_MASS>
232.002

>  <PUBCHEM_MOLECULAR_FORMULA>
C12H8OS2

>  <PUBCHEM_MOLECULAR_WEIGHT>
232.315

>  <PUBCHEM_OPENEYE_CAN_SMILES>
CC#CC1=CC=C(S1)C2=CC=C(S2)C=O

>  <PUBCHEM_OPENEYE_ISO_SMILES>
CC#CC1=CC=C(S1)C2=CC=C(S2)C=O

>  <PUBCHEM_CACTVS_TPSA>
73.6

>  <PUBCHEM_MONOISOTOPIC_WEIGHT>
232.002

>  <PUBCHEM_TOTAL_CHARGE>
0

>  <PUBCHEM_HEAVY_ATOM_COUNT>
15

>  <PUBCHEM_ATOM_DEF_STEREO_COUNT>
0

>  <PUBCHEM_ATOM_UDEF_STEREO_COUNT>
0

>  <PUBCHEM_BOND_DEF_STEREO_COUNT>
0

>  <PUBCHEM_BOND_UDEF_STEREO_COUNT>
0

>  <PUBCHEM_ISOTOPIC_ATOM_COUNT>
0

>  <PUBCHEM_COMPONENT_COUNT>
1

>  <PUBCHEM_CACTVS_TAUTO_COUNT>
1

>  <PUBCHEM_COORDINATE_TYPE>
1
5
255

>  <PUBCHEM_BONDANNOTATIONS>
1  4  8
1  8  8
10  11  8
2  11  8
2  5  8
4  6  8
5  7  8
6  9  8
7  10  8
8  9  8

$$$$
