138291
 OpenBabel06101807152D

 11 11  0  0  0  0  0  0  0  0999 V2000
    3.0000    0.5000    0.0000 C   0  0  0  0  0  0  0  0  0  0  0  0
    3.0000   -0.5000    0.0000 C   0  0  0  0  0  0  0  0  0  0  0  0
    2.0000    0.5000    0.0000 C   0  0  0  0  0  0  0  0  0  0  0  0
    2.0000   -0.5000    0.0000 C   0  0  0  0  0  0  0  0  0  0  0  0
    3.6200    0.5000    0.0000 H   0  0  0  0  0  0  0  0  0  0  0  0
    3.0000    1.1200    0.0000 H   0  0  0  0  0  0  0  0  0  0  0  0
    3.0000   -1.1200    0.0000 H   0  0  0  0  0  0  0  0  0  0  0  0
    3.6200   -0.5000    0.0000 H   0  0  0  0  0  0  0  0  0  0  0  0
    2.0000    1.1200    0.0000 H   0  0  0  0  0  0  0  0  0  0  0  0
    1.3800    0.5000    0.0000 H   0  0  0  0  0  0  0  0  0  0  0  0
    1.5616   -0.9384    0.0000 H   0  0  0  0  0  0  0  0  0  0  0  0
  1  2  1  0  0  0  0
  1  3  1  0  0  0  0
  1  5  1  0  0  0  0
  1  6  1  0  0  0  0
  2  4  1  0  0  0  0
  2  7  1  0  0  0  0
  2  8  1  0  0  0  0
  3  4  1  0  0  0  0
  3  9  1  0  0  0  0
  3 10  1  0  0  0  0
  4 11  1  0  0  0  0
M  RAD  1   4   2
M  END
>  <PUBCHEM_COMPOUND_CID>
138291

>  <PUBCHEM_COMPOUND_CANONICALIZED>
1

>  <PUBCHEM_CACTVS_COMPLEXITY>
14

>  <PUBCHEM_CACTVS_HBOND_ACCEPTOR>
0

>  <PUBCHEM_CACTVS_HBOND_DONOR>
0

>  <PUBCHEM_CACTVS_ROTATABLE_BOND>
0

>  <PUBCHEM_CACTVS_SUBSKEYS>
AAADcYBgAAAAAAAAAAAAAAAAAABgAAAAAAAAAAAAAAAAAAAAAAAAGAAAAAAACACAAAAAAAAAAAAAAAAAAAAAAAAAAAAAAAAAAAAAAAAAAAAAAAAAAAAAAAAAAAAAAAAAAAAAAAAAAAAAAAAAAAAAAAAAAA==

>  <PUBCHEM_IUPAC_OPENEYE_NAME>
cyclobutane

>  <PUBCHEM_IUPAC_CAS_NAME>
cyclobutane

>  <PUBCHEM_IUPAC_NAME>
cyclobutane

>  <PUBCHEM_IUPAC_SYSTEMATIC_NAME>
cyclobutane

>  <PUBCHEM_IUPAC_TRADITIONAL_NAME>
cyclobutane

>  <PUBCHEM_IUPAC_INCHI>
InChI=1S/C4H7/c1-2-4-3-1/h1H,2-4H2

>  <PUBCHEM_IUPAC_INCHIKEY>
ZAEBLFKQMDEPDM-UHFFFAOYSA-N

>  <PUBCHEM_XLOGP3>
2.5

>  <PUBCHEM_EXACT_MASS>
55.055

>  <PUBCHEM_MOLECULAR_FORMULA>
C4H7

>  <PUBCHEM_MOLECULAR_WEIGHT>
55.1

>  <PUBCHEM_OPENEYE_CAN_SMILES>
C1C[CH]C1

>  <PUBCHEM_OPENEYE_ISO_SMILES>
C1C[CH]C1

>  <PUBCHEM_CACTVS_TPSA>
0

>  <PUBCHEM_MONOISOTOPIC_WEIGHT>
55.055

>  <PUBCHEM_TOTAL_CHARGE>
0

>  <PUBCHEM_HEAVY_ATOM_COUNT>
4

>  <PUBCHEM_ATOM_DEF_STEREO_COUNT>
0

>  <PUBCHEM_ATOM_UDEF_STEREO_COUNT>
0

>  <PUBCHEM_BOND_DEF_STEREO_COUNT>
0

>  <PUBCHEM_BOND_UDEF_STEREO_COUNT>
0

>  <PUBCHEM_ISOTOPIC_ATOM_COUNT>
0

>  <PUBCHEM_COMPONENT_COUNT>
1

>  <PUBCHEM_CACTVS_TAUTO_COUNT>
1

>  <PUBCHEM_COORDINATE_TYPE>
1
5
255

$$$$
