13846903
 OpenBabel06101807152D

 73 77  0  0  1  0  0  0  0  0999 V2000
    6.3301   -0.9050    0.0000 O   0  0  0  0  0  0  0  0  0  0  0  0
    7.1962    1.5950    0.0000 O   0  0  0  0  0  0  0  0  0  0  0  0
    4.5981   -0.9050    0.0000 O   0  0  0  0  0  0  0  0  0  0  0  0
    4.5981    0.0950    0.0000 O   0  0  0  0  0  0  0  0  0  0  0  0
    4.5981    2.0950    0.0000 O   0  0  0  0  0  0  0  0  0  0  0  0
    6.3301   -2.9050    0.0000 O   0  0  0  0  0  0  0  0  0  0  0  0
    4.5981   -3.9050    0.0000 O   0  0  0  0  0  0  0  0  0  0  0  0
    2.8660   -2.9050    0.0000 O   0  0  0  0  0  0  0  0  0  0  0  0
    5.4641    3.5950    0.0000 O   0  0  0  0  0  0  0  0  0  0  0  0
    2.0000   -1.4050    0.0000 O   0  0  0  0  0  0  0  0  0  0  0  0
    8.9282    1.5950    0.0000 O   0  0  0  0  0  0  0  0  0  0  0  0
    7.1962   -1.4050    0.0000 O   0  0  0  0  0  0  0  0  0  0  0  0
   10.6882   -1.4397    0.0000 O   0  0  0  0  0  0  0  0  0  0  0  0
   10.6766    1.6296    0.0000 O   0  0  0  0  0  0  0  0  0  0  0  0
   15.0583   -0.9392    0.0000 O   0  0  0  0  0  0  0  0  0  0  0  0
   15.0506   -2.9392    0.0000 O   0  0  0  0  0  0  0  0  0  0  0  0
    6.3301    0.0950    0.0000 C   0  0  3  0  0  0  0  0  0  0  0  0
    5.4641    0.5950    0.0000 C   0  0  3  0  0  0  0  0  0  0  0  0
    7.1962    0.5950    0.0000 C   0  0  3  0  0  0  0  0  0  0  0  0
    5.4641    1.5950    0.0000 C   0  0  3  0  0  0  0  0  0  0  0  0
    6.3301    2.0950    0.0000 C   0  0  3  0  0  0  0  0  0  0  0  0
    5.4641   -1.4050    0.0000 C   0  0  3  0  0  0  0  0  0  0  0  0
    5.4641   -2.4050    0.0000 C   0  0  3  0  0  0  0  0  0  0  0  0
    4.5981   -2.9050    0.0000 C   0  0  3  0  0  0  0  0  0  0  0  0
    3.7320   -2.4050    0.0000 C   0  0  3  0  0  0  0  0  0  0  0  0
    3.7320   -1.4050    0.0000 C   0  0  3  0  0  0  0  0  0  0  0  0
    8.0622    0.0950    0.0000 C   0  0  0  0  0  0  0  0  0  0  0  0
    6.3301    3.0950    0.0000 C   0  0  0  0  0  0  0  0  0  0  0  0
    2.8660   -0.9050    0.0000 C   0  0  0  0  0  0  0  0  0  0  0  0
    8.9282    0.5950    0.0000 C   0  0  0  0  0  0  0  0  0  0  0  0
    8.0622   -0.9050    0.0000 C   0  0  0  0  0  0  0  0  0  0  0  0
    9.7942    0.0950    0.0000 C   0  0  0  0  0  0  0  0  0  0  0  0
    8.9282   -1.4050    0.0000 C   0  0  0  0  0  0  0  0  0  0  0  0
    9.7942   -0.9050    0.0000 C   0  0  0  0  0  0  0  0  0  0  0  0
   10.6882    0.6297    0.0000 C   0  0  0  0  0  0  0  0  0  0  0  0
   11.5942    0.1158    0.0000 C   0  0  0  0  0  0  0  0  0  0  0  0
   11.5942   -0.9258    0.0000 C   0  0  0  0  0  0  0  0  0  0  0  0
   12.4583   -1.4292    0.0000 C   0  0  0  0  0  0  0  0  0  0  0  0
   13.3263   -0.9325    0.0000 C   0  0  0  0  0  0  0  0  0  0  0  0
   12.4545   -2.4291    0.0000 C   0  0  0  0  0  0  0  0  0  0  0  0
   14.1904   -1.4358    0.0000 C   0  0  0  0  0  0  0  0  0  0  0  0
   13.3186   -2.9325    0.0000 C   0  0  0  0  0  0  0  0  0  0  0  0
   14.1865   -2.4358    0.0000 C   0  0  0  0  0  0  0  0  0  0  0  0
    6.8671   -0.2150    0.0000 H   0  0  0  0  0  0  0  0  0  0  0  0
    4.9272    0.9050    0.0000 H   0  0  0  0  0  0  0  0  0  0  0  0
    7.7331    0.9050    0.0000 H   0  0  0  0  0  0  0  0  0  0  0  0
    5.4641    2.2150    0.0000 H   0  0  0  0  0  0  0  0  0  0  0  0
    6.8671    2.4050    0.0000 H   0  0  0  0  0  0  0  0  0  0  0  0
    5.4641   -0.7850    0.0000 H   0  0  0  0  0  0  0  0  0  0  0  0
    5.4641   -3.0250    0.0000 H   0  0  0  0  0  0  0  0  0  0  0  0
    4.0611   -3.2150    0.0000 H   0  0  0  0  0  0  0  0  0  0  0  0
    3.1951   -2.0950    0.0000 H   0  0  0  0  0  0  0  0  0  0  0  0
    3.7320   -0.7850    0.0000 H   0  0  0  0  0  0  0  0  0  0  0  0
    6.9407    2.9873    0.0000 H   0  0  0  0  0  0  0  0  0  0  0  0
    6.5422    3.6776    0.0000 H   0  0  0  0  0  0  0  0  0  0  0  0
    3.2646   -0.4301    0.0000 H   0  0  0  0  0  0  0  0  0  0  0  0
    2.4675   -0.4301    0.0000 H   0  0  0  0  0  0  0  0  0  0  0  0
    4.0611    0.4050    0.0000 H   0  0  0  0  0  0  0  0  0  0  0  0
    4.0611    1.7850    0.0000 H   0  0  0  0  0  0  0  0  0  0  0  0
    6.8671   -2.5950    0.0000 H   0  0  0  0  0  0  0  0  0  0  0  0
    5.1350   -4.2150    0.0000 H   0  0  0  0  0  0  0  0  0  0  0  0
    2.8660   -3.5250    0.0000 H   0  0  0  0  0  0  0  0  0  0  0  0
    8.9282   -2.0250    0.0000 H   0  0  0  0  0  0  0  0  0  0  0  0
    5.4641    4.2150    0.0000 H   0  0  0  0  0  0  0  0  0  0  0  0
    2.0000   -2.0250    0.0000 H   0  0  0  0  0  0  0  0  0  0  0  0
    9.4651    1.9050    0.0000 H   0  0  0  0  0  0  0  0  0  0  0  0
    7.1962   -2.0250    0.0000 H   0  0  0  0  0  0  0  0  0  0  0  0
   12.1300    0.4279    0.0000 H   0  0  0  0  0  0  0  0  0  0  0  0
   13.3287   -0.3125    0.0000 H   0  0  0  0  0  0  0  0  0  0  0  0
   11.9163   -2.7371    0.0000 H   0  0  0  0  0  0  0  0  0  0  0  0
   13.3162   -3.5525    0.0000 H   0  0  0  0  0  0  0  0  0  0  0  0
   15.5941   -1.2512    0.0000 H   0  0  0  0  0  0  0  0  0  0  0  0
   15.0482   -3.5592    0.0000 H   0  0  0  0  0  0  0  0  0  0  0  0
  1 17  1  0  0  0  0
  1 22  1  0  0  0  0
  2 19  1  0  0  0  0
  2 21  1  0  0  0  0
  3 22  1  0  0  0  0
  3 26  1  0  0  0  0
  4 18  1  0  0  0  0
  4 58  1  0  0  0  0
  5 20  1  0  0  0  0
  5 59  1  0  0  0  0
  6 23  1  0  0  0  0
  6 60  1  0  0  0  0
  7 24  1  0  0  0  0
  7 61  1  0  0  0  0
  8 25  1  0  0  0  0
  8 62  1  0  0  0  0
  9 28  1  0  0  0  0
  9 64  1  0  0  0  0
 10 29  1  0  0  0  0
 10 65  1  0  0  0  0
 11 30  1  0  0  0  0
 11 66  1  0  0  0  0
 12 31  1  0  0  0  0
 12 67  1  0  0  0  0
 13 34  1  0  0  0  0
 13 37  1  0  0  0  0
 14 35  2  0  0  0  0
 15 41  1  0  0  0  0
 15 72  1  0  0  0  0
 16 43  1  0  0  0  0
 16 73  1  0  0  0  0
 17 18  1  0  0  0  0
 17 19  1  0  0  0  0
 17 44  1  0  0  0  0
 18 20  1  0  0  0  0
 18 45  1  0  0  0  0
 19 27  1  0  0  0  0
 19 46  1  0  0  0  0
 20 21  1  0  0  0  0
 20 47  1  0  0  0  0
 21 28  1  0  0  0  0
 21 48  1  0  0  0  0
 22 23  1  0  0  0  0
 22 49  1  0  0  0  0
 23 24  1  0  0  0  0
 23 50  1  0  0  0  0
 24 25  1  0  0  0  0
 24 51  1  0  0  0  0
 25 26  1  0  0  0  0
 25 52  1  0  0  0  0
 26 29  1  0  0  0  0
 26 53  1  0  0  0  0
 27 30  2  0  0  0  0
 27 31  1  0  0  0  0
 28 54  1  0  0  0  0
 28 55  1  0  0  0  0
 29 56  1  0  0  0  0
 29 57  1  0  0  0  0
 30 32  1  0  0  0  0
 31 33  2  0  0  0  0
 32 34  2  0  0  0  0
 32 35  1  0  0  0  0
 33 34  1  0  0  0  0
 33 63  1  0  0  0  0
 35 36  1  0  0  0  0
 36 37  2  0  0  0  0
 36 68  1  0  0  0  0
 37 38  1  0  0  0  0
 38 39  2  0  0  0  0
 38 40  1  0  0  0  0
 39 41  1  0  0  0  0
 39 69  1  0  0  0  0
 40 42  2  0  0  0  0
 40 70  1  0  0  0  0
 41 43  2  0  0  0  0
 42 43  1  0  0  0  0
 42 71  1  0  0  0  0
M  END
>  <PUBCHEM_COMPOUND_CID>
13846903

>  <PUBCHEM_COMPOUND_CANONICALIZED>
1

>  <PUBCHEM_CACTVS_COMPLEXITY>
1010

>  <PUBCHEM_CACTVS_HBOND_ACCEPTOR>
16

>  <PUBCHEM_CACTVS_HBOND_DONOR>
11

>  <PUBCHEM_CACTVS_ROTATABLE_BOND>
6

>  <PUBCHEM_CACTVS_SUBSKEYS>
AAADceB4PgAAAAAAAAAAAAAAAAAAAAAAAAA0aIECAAAAAACBQAAAGgAACAAADBSwmAMwDoAABgCIAqBSAAACCAAkIAAIiAEGiMgdNzaGNRqieWGl4BUPuQfI7PzOIAADCAAIQABAAAYQABCAAAAAAAAAAA==

>  <PUBCHEM_IUPAC_OPENEYE_NAME>
6-[4,5-dihydroxy-6-(hydroxymethyl)-3-[3,4,5-trihydroxy-6-(hydroxymethyl)tetrahydropyran-2-yl]oxy-tetrahydropyran-2-yl]-2-(3,4-dihydroxyphenyl)-5,7-dihydroxy-chromen-4-one

>  <PUBCHEM_IUPAC_CAS_NAME>
6-[4,5-dihydroxy-6-(hydroxymethyl)-3-[[3,4,5-trihydroxy-6-(hydroxymethyl)-2-oxanyl]oxy]-2-oxanyl]-2-(3,4-dihydroxyphenyl)-5,7-dihydroxy-1-benzopyran-4-one

>  <PUBCHEM_IUPAC_NAME>
6-[4,5-dihydroxy-6-(hydroxymethyl)-3-[3,4,5-trihydroxy-6-(hydroxymethyl)oxan-2-yl]oxyoxan-2-yl]-2-(3,4-dihydroxyphenyl)-5,7-dihydroxychromen-4-one

>  <PUBCHEM_IUPAC_SYSTEMATIC_NAME>
2-[3,4-bis(oxidanyl)phenyl]-6-[6-(hydroxymethyl)-3-[6-(hydroxymethyl)-3,4,5-tris(oxidanyl)oxan-2-yl]oxy-4,5-bis(oxidanyl)oxan-2-yl]-5,7-bis(oxidanyl)chromen-4-one

>  <PUBCHEM_IUPAC_TRADITIONAL_NAME>
6-[4,5-dihydroxy-6-methylol-3-(3,4,5-trihydroxy-6-methylol-tetrahydropyran-2-yl)oxy-tetrahydropyran-2-yl]-2-(3,4-dihydroxyphenyl)-5,7-dihydroxy-chromone

>  <PUBCHEM_IUPAC_INCHI>
InChI=1S/C27H30O16/c28-6-15-20(35)23(38)26(43-27-24(39)22(37)19(34)16(7-29)42-27)25(41-15)18-12(33)5-14-17(21(18)36)11(32)4-13(40-14)8-1-2-9(30)10(31)3-8/h1-5,15-16,19-20,22-31,33-39H,6-7H2

>  <PUBCHEM_IUPAC_INCHIKEY>
QWAZWXOCSOFIPS-UHFFFAOYSA-N

>  <PUBCHEM_XLOGP3_AA>
-1.7

>  <PUBCHEM_EXACT_MASS>
610.153

>  <PUBCHEM_MOLECULAR_FORMULA>
C27H30O16

>  <PUBCHEM_MOLECULAR_WEIGHT>
610.521

>  <PUBCHEM_OPENEYE_CAN_SMILES>
C1=CC(=C(C=C1C2=CC(=O)C3=C(C(=C(C=C3O2)O)C4C(C(C(C(O4)CO)O)O)OC5C(C(C(C(O5)CO)O)O)O)O)O)O

>  <PUBCHEM_OPENEYE_ISO_SMILES>
C1=CC(=C(C=C1C2=CC(=O)C3=C(C(=C(C=C3O2)O)C4C(C(C(C(O4)CO)O)O)OC5C(C(C(C(O5)CO)O)O)O)O)O)O

>  <PUBCHEM_CACTVS_TPSA>
277

>  <PUBCHEM_MONOISOTOPIC_WEIGHT>
610.153

>  <PUBCHEM_TOTAL_CHARGE>
0

>  <PUBCHEM_HEAVY_ATOM_COUNT>
43

>  <PUBCHEM_ATOM_DEF_STEREO_COUNT>
0

>  <PUBCHEM_ATOM_UDEF_STEREO_COUNT>
10

>  <PUBCHEM_BOND_DEF_STEREO_COUNT>
0

>  <PUBCHEM_BOND_UDEF_STEREO_COUNT>
0

>  <PUBCHEM_ISOTOPIC_ATOM_COUNT>
0

>  <PUBCHEM_COMPONENT_COUNT>
1

>  <PUBCHEM_CACTVS_TAUTO_COUNT>
162

>  <PUBCHEM_COORDINATE_TYPE>
1
5
255

>  <PUBCHEM_BONDANNOTATIONS>
17  1  3
22  1  3
13  34  8
13  37  8
19  27  3
21  28  3
26  29  3
27  30  8
27  31  8
30  32  8
31  33  8
32  34  8
32  35  8
33  34  8
35  36  8
36  37  8
38  39  8
38  40  8
39  41  8
18  4  3
40  42  8
41  43  8
42  43  8
20  5  3
23  6  3
24  7  3
25  8  3

$$$$
