13855746
 OpenBabel06101807152D

 61 64  0  0  1  0  0  0  0  0999 V2000
    9.5681    1.7527    0.0000 O   0  0  0  0  0  0  0  0  0  0  0  0
    6.8671   -1.0014    0.0000 O   0  0  0  0  0  0  0  0  0  0  0  0
    5.1350   -1.0014    0.0000 O   0  0  0  0  0  0  0  0  0  0  0  0
   11.1548    2.5513    0.0000 O   0  0  0  0  0  0  0  0  0  0  0  0
    6.8671   -3.0014    0.0000 O   0  0  0  0  0  0  0  0  0  0  0  0
    5.1350   -4.0014    0.0000 O   0  0  0  0  0  0  0  0  0  0  0  0
    3.4030   -3.0014    0.0000 O   0  0  0  0  0  0  0  0  0  0  0  0
    2.5369   -1.5014    0.0000 O   0  0  0  0  0  0  0  0  0  0  0  0
    6.8910    2.0677    0.0000 C   0  0  3  0  0  0  0  0  0  0  0  0
    8.6269    3.0610    0.0000 C   0  0  3  0  0  0  0  0  0  0  0  0
    8.6230    2.0611    0.0000 C   0  0  3  0  0  0  0  0  0  0  0  0
    7.7551    1.5644    0.0000 C   0  0  0  0  0  0  0  0  0  0  0  0
    6.8948    3.0677    0.0000 C   0  0  0  0  0  0  0  0  0  0  0  0
    7.7628    3.5644    0.0000 C   0  0  0  0  0  0  0  0  0  0  0  0
    5.9790    1.5644    0.0000 C   0  0  0  0  0  0  0  0  0  0  0  0
    9.5743    3.3621    0.0000 C   0  0  3  0  0  0  0  0  0  0  0  0
    7.7671    0.5228    0.0000 C   0  0  0  0  0  0  0  0  0  0  0  0
    5.9670    0.5228    0.0000 C   0  0  0  0  0  0  0  0  0  0  0  0
    6.8671   -0.0014    0.0000 C   0  0  3  0  0  0  0  0  0  0  0  0
    6.0269    2.5711    0.0000 C   0  0  0  0  0  0  0  0  0  0  0  0
   10.1548    2.5552    0.0000 C   0  0  0  0  0  0  0  0  0  0  0  0
    9.8886    4.3114    0.0000 C   0  0  0  0  0  0  0  0  0  0  0  0
    8.6370    0.0295    0.0000 C   0  0  0  0  0  0  0  0  0  0  0  0
    6.0010   -1.5014    0.0000 C   0  0  3  0  0  0  0  0  0  0  0  0
    6.0010   -2.5014    0.0000 C   0  0  3  0  0  0  0  0  0  0  0  0
    5.1350   -3.0014    0.0000 C   0  0  3  0  0  0  0  0  0  0  0  0
    4.2690   -2.5014    0.0000 C   0  0  3  0  0  0  0  0  0  0  0  0
    4.2690   -1.5014    0.0000 C   0  0  3  0  0  0  0  0  0  0  0  0
    3.4030   -1.0014    0.0000 C   0  0  0  0  0  0  0  0  0  0  0  0
    8.6949    3.6773    0.0000 H   0  0  0  0  0  0  0  0  0  0  0  0
    8.6863    1.4443    0.0000 H   0  0  0  0  0  0  0  0  0  0  0  0
    6.6850    3.6512    0.0000 H   0  0  0  0  0  0  0  0  0  0  0  0
    6.2838    2.9624    0.0000 H   0  0  0  0  0  0  0  0  0  0  0  0
    8.1632    4.0378    0.0000 H   0  0  0  0  0  0  0  0  0  0  0  0
    7.3661    4.0409    0.0000 H   0  0  0  0  0  0  0  0  0  0  0  0
    5.7768    2.1505    0.0000 H   0  0  0  0  0  0  0  0  0  0  0  0
    5.3670    1.4654    0.0000 H   0  0  0  0  0  0  0  0  0  0  0  0
   10.1871    3.4560    0.0000 H   0  0  0  0  0  0  0  0  0  0  0  0
    5.3574    0.6360    0.0000 H   0  0  0  0  0  0  0  0  0  0  0  0
    5.7512   -0.0584    0.0000 H   0  0  0  0  0  0  0  0  0  0  0  0
    7.4046   -0.3104    0.0000 H   0  0  0  0  0  0  0  0  0  0  0  0
    6.3390    3.1068    0.0000 H   0  0  0  0  0  0  0  0  0  0  0  0
    5.4912    2.8831    0.0000 H   0  0  0  0  0  0  0  0  0  0  0  0
    5.7148    2.0353    0.0000 H   0  0  0  0  0  0  0  0  0  0  0  0
   10.4772    4.1166    0.0000 H   0  0  0  0  0  0  0  0  0  0  0  0
   10.0835    4.9000    0.0000 H   0  0  0  0  0  0  0  0  0  0  0  0
    9.3000    4.5063    0.0000 H   0  0  0  0  0  0  0  0  0  0  0  0
    8.3311   -0.5098    0.0000 H   0  0  0  0  0  0  0  0  0  0  0  0
    9.1763   -0.2763    0.0000 H   0  0  0  0  0  0  0  0  0  0  0  0
    8.9428    0.5688    0.0000 H   0  0  0  0  0  0  0  0  0  0  0  0
    6.5380   -1.8114    0.0000 H   0  0  0  0  0  0  0  0  0  0  0  0
    6.0010   -3.1214    0.0000 H   0  0  0  0  0  0  0  0  0  0  0  0
    4.5981   -3.3114    0.0000 H   0  0  0  0  0  0  0  0  0  0  0  0
    3.7320   -2.1914    0.0000 H   0  0  0  0  0  0  0  0  0  0  0  0
    4.2690   -0.8814    0.0000 H   0  0  0  0  0  0  0  0  0  0  0  0
    3.8015   -0.5265    0.0000 H   0  0  0  0  0  0  0  0  0  0  0  0
    3.0044   -0.5265    0.0000 H   0  0  0  0  0  0  0  0  0  0  0  0
    6.8671   -3.6214    0.0000 H   0  0  0  0  0  0  0  0  0  0  0  0
    4.5981   -4.3114    0.0000 H   0  0  0  0  0  0  0  0  0  0  0  0
    3.4030   -3.6214    0.0000 H   0  0  0  0  0  0  0  0  0  0  0  0
    2.0000   -1.1914    0.0000 H   0  0  0  0  0  0  0  0  0  0  0  0
  1 11  1  0  0  0  0
  1 21  1  0  0  0  0
  2 19  1  0  0  0  0
  2 24  1  0  0  0  0
  3 24  1  0  0  0  0
  3 28  1  0  0  0  0
  4 21  2  0  0  0  0
  5 25  1  0  0  0  0
  5 58  1  0  0  0  0
  6 26  1  0  0  0  0
  6 59  1  0  0  0  0
  7 27  1  0  0  0  0
  7 60  1  0  0  0  0
  8 29  1  0  0  0  0
  8 61  1  0  0  0  0
  9 12  1  0  0  0  0
  9 13  1  0  0  0  0
  9 15  1  0  0  0  0
  9 20  1  0  0  0  0
 10 11  1  0  0  0  0
 10 14  1  0  0  0  0
 10 16  1  0  0  0  0
 10 30  1  0  0  0  0
 11 12  1  0  0  0  0
 11 31  1  0  0  0  0
 12 17  2  0  0  0  0
 13 14  1  0  0  0  0
 13 32  1  0  0  0  0
 13 33  1  0  0  0  0
 14 34  1  0  0  0  0
 14 35  1  0  0  0  0
 15 18  1  0  0  0  0
 15 36  1  0  0  0  0
 15 37  1  0  0  0  0
 16 21  1  0  0  0  0
 16 22  1  0  0  0  0
 16 38  1  0  0  0  0
 17 19  1  0  0  0  0
 17 23  1  0  0  0  0
 18 19  1  0  0  0  0
 18 39  1  0  0  0  0
 18 40  1  0  0  0  0
 19 41  1  0  0  0  0
 20 42  1  0  0  0  0
 20 43  1  0  0  0  0
 20 44  1  0  0  0  0
 22 45  1  0  0  0  0
 22 46  1  0  0  0  0
 22 47  1  0  0  0  0
 23 48  1  0  0  0  0
 23 49  1  0  0  0  0
 23 50  1  0  0  0  0
 24 25  1  0  0  0  0
 24 51  1  0  0  0  0
 25 26  1  0  0  0  0
 25 52  1  0  0  0  0
 26 27  1  0  0  0  0
 26 53  1  0  0  0  0
 27 28  1  0  0  0  0
 27 54  1  0  0  0  0
 28 29  1  0  0  0  0
 28 55  1  0  0  0  0
 29 56  1  0  0  0  0
 29 57  1  0  0  0  0
M  END
>  <PUBCHEM_COMPOUND_CID>
13855746

>  <PUBCHEM_COMPOUND_CANONICALIZED>
1

>  <PUBCHEM_CACTVS_COMPLEXITY>
692

>  <PUBCHEM_CACTVS_HBOND_ACCEPTOR>
8

>  <PUBCHEM_CACTVS_HBOND_DONOR>
4

>  <PUBCHEM_CACTVS_ROTATABLE_BOND>
3

>  <PUBCHEM_CACTVS_SUBSKEYS>
AAADcfB4PAAAAAAAAAAAAAAAAAAAASAAAAA0QIAAAAAAAEiAAAAAGgAACAAADxSwgAMCCAAABgCIAgDQCAAAAAAgAAAACAEAAAgRFBIAIAAiUAAFgAAPIAPK6PyPgAAAAAAAAACAAAIAABAAAAAAAAAAAA==

>  <PUBCHEM_IUPAC_OPENEYE_NAME>
3,5a,9-trimethyl-8-[3,4,5-trihydroxy-6-(hydroxymethyl)tetrahydropyran-2-yl]oxy-3,3a,4,5,6,7,8,9b-octahydrobenzo[g]benzofuran-2-one

>  <PUBCHEM_IUPAC_CAS_NAME>
3,5a,9-trimethyl-8-[[3,4,5-trihydroxy-6-(hydroxymethyl)-2-oxanyl]oxy]-3,3a,4,5,6,7,8,9b-octahydrobenzo[g]benzofuran-2-one

>  <PUBCHEM_IUPAC_NAME>
3,5a,9-trimethyl-8-[3,4,5-trihydroxy-6-(hydroxymethyl)oxan-2-yl]oxy-3,3a,4,5,6,7,8,9b-octahydrobenzo[g][1]benzofuran-2-one

>  <PUBCHEM_IUPAC_SYSTEMATIC_NAME>
8-[6-(hydroxymethyl)-3,4,5-tris(oxidanyl)oxan-2-yl]oxy-3,5a,9-trimethyl-3,3a,4,5,6,7,8,9b-octahydrobenzo[g][1]benzofuran-2-one

>  <PUBCHEM_IUPAC_TRADITIONAL_NAME>
3,5a,9-trimethyl-8-(3,4,5-trihydroxy-6-methylol-tetrahydropyran-2-yl)oxy-3,3a,4,5,6,7,8,9b-octahydrobenzo[g]benzofuran-2-one

>  <PUBCHEM_IUPAC_INCHI>
InChI=1S/C21H32O8/c1-9-11-4-6-21(3)7-5-12(10(2)14(21)18(11)29-19(9)26)27-20-17(25)16(24)15(23)13(8-22)28-20/h9,11-13,15-18,20,22-25H,4-8H2,1-3H3

>  <PUBCHEM_IUPAC_INCHIKEY>
FTCASOKOHIRYPL-UHFFFAOYSA-N

>  <PUBCHEM_XLOGP3_AA>
0.1

>  <PUBCHEM_EXACT_MASS>
412.21

>  <PUBCHEM_MOLECULAR_FORMULA>
C21H32O8

>  <PUBCHEM_MOLECULAR_WEIGHT>
412.479

>  <PUBCHEM_OPENEYE_CAN_SMILES>
CC1C2CCC3(CCC(C(=C3C2OC1=O)C)OC4C(C(C(C(O4)CO)O)O)O)C

>  <PUBCHEM_OPENEYE_ISO_SMILES>
CC1C2CCC3(CCC(C(=C3C2OC1=O)C)OC4C(C(C(C(O4)CO)O)O)O)C

>  <PUBCHEM_CACTVS_TPSA>
126

>  <PUBCHEM_MONOISOTOPIC_WEIGHT>
412.21

>  <PUBCHEM_TOTAL_CHARGE>
0

>  <PUBCHEM_HEAVY_ATOM_COUNT>
29

>  <PUBCHEM_ATOM_DEF_STEREO_COUNT>
0

>  <PUBCHEM_ATOM_UDEF_STEREO_COUNT>
10

>  <PUBCHEM_BOND_DEF_STEREO_COUNT>
0

>  <PUBCHEM_BOND_UDEF_STEREO_COUNT>
0

>  <PUBCHEM_ISOTOPIC_ATOM_COUNT>
0

>  <PUBCHEM_COMPONENT_COUNT>
1

>  <PUBCHEM_CACTVS_TAUTO_COUNT>
2

>  <PUBCHEM_COORDINATE_TYPE>
1
5
255

>  <PUBCHEM_BONDANNOTATIONS>
11  1  3
10  14  3
16  22  3
19  2  3
24  2  3
28  29  3
25  5  3
26  6  3
27  7  3
9  20  3

$$$$
