13857517
 OpenBabel06101807152D

 57 58  0  0  1  0  0  0  0  0999 V2000
    4.2690   -1.1440    0.0000 O   0  0  0  0  0  0  0  0  0  0  0  0
    7.7331    0.8560    0.0000 O   0  0  0  0  0  0  0  0  0  0  0  0
    6.0010   -1.1440    0.0000 O   0  0  0  0  0  0  0  0  0  0  0  0
    4.2690   -4.1440    0.0000 O   0  0  0  0  0  0  0  0  0  0  0  0
    2.5369   -3.1440    0.0000 O   0  0  0  0  0  0  0  0  0  0  0  0
    6.0010   -3.1440    0.0000 O   0  0  0  0  0  0  0  0  0  0  0  0
    9.2331    4.4540    0.0000 O   0  0  0  0  0  0  0  0  0  0  0  0
    2.5369   -0.1440    0.0000 O   0  0  0  0  0  0  0  0  0  0  0  0
    8.7331    1.8560    0.0000 C   0  0  0  0  0  0  0  0  0  0  0  0
    7.7331    1.8560    0.0000 C   0  0  3  0  0  0  0  0  0  0  0  0
    9.2331    2.7220    0.0000 C   0  0  0  0  0  0  0  0  0  0  0  0
    7.2331    2.7220    0.0000 C   0  0  0  0  0  0  0  0  0  0  0  0
    4.2690   -3.1440    0.0000 C   0  0  3  0  0  0  0  0  0  0  0  0
    9.5991    1.3560    0.0000 C   0  0  0  0  0  0  0  0  0  0  0  0
    9.0752    0.9163    0.0000 C   0  0  0  0  0  0  0  0  0  0  0  0
    3.4030   -2.6440    0.0000 C   0  0  3  0  0  0  0  0  0  0  0  0
    5.1350   -2.6440    0.0000 C   0  0  3  0  0  0  0  0  0  0  0  0
    5.1350   -1.6440    0.0000 C   0  0  3  0  0  0  0  0  0  0  0  0
    3.4030   -1.6440    0.0000 C   0  0  3  0  0  0  0  0  0  0  0  0
    6.8671    1.3560    0.0000 C   0  0  0  0  0  0  0  0  0  0  0  0
    8.7331    3.5880    0.0000 C   0  0  0  0  0  0  0  0  0  0  0  0
    7.7331    3.5880    0.0000 C   0  0  0  0  0  0  0  0  0  0  0  0
    6.0010   -0.1440    0.0000 C   0  0  3  0  0  0  0  0  0  0  0  0
    6.8671    0.3560    0.0000 C   0  0  0  0  0  0  0  0  0  0  0  0
    6.2331    2.7220    0.0000 C   0  0  0  0  0  0  0  0  0  0  0  0
    2.5369   -1.1440    0.0000 C   0  0  0  0  0  0  0  0  0  0  0  0
    5.1350    0.3560    0.0000 C   0  0  0  0  0  0  0  0  0  0  0  0
    9.7080    2.3235    0.0000 H   0  0  0  0  0  0  0  0  0  0  0  0
    9.7080    3.1205    0.0000 H   0  0  0  0  0  0  0  0  0  0  0  0
    4.8059   -3.4540    0.0000 H   0  0  0  0  0  0  0  0  0  0  0  0
    9.2891    0.8190    0.0000 H   0  0  0  0  0  0  0  0  0  0  0  0
   10.1360    1.0460    0.0000 H   0  0  0  0  0  0  0  0  0  0  0  0
    9.9091    1.8929    0.0000 H   0  0  0  0  0  0  0  0  0  0  0  0
    8.4926    0.7042    0.0000 H   0  0  0  0  0  0  0  0  0  0  0  0
    9.2873    0.3337    0.0000 H   0  0  0  0  0  0  0  0  0  0  0  0
    9.6578    1.1284    0.0000 H   0  0  0  0  0  0  0  0  0  0  0  0
    3.4030   -3.2640    0.0000 H   0  0  0  0  0  0  0  0  0  0  0  0
    5.6720   -2.3340    0.0000 H   0  0  0  0  0  0  0  0  0  0  0  0
    5.1350   -1.0240    0.0000 H   0  0  0  0  0  0  0  0  0  0  0  0
    3.4030   -1.0240    0.0000 H   0  0  0  0  0  0  0  0  0  0  0  0
    6.3301    1.6660    0.0000 H   0  0  0  0  0  0  0  0  0  0  0  0
    7.4231    4.1250    0.0000 H   0  0  0  0  0  0  0  0  0  0  0  0
    6.5380   -0.4540    0.0000 H   0  0  0  0  0  0  0  0  0  0  0  0
    7.4040    0.0460    0.0000 H   0  0  0  0  0  0  0  0  0  0  0  0
    8.2700    0.5460    0.0000 H   0  0  0  0  0  0  0  0  0  0  0  0
    6.2331    3.3420    0.0000 H   0  0  0  0  0  0  0  0  0  0  0  0
    5.6131    2.7220    0.0000 H   0  0  0  0  0  0  0  0  0  0  0  0
    6.2331    2.1020    0.0000 H   0  0  0  0  0  0  0  0  0  0  0  0
    1.9264   -1.0364    0.0000 H   0  0  0  0  0  0  0  0  0  0  0  0
    2.3249   -1.7266    0.0000 H   0  0  0  0  0  0  0  0  0  0  0  0
    3.7320   -4.4540    0.0000 H   0  0  0  0  0  0  0  0  0  0  0  0
    2.0000   -2.8340    0.0000 H   0  0  0  0  0  0  0  0  0  0  0  0
    6.5380   -2.8340    0.0000 H   0  0  0  0  0  0  0  0  0  0  0  0
    5.4450    0.8929    0.0000 H   0  0  0  0  0  0  0  0  0  0  0  0
    4.5981    0.6660    0.0000 H   0  0  0  0  0  0  0  0  0  0  0  0
    4.8250   -0.1810    0.0000 H   0  0  0  0  0  0  0  0  0  0  0  0
    2.0000    0.1660    0.0000 H   0  0  0  0  0  0  0  0  0  0  0  0
  1 18  1  0  0  0  0
  1 19  1  0  0  0  0
  2 10  1  0  0  0  0
  2 45  1  0  0  0  0
  3 18  1  0  0  0  0
  3 23  1  0  0  0  0
  4 13  1  0  0  0  0
  4 51  1  0  0  0  0
  5 16  1  0  0  0  0
  5 52  1  0  0  0  0
  6 17  1  0  0  0  0
  6 53  1  0  0  0  0
  7 21  2  0  0  0  0
  8 26  1  0  0  0  0
  8 57  1  0  0  0  0
  9 10  1  0  0  0  0
  9 11  1  0  0  0  0
  9 14  1  0  0  0  0
  9 15  1  0  0  0  0
 10 12  1  0  0  0  0
 10 20  1  0  0  0  0
 11 21  1  0  0  0  0
 11 28  1  0  0  0  0
 11 29  1  0  0  0  0
 12 22  2  0  0  0  0
 12 25  1  0  0  0  0
 13 16  1  0  0  0  0
 13 17  1  0  0  0  0
 13 30  1  0  0  0  0
 14 31  1  0  0  0  0
 14 32  1  0  0  0  0
 14 33  1  0  0  0  0
 15 34  1  0  0  0  0
 15 35  1  0  0  0  0
 15 36  1  0  0  0  0
 16 19  1  0  0  0  0
 16 37  1  0  0  0  0
 17 18  1  0  0  0  0
 17 38  1  0  0  0  0
 18 39  1  0  0  0  0
 19 26  1  0  0  0  0
 19 40  1  0  0  0  0
 20 24  2  0  0  0  0
 20 41  1  0  0  0  0
 21 22  1  0  0  0  0
 22 42  1  0  0  0  0
 23 24  1  0  0  0  0
 23 27  1  0  0  0  0
 23 43  1  0  0  0  0
 24 44  1  0  0  0  0
 25 46  1  0  0  0  0
 25 47  1  0  0  0  0
 25 48  1  0  0  0  0
 26 49  1  0  0  0  0
 26 50  1  0  0  0  0
 27 54  1  0  0  0  0
 27 55  1  0  0  0  0
 27 56  1  0  0  0  0
M  END
>  <PUBCHEM_COMPOUND_CID>
13857517

>  <PUBCHEM_COMPOUND_CANONICALIZED>
1

>  <PUBCHEM_CACTVS_COMPLEXITY>
613

>  <PUBCHEM_CACTVS_HBOND_ACCEPTOR>
8

>  <PUBCHEM_CACTVS_HBOND_DONOR>
5

>  <PUBCHEM_CACTVS_ROTATABLE_BOND>
5

>  <PUBCHEM_CACTVS_SUBSKEYS>
AAADceB4PAAAAAAAAAAAAAAAAAAAAAAAAAAkQAAAAAAAAAAAAAAAGgAACAAADlSwgAMCCAAABgCIAqBSAAAAAAAgAAAICAEAAEgRFBIAIQAiUAAFgAAPMQPK6AwPgAAAAAAAAAAAAAAAAAAAAAAAAAAAAA==

>  <PUBCHEM_IUPAC_OPENEYE_NAME>
4-hydroxy-3,5,5-trimethyl-4-[(E)-3-[3,4,5-trihydroxy-6-(hydroxymethyl)tetrahydropyran-2-yl]oxybut-1-enyl]cyclohex-2-en-1-one

>  <PUBCHEM_IUPAC_CAS_NAME>
4-hydroxy-3,5,5-trimethyl-4-[(E)-3-[[3,4,5-trihydroxy-6-(hydroxymethyl)-2-oxanyl]oxy]but-1-enyl]-1-cyclohex-2-enone

>  <PUBCHEM_IUPAC_NAME>
4-hydroxy-3,5,5-trimethyl-4-[(E)-3-[3,4,5-trihydroxy-6-(hydroxymethyl)oxan-2-yl]oxybut-1-enyl]cyclohex-2-en-1-one

>  <PUBCHEM_IUPAC_SYSTEMATIC_NAME>
4-[(E)-3-[6-(hydroxymethyl)-3,4,5-tris(oxidanyl)oxan-2-yl]oxybut-1-enyl]-3,5,5-trimethyl-4-oxidanyl-cyclohex-2-en-1-one

>  <PUBCHEM_IUPAC_TRADITIONAL_NAME>
4-hydroxy-3,5,5-trimethyl-4-[(E)-3-(3,4,5-trihydroxy-6-methylol-tetrahydropyran-2-yl)oxybut-1-enyl]cyclohex-2-en-1-one

>  <PUBCHEM_IUPAC_INCHI>
InChI=1S/C19H30O8/c1-10-7-12(21)8-18(3,4)19(10,25)6-5-11(2)26-17-16(24)15(23)14(22)13(9-20)27-17/h5-7,11,13-17,20,22-25H,8-9H2,1-4H3/b6-5+

>  <PUBCHEM_IUPAC_INCHIKEY>
SWYRVCGNMNAFEK-AATRIKPKSA-N

>  <PUBCHEM_XLOGP3_AA>
-1

>  <PUBCHEM_EXACT_MASS>
386.194

>  <PUBCHEM_MOLECULAR_FORMULA>
C19H30O8

>  <PUBCHEM_MOLECULAR_WEIGHT>
386.441

>  <PUBCHEM_OPENEYE_CAN_SMILES>
CC1=CC(=O)CC(C1(C=CC(C)OC2C(C(C(C(O2)CO)O)O)O)O)(C)C

>  <PUBCHEM_OPENEYE_ISO_SMILES>
CC1=CC(=O)CC(C1(/C=C/C(C)OC2C(C(C(C(O2)CO)O)O)O)O)(C)C

>  <PUBCHEM_CACTVS_TPSA>
137

>  <PUBCHEM_MONOISOTOPIC_WEIGHT>
386.194

>  <PUBCHEM_TOTAL_CHARGE>
0

>  <PUBCHEM_HEAVY_ATOM_COUNT>
27

>  <PUBCHEM_ATOM_DEF_STEREO_COUNT>
0

>  <PUBCHEM_ATOM_UDEF_STEREO_COUNT>
7

>  <PUBCHEM_BOND_DEF_STEREO_COUNT>
1

>  <PUBCHEM_BOND_UDEF_STEREO_COUNT>
0

>  <PUBCHEM_ISOTOPIC_ATOM_COUNT>
0

>  <PUBCHEM_COMPONENT_COUNT>
1

>  <PUBCHEM_CACTVS_TAUTO_COUNT>
5

>  <PUBCHEM_COORDINATE_TYPE>
1
5
255

>  <PUBCHEM_BONDANNOTATIONS>
19  26  3
10  2  3
23  27  3
18  3  3
13  4  3
16  5  3
17  6  3

$$$$
