13857944
 OpenBabel06101807152D

 70 75  0  0  1  0  0  0  0  0999 V2000
    5.4275   -2.4385    0.0000 O   0  0  0  0  0  0  0  0  0  0  0  0
    3.3389    1.2322    0.0000 O   0  0  0  0  0  0  0  0  0  0  0  0
    8.1221   -2.9801    0.0000 O   0  0  0  0  0  0  0  0  0  0  0  0
    4.5896   -2.9663    0.0000 O   0  0  0  0  0  0  0  0  0  0  0  0
    2.8079   -1.9558    0.0000 O   0  0  0  0  0  0  0  0  0  0  0  0
    7.2161   -4.5009    0.0000 O   0  0  0  0  0  0  0  0  0  0  0  0
   10.0429   -0.2137    0.0000 O   0  0  0  0  0  0  0  0  0  0  0  0
    5.4117    3.5480    0.0000 O   0  0  0  0  0  0  0  0  0  0  0  0
    3.7613    3.0227    0.0000 O   0  0  0  0  0  0  0  0  0  0  0  0
    6.3380   -1.9317    0.0000 C   0  0  3  0  0  0  0  0  0  0  0  0
    5.4720   -1.4317    0.0000 C   0  0  3  0  0  0  0  0  0  0  0  0
    5.4720   -0.4317    0.0000 C   0  0  3  0  0  0  0  0  0  0  0  0
    7.2040   -1.4317    0.0000 C   0  0  3  0  0  0  0  0  0  0  0  0
    4.5780    0.1030    0.0000 C   0  0  3  0  0  0  0  0  0  0  0  0
    6.3220   -2.9732    0.0000 C   0  0  3  0  0  0  0  0  0  0  0  0
    6.3380    0.0683    0.0000 C   0  0  0  0  0  0  0  0  0  0  0  0
    3.6720   -0.4109    0.0000 C   0  0  3  0  0  0  0  0  0  0  0  0
    4.5780   -1.9664    0.0000 C   0  0  3  0  0  0  0  0  0  0  0  0
    7.2040   -0.4317    0.0000 C   0  0  0  0  0  0  0  0  0  0  0  0
    8.1140   -1.9385    0.0000 C   0  0  3  0  0  0  0  0  0  0  0  0
    4.3680    1.1169    0.0000 C   0  0  3  0  0  0  0  0  0  0  0  0
    6.1221   -2.5574    0.0000 C   0  0  0  0  0  0  0  0  0  0  0  0
    3.6720   -1.4525    0.0000 C   0  0  0  0  0  0  0  0  0  0  0  0
    2.9097    0.2899    0.0000 C   0  0  0  0  0  0  0  0  0  0  0  0
    8.0701   -0.9317    0.0000 C   0  0  0  0  0  0  0  0  0  0  0  0
    5.4479    0.5963    0.0000 C   0  0  0  0  0  0  0  0  0  0  0  0
    7.2200   -3.5009    0.0000 C   0  0  0  0  0  0  0  0  0  0  0  0
    5.0415    1.8560    0.0000 C   0  0  0  0  0  0  0  0  0  0  0  0
    8.9742   -1.4286    0.0000 C   0  0  0  0  0  0  0  0  0  0  0  0
    2.0000    0.7052    0.0000 C   0  0  0  0  0  0  0  0  0  0  0  0
    2.2336   -0.4469    0.0000 C   0  0  0  0  0  0  0  0  0  0  0  0
    4.7382    2.8089    0.0000 C   0  0  0  0  0  0  0  0  0  0  0  0
    9.8924   -1.8247    0.0000 C   0  0  0  0  0  0  0  0  0  0  0  0
    9.0672   -0.4329    0.0000 C   0  0  0  0  0  0  0  0  0  0  0  0
   10.5529   -1.0739    0.0000 C   0  0  0  0  0  0  0  0  0  0  0  0
    5.1084    4.5009    0.0000 C   0  0  0  0  0  0  0  0  0  0  0  0
    6.0089   -0.7417    0.0000 H   0  0  0  0  0  0  0  0  0  0  0  0
    6.0058   -3.5066    0.0000 H   0  0  0  0  0  0  0  0  0  0  0  0
    6.7366    0.5433    0.0000 H   0  0  0  0  0  0  0  0  0  0  0  0
    5.9395    0.5433    0.0000 H   0  0  0  0  0  0  0  0  0  0  0  0
    3.1043   -0.6601    0.0000 H   0  0  0  0  0  0  0  0  0  0  0  0
    4.0441   -2.2815    0.0000 H   0  0  0  0  0  0  0  0  0  0  0  0
    7.8146   -0.5393    0.0000 H   0  0  0  0  0  0  0  0  0  0  0  0
    7.4161    0.1509    0.0000 H   0  0  0  0  0  0  0  0  0  0  0  0
    8.6539   -2.2433    0.0000 H   0  0  0  0  0  0  0  0  0  0  0  0
    4.1495    1.6971    0.0000 H   0  0  0  0  0  0  0  0  0  0  0  0
    5.5852   -2.8675    0.0000 H   0  0  0  0  0  0  0  0  0  0  0  0
    6.4322   -3.0944    0.0000 H   0  0  0  0  0  0  0  0  0  0  0  0
    6.6590   -2.2474    0.0000 H   0  0  0  0  0  0  0  0  0  0  0  0
    8.3801   -1.4686    0.0000 H   0  0  0  0  0  0  0  0  0  0  0  0
    8.6070   -0.6217    0.0000 H   0  0  0  0  0  0  0  0  0  0  0  0
    7.7601   -0.3947    0.0000 H   0  0  0  0  0  0  0  0  0  0  0  0
    5.7538    0.0570    0.0000 H   0  0  0  0  0  0  0  0  0  0  0  0
    5.9872    0.9021    0.0000 H   0  0  0  0  0  0  0  0  0  0  0  0
    5.1420    1.1356    0.0000 H   0  0  0  0  0  0  0  0  0  0  0  0
    5.4203    1.3652    0.0000 H   0  0  0  0  0  0  0  0  0  0  0  0
    5.5907    2.1438    0.0000 H   0  0  0  0  0  0  0  0  0  0  0  0
    4.0563   -3.2825    0.0000 H   0  0  0  0  0  0  0  0  0  0  0  0
    2.2575    1.2692    0.0000 H   0  0  0  0  0  0  0  0  0  0  0  0
    1.4360    0.9627    0.0000 H   0  0  0  0  0  0  0  0  0  0  0  0
    1.7425    0.1412    0.0000 H   0  0  0  0  0  0  0  0  0  0  0  0
    1.7767   -0.0277    0.0000 H   0  0  0  0  0  0  0  0  0  0  0  0
    1.8144   -0.9037    0.0000 H   0  0  0  0  0  0  0  0  0  0  0  0
    2.6904   -0.8661    0.0000 H   0  0  0  0  0  0  0  0  0  0  0  0
   10.0283   -2.4296    0.0000 H   0  0  0  0  0  0  0  0  0  0  0  0
    8.6017   -0.0234    0.0000 H   0  0  0  0  0  0  0  0  0  0  0  0
   11.1702   -1.1315    0.0000 H   0  0  0  0  0  0  0  0  0  0  0  0
    5.6992    4.6890    0.0000 H   0  0  0  0  0  0  0  0  0  0  0  0
    4.9204    5.0917    0.0000 H   0  0  0  0  0  0  0  0  0  0  0  0
    4.5176    4.3129    0.0000 H   0  0  0  0  0  0  0  0  0  0  0  0
  1 10  1  0  0  0  0
  1 15  1  0  0  0  0
  2 21  1  0  0  0  0
  2 24  1  0  0  0  0
  3 20  1  0  0  0  0
  3 27  1  0  0  0  0
  4 18  1  0  0  0  0
  4 58  1  0  0  0  0
  5 23  2  0  0  0  0
  6 27  2  0  0  0  0
  7 34  1  0  0  0  0
  7 35  1  0  0  0  0
  8 32  1  0  0  0  0
  8 36  1  0  0  0  0
  9 32  2  0  0  0  0
 10 11  1  0  0  0  0
 10 13  1  0  0  0  0
 10 15  1  0  0  0  0
 11 12  1  0  0  0  0
 11 18  1  0  0  0  0
 11 22  1  0  0  0  0
 12 14  1  0  0  0  0
 12 16  1  0  0  0  0
 12 37  1  0  0  0  0
 13 19  1  0  0  0  0
 13 20  1  0  0  0  0
 13 25  1  0  0  0  0
 14 17  1  0  0  0  0
 14 21  1  0  0  0  0
 14 26  1  0  0  0  0
 15 27  1  0  0  0  0
 15 38  1  0  0  0  0
 16 19  1  0  0  0  0
 16 39  1  0  0  0  0
 16 40  1  0  0  0  0
 17 23  1  0  0  0  0
 17 24  1  0  0  0  0
 17 41  1  0  0  0  0
 18 23  1  0  0  0  0
 18 42  1  0  0  0  0
 19 43  1  0  0  0  0
 19 44  1  0  0  0  0
 20 29  1  0  0  0  0
 20 45  1  0  0  0  0
 21 28  1  0  0  0  0
 21 46  1  0  0  0  0
 22 47  1  0  0  0  0
 22 48  1  0  0  0  0
 22 49  1  0  0  0  0
 24 30  1  0  0  0  0
 24 31  1  0  0  0  0
 25 50  1  0  0  0  0
 25 51  1  0  0  0  0
 25 52  1  0  0  0  0
 26 53  1  0  0  0  0
 26 54  1  0  0  0  0
 26 55  1  0  0  0  0
 28 32  1  0  0  0  0
 28 56  1  0  0  0  0
 28 57  1  0  0  0  0
 29 33  1  0  0  0  0
 29 34  2  0  0  0  0
 30 59  1  0  0  0  0
 30 60  1  0  0  0  0
 30 61  1  0  0  0  0
 31 62  1  0  0  0  0
 31 63  1  0  0  0  0
 31 64  1  0  0  0  0
 33 35  2  0  0  0  0
 33 65  1  0  0  0  0
 34 66  1  0  0  0  0
 35 67  1  0  0  0  0
 36 68  1  0  0  0  0
 36 69  1  0  0  0  0
 36 70  1  0  0  0  0
M  END
>  <PUBCHEM_COMPOUND_CID>
13857944

>  <PUBCHEM_COMPOUND_CANONICALIZED>
1

>  <PUBCHEM_CACTVS_COMPLEXITY>
1020

>  <PUBCHEM_CACTVS_HBOND_ACCEPTOR>
9

>  <PUBCHEM_CACTVS_HBOND_DONOR>
1

>  <PUBCHEM_CACTVS_ROTATABLE_BOND>
4

>  <PUBCHEM_CACTVS_SUBSKEYS>
AAADcfB4PAAAAAAAAAAAAAAAEgAAASJAAAA0YIAABIAAAEjRgAAAGgAACAAAD1SgmAIyDIAABkCIAqjSiAICCAAkIAAIiAFGCMgNNxYENQ6CWSCl4BEKKYPK7PzPgAAAAAAAAADAAAYAADAAAAAAAAAAAA==

>  <PUBCHEM_IUPAC_INCHI>
InChI=1S/C27H34O9/c1-23(2)18-17(29)19(30)26(5)14(25(18,4)15(35-23)11-16(28)32-6)7-9-24(3)20(13-8-10-33-12-13)34-22(31)21-27(24,26)36-21/h8,10,12,14-15,18-21,30H,7,9,11H2,1-6H3

>  <PUBCHEM_IUPAC_INCHIKEY>
QZEZEIDFGQZYKE-UHFFFAOYSA-N

>  <PUBCHEM_XLOGP3_AA>
2

>  <PUBCHEM_EXACT_MASS>
502.22

>  <PUBCHEM_MOLECULAR_FORMULA>
C27H34O9

>  <PUBCHEM_MOLECULAR_WEIGHT>
502.56

>  <PUBCHEM_OPENEYE_CAN_SMILES>
CC1(C2C(=O)C(C3(C(C2(C(O1)CC(=O)OC)C)CCC4(C35C(O5)C(=O)OC4C6=COC=C6)C)C)O)C

>  <PUBCHEM_OPENEYE_ISO_SMILES>
CC1(C2C(=O)C(C3(C(C2(C(O1)CC(=O)OC)C)CCC4(C35C(O5)C(=O)OC4C6=COC=C6)C)C)O)C

>  <PUBCHEM_CACTVS_TPSA>
125

>  <PUBCHEM_MONOISOTOPIC_WEIGHT>
502.22

>  <PUBCHEM_TOTAL_CHARGE>
0

>  <PUBCHEM_HEAVY_ATOM_COUNT>
36

>  <PUBCHEM_ATOM_DEF_STEREO_COUNT>
0

>  <PUBCHEM_ATOM_UDEF_STEREO_COUNT>
10

>  <PUBCHEM_BOND_DEF_STEREO_COUNT>
0

>  <PUBCHEM_BOND_UDEF_STEREO_COUNT>
0

>  <PUBCHEM_ISOTOPIC_ATOM_COUNT>
0

>  <PUBCHEM_COMPONENT_COUNT>
1

>  <PUBCHEM_CACTVS_TAUTO_COUNT>
8

>  <PUBCHEM_COORDINATE_TYPE>
1
5
255

>  <PUBCHEM_BONDANNOTATIONS>
10  1  3
11  22  3
12  16  3
13  25  3
14  26  3
15  27  3
17  23  3
20  29  3
21  28  3
29  33  8
29  34  8
33  35  8
18  4  3
7  34  8
7  35  8

$$$$
