13889369
 OpenBabel06101807152D

 34 36  0  0  0  0  0  0  0  0999 V2000
    6.0682   -0.4254    0.0000 O   0  0  0  0  0  0  0  0  0  0  0  0
    6.9343   -1.9254    0.0000 O   0  0  0  0  0  0  0  0  0  0  0  0
    4.3198    2.6092    0.0000 O   0  0  0  0  0  0  0  0  0  0  0  0
    8.6663    1.0746    0.0000 O   0  0  0  0  0  0  0  0  0  0  0  0
    6.0682    2.5746    0.0000 O   0  0  0  0  0  0  0  0  0  0  0  0
    2.5381   -0.4495    0.0000 O   0  0  0  0  0  0  0  0  0  0  0  0
    5.2022    1.0746    0.0000 C   0  0  0  0  0  0  0  0  0  0  0  0
    6.9343    0.0746    0.0000 C   0  0  0  0  0  0  0  0  0  0  0  0
    5.2022    0.0746    0.0000 C   0  0  0  0  0  0  0  0  0  0  0  0
    7.8003   -0.4254    0.0000 C   0  0  0  0  0  0  0  0  0  0  0  0
    6.0682    1.5746    0.0000 C   0  0  0  0  0  0  0  0  0  0  0  0
    6.9343    1.0746    0.0000 C   0  0  0  0  0  0  0  0  0  0  0  0
    4.3083    1.6093    0.0000 C   0  0  0  0  0  0  0  0  0  0  0  0
    7.8003   -1.4254    0.0000 C   0  0  0  0  0  0  0  0  0  0  0  0
    4.3083   -0.4601    0.0000 C   0  0  0  0  0  0  0  0  0  0  0  0
    8.6663    0.0746    0.0000 C   0  0  0  0  0  0  0  0  0  0  0  0
    3.4022    0.0538    0.0000 C   0  0  0  0  0  0  0  0  0  0  0  0
    3.4022    1.0954    0.0000 C   0  0  0  0  0  0  0  0  0  0  0  0
    8.6663   -1.9254    0.0000 C   0  0  0  0  0  0  0  0  0  0  0  0
    9.5323   -0.4254    0.0000 C   0  0  0  0  0  0  0  0  0  0  0  0
    9.5323   -1.4254    0.0000 C   0  0  0  0  0  0  0  0  0  0  0  0
    6.9343   -2.9254    0.0000 C   0  0  0  0  0  0  0  0  0  0  0  0
    7.4712    1.3846    0.0000 H   0  0  0  0  0  0  0  0  0  0  0  0
    4.3154   -1.0800    0.0000 H   0  0  0  0  0  0  0  0  0  0  0  0
    2.8665    1.4075    0.0000 H   0  0  0  0  0  0  0  0  0  0  0  0
    8.6663   -2.5454    0.0000 H   0  0  0  0  0  0  0  0  0  0  0  0
   10.0693   -0.1154    0.0000 H   0  0  0  0  0  0  0  0  0  0  0  0
   10.0693   -1.7354    0.0000 H   0  0  0  0  0  0  0  0  0  0  0  0
    3.7865    2.9254    0.0000 H   0  0  0  0  0  0  0  0  0  0  0  0
    9.2033    1.3846    0.0000 H   0  0  0  0  0  0  0  0  0  0  0  0
    2.0000   -0.1416    0.0000 H   0  0  0  0  0  0  0  0  0  0  0  0
    6.3143   -2.9254    0.0000 H   0  0  0  0  0  0  0  0  0  0  0  0
    6.9343   -3.5454    0.0000 H   0  0  0  0  0  0  0  0  0  0  0  0
    7.5543   -2.9254    0.0000 H   0  0  0  0  0  0  0  0  0  0  0  0
  1  8  1  0  0  0  0
  1  9  1  0  0  0  0
  2 14  1  0  0  0  0
  2 22  1  0  0  0  0
  3 13  1  0  0  0  0
  3 29  1  0  0  0  0
  4 16  1  0  0  0  0
  4 30  1  0  0  0  0
  5 11  2  0  0  0  0
  6 17  1  0  0  0  0
  6 31  1  0  0  0  0
  7  9  1  0  0  0  0
  7 11  1  0  0  0  0
  7 13  2  0  0  0  0
  8 10  1  0  0  0  0
  8 12  2  0  0  0  0
  9 15  2  0  0  0  0
 10 14  1  0  0  0  0
 10 16  2  0  0  0  0
 11 12  1  0  0  0  0
 12 23  1  0  0  0  0
 13 18  1  0  0  0  0
 14 19  2  0  0  0  0
 15 17  1  0  0  0  0
 15 24  1  0  0  0  0
 16 20  1  0  0  0  0
 17 18  2  0  0  0  0
 18 25  1  0  0  0  0
 19 21  1  0  0  0  0
 19 26  1  0  0  0  0
 20 21  2  0  0  0  0
 20 27  1  0  0  0  0
 21 28  1  0  0  0  0
 22 32  1  0  0  0  0
 22 33  1  0  0  0  0
 22 34  1  0  0  0  0
M  END
>  <PUBCHEM_COMPOUND_CID>
13889369

>  <PUBCHEM_COMPOUND_CANONICALIZED>
1

>  <PUBCHEM_CACTVS_COMPLEXITY>
462

>  <PUBCHEM_CACTVS_HBOND_ACCEPTOR>
6

>  <PUBCHEM_CACTVS_HBOND_DONOR>
3

>  <PUBCHEM_CACTVS_ROTATABLE_BOND>
2

>  <PUBCHEM_CACTVS_SUBSKEYS>
AAADccB4OAAAAAAAAAAAAAAAAAAAAAAAAAAwYIAAAAAAAACBQAAAGgAACAAADASAmAIyBoAABgCIAqBSAAACCAAkIAAIiAEGCMgMJzaGNRqCeWCl4BUIuQeI7KzOIAAACAAIAABAAAAQABAAAAAAAAAAAA==

>  <PUBCHEM_IUPAC_OPENEYE_NAME>
5,7-dihydroxy-2-(2-hydroxy-6-methoxy-phenyl)chromen-4-one

>  <PUBCHEM_IUPAC_CAS_NAME>
5,7-dihydroxy-2-(2-hydroxy-6-methoxyphenyl)-1-benzopyran-4-one

>  <PUBCHEM_IUPAC_NAME>
5,7-dihydroxy-2-(2-hydroxy-6-methoxyphenyl)chromen-4-one

>  <PUBCHEM_IUPAC_SYSTEMATIC_NAME>
2-(2-methoxy-6-oxidanyl-phenyl)-5,7-bis(oxidanyl)chromen-4-one

>  <PUBCHEM_IUPAC_TRADITIONAL_NAME>
5,7-dihydroxy-2-(2-hydroxy-6-methoxy-phenyl)chromone

>  <PUBCHEM_IUPAC_INCHI>
InChI=1S/C16H12O6/c1-21-12-4-2-3-9(18)16(12)14-7-11(20)15-10(19)5-8(17)6-13(15)22-14/h2-7,17-19H,1H3

>  <PUBCHEM_IUPAC_INCHIKEY>
DXCJDOXICXPVHQ-UHFFFAOYSA-N

>  <PUBCHEM_XLOGP3>
1.7

>  <PUBCHEM_EXACT_MASS>
300.063

>  <PUBCHEM_MOLECULAR_FORMULA>
C16H12O6

>  <PUBCHEM_MOLECULAR_WEIGHT>
300.266

>  <PUBCHEM_OPENEYE_CAN_SMILES>
COC1=CC=CC(=C1C2=CC(=O)C3=C(C=C(C=C3O2)O)O)O

>  <PUBCHEM_OPENEYE_ISO_SMILES>
COC1=CC=CC(=C1C2=CC(=O)C3=C(C=C(C=C3O2)O)O)O

>  <PUBCHEM_CACTVS_TPSA>
96.2

>  <PUBCHEM_MONOISOTOPIC_WEIGHT>
300.063

>  <PUBCHEM_TOTAL_CHARGE>
0

>  <PUBCHEM_HEAVY_ATOM_COUNT>
22

>  <PUBCHEM_ATOM_DEF_STEREO_COUNT>
0

>  <PUBCHEM_ATOM_UDEF_STEREO_COUNT>
0

>  <PUBCHEM_BOND_DEF_STEREO_COUNT>
0

>  <PUBCHEM_BOND_UDEF_STEREO_COUNT>
0

>  <PUBCHEM_ISOTOPIC_ATOM_COUNT>
0

>  <PUBCHEM_COMPONENT_COUNT>
1

>  <PUBCHEM_CACTVS_TAUTO_COUNT>
69

>  <PUBCHEM_COORDINATE_TYPE>
1
5
255

>  <PUBCHEM_BONDANNOTATIONS>
1  8  8
1  9  8
10  14  8
10  16  8
11  12  8
13  18  8
14  19  8
15  17  8
16  20  8
17  18  8
19  21  8
20  21  8
7  11  8
7  13  8
7  9  8
8  12  8
9  15  8

$$$$
