13890715
 OpenBabel06101807152D

 53 56  0  0  1  0  0  0  0  0999 V2000
    2.3052   -2.0737    0.0000 O   0  0  0  0  0  0  0  0  0  0  0  0
    3.8128   -2.9264    0.0000 O   0  0  0  0  0  0  0  0  0  0  0  0
    9.0768    2.8310    0.0000 O   0  0  0  0  0  0  0  0  0  0  0  0
    4.7330    0.4016    0.0000 C   0  0  3  0  0  0  0  0  0  0  0  0
    5.6405    0.9130    0.0000 C   0  0  3  0  0  0  0  0  0  0  0  0
    6.5090    0.4173    0.0000 C   0  0  3  0  0  0  0  0  0  0  0  0
    4.7302   -0.6400    0.0000 C   0  0  3  0  0  0  0  0  0  0  0  0
    6.5302   -0.6241    0.0000 C   0  0  0  0  0  0  0  0  0  0  0  0
    6.4845    1.5986    0.0000 C   0  0  0  0  0  0  0  0  0  0  0  0
    5.6349   -1.1564    0.0000 C   0  0  0  0  0  0  0  0  0  0  0  0
    5.4865    1.9010    0.0000 C   0  0  0  0  0  0  0  0  0  0  0  0
    3.7975   -1.1944    0.0000 C   0  0  3  0  0  0  0  0  0  0  0  0
    7.1606    2.5677    0.0000 C   0  0  3  0  0  0  0  0  0  0  0  0
    3.8034    0.9610    0.0000 C   0  0  0  0  0  0  0  0  0  0  0  0
    6.1630    2.6375    0.0000 C   0  0  0  0  0  0  0  0  0  0  0  0
    7.4380    0.7873    0.0000 C   0  0  0  0  0  0  0  0  0  0  0  0
    4.7358    1.4016    0.0000 C   0  0  0  0  0  0  0  0  0  0  0  0
    2.8552   -0.6566    0.0000 C   0  0  0  0  0  0  0  0  0  0  0  0
    7.7280    1.7443    0.0000 C   0  0  0  0  0  0  0  0  0  0  0  0
    2.8582    0.4284    0.0000 C   0  0  0  0  0  0  0  0  0  0  0  0
    4.3052   -2.0560    0.0000 C   0  0  0  0  0  0  0  0  0  0  0  0
    3.3052   -2.0648    0.0000 C   0  0  0  0  0  0  0  0  0  0  0  0
    8.7161    1.8983    0.0000 C   0  0  0  0  0  0  0  0  0  0  0  0
    6.1510    1.2648    0.0000 H   0  0  0  0  0  0  0  0  0  0  0  0
    4.7357   -1.2600    0.0000 H   0  0  0  0  0  0  0  0  0  0  0  0
    6.7512   -1.2034    0.0000 H   0  0  0  0  0  0  0  0  0  0  0  0
    7.1388   -0.5056    0.0000 H   0  0  0  0  0  0  0  0  0  0  0  0
    6.1103    2.0930    0.0000 H   0  0  0  0  0  0  0  0  0  0  0  0
    5.8988    1.3952    0.0000 H   0  0  0  0  0  0  0  0  0  0  0  0
    5.2399   -1.6343    0.0000 H   0  0  0  0  0  0  0  0  0  0  0  0
    6.0382   -1.6272    0.0000 H   0  0  0  0  0  0  0  0  0  0  0  0
    5.1347    2.4116    0.0000 H   0  0  0  0  0  0  0  0  0  0  0  0
    4.9105    1.6716    0.0000 H   0  0  0  0  0  0  0  0  0  0  0  0
    7.4679    3.1062    0.0000 H   0  0  0  0  0  0  0  0  0  0  0  0
    4.2093    1.4297    0.0000 H   0  0  0  0  0  0  0  0  0  0  0  0
    3.4111    1.4411    0.0000 H   0  0  0  0  0  0  0  0  0  0  0  0
    6.3428    3.2308    0.0000 H   0  0  0  0  0  0  0  0  0  0  0  0
    5.6246    2.9448    0.0000 H   0  0  0  0  0  0  0  0  0  0  0  0
    7.8946    0.3678    0.0000 H   0  0  0  0  0  0  0  0  0  0  0  0
    5.3557    1.3999    0.0000 H   0  0  0  0  0  0  0  0  0  0  0  0
    4.7374    2.0216    0.0000 H   0  0  0  0  0  0  0  0  0  0  0  0
    4.1158    1.4033    0.0000 H   0  0  0  0  0  0  0  0  0  0  0  0
    2.2446   -0.5489    0.0000 H   0  0  0  0  0  0  0  0  0  0  0  0
    2.6446   -1.2397    0.0000 H   0  0  0  0  0  0  0  0  0  0  0  0
    2.6507    1.0126    0.0000 H   0  0  0  0  0  0  0  0  0  0  0  0
    2.2470    0.3239    0.0000 H   0  0  0  0  0  0  0  0  0  0  0  0
    3.7710   -2.3707    0.0000 H   0  0  0  0  0  0  0  0  0  0  0  0
    4.6199   -2.5902    0.0000 H   0  0  0  0  0  0  0  0  0  0  0  0
    4.8393   -1.7413    0.0000 H   0  0  0  0  0  0  0  0  0  0  0  0
    8.7037    1.2784    0.0000 H   0  0  0  0  0  0  0  0  0  0  0  0
    9.3244    1.7784    0.0000 H   0  0  0  0  0  0  0  0  0  0  0  0
    2.0000   -2.6133    0.0000 H   0  0  0  0  0  0  0  0  0  0  0  0
    9.6894    2.9264    0.0000 H   0  0  0  0  0  0  0  0  0  0  0  0
  1 22  1  0  0  0  0
  1 52  1  0  0  0  0
  2 22  2  0  0  0  0
  3 23  1  0  0  0  0
  3 53  1  0  0  0  0
  4  5  1  0  0  0  0
  4  7  1  0  0  0  0
  4 14  1  0  0  0  0
  4 17  1  0  0  0  0
  5  6  1  0  0  0  0
  5 11  1  0  0  0  0
  5 24  1  0  0  0  0
  6  8  1  0  0  0  0
  6  9  1  0  0  0  0
  6 16  1  0  0  0  0
  7 10  1  0  0  0  0
  7 12  1  0  0  0  0
  7 25  1  0  0  0  0
  8 10  1  0  0  0  0
  8 26  1  0  0  0  0
  8 27  1  0  0  0  0
  9 13  1  0  0  0  0
  9 28  1  0  0  0  0
  9 29  1  0  0  0  0
 10 30  1  0  0  0  0
 10 31  1  0  0  0  0
 11 15  1  0  0  0  0
 11 32  1  0  0  0  0
 11 33  1  0  0  0  0
 12 18  1  0  0  0  0
 12 21  1  0  0  0  0
 12 22  1  0  0  0  0
 13 15  1  0  0  0  0
 13 19  1  0  0  0  0
 13 34  1  0  0  0  0
 14 20  1  0  0  0  0
 14 35  1  0  0  0  0
 14 36  1  0  0  0  0
 15 37  1  0  0  0  0
 15 38  1  0  0  0  0
 16 19  2  0  0  0  0
 16 39  1  0  0  0  0
 17 40  1  0  0  0  0
 17 41  1  0  0  0  0
 17 42  1  0  0  0  0
 18 20  1  0  0  0  0
 18 43  1  0  0  0  0
 18 44  1  0  0  0  0
 19 23  1  0  0  0  0
 20 45  1  0  0  0  0
 20 46  1  0  0  0  0
 21 47  1  0  0  0  0
 21 48  1  0  0  0  0
 21 49  1  0  0  0  0
 23 50  1  0  0  0  0
 23 51  1  0  0  0  0
M  END
>  <PUBCHEM_COMPOUND_CID>
13890715

>  <PUBCHEM_COMPOUND_CANONICALIZED>
1

>  <PUBCHEM_CACTVS_COMPLEXITY>
567

>  <PUBCHEM_CACTVS_HBOND_ACCEPTOR>
3

>  <PUBCHEM_CACTVS_HBOND_DONOR>
2

>  <PUBCHEM_CACTVS_ROTATABLE_BOND>
2

>  <PUBCHEM_CACTVS_SUBSKEYS>
AAADceB4MAAAAAAAAAAAAAAAAAAAAQAAAAAwYMAABAAAAADAAAAAGgAACAAADwCggAICCAAAAgCIAiDSCAAAAAAgAAAACAEAAAgAFBIAAQAAUAAEgAAIEAOIyPCPgAAAAAAAAACAAAQAACAAAAAAAAAAAA==

>  <PUBCHEM_IUPAC_INCHI>
InChI=1S/C20H30O3/c1-18-7-3-8-19(2,17(22)23)15(18)6-9-20-10-13(4-5-16(18)20)14(11-20)12-21/h11,13,15-16,21H,3-10,12H2,1-2H3,(H,22,23)

>  <PUBCHEM_IUPAC_INCHIKEY>
XEQHVCXFKPCQNM-UHFFFAOYSA-N

>  <PUBCHEM_XLOGP3_AA>
4.2

>  <PUBCHEM_EXACT_MASS>
318.219

>  <PUBCHEM_MOLECULAR_FORMULA>
C20H30O3

>  <PUBCHEM_MOLECULAR_WEIGHT>
318.457

>  <PUBCHEM_OPENEYE_CAN_SMILES>
CC12CCCC(C1CCC34C2CCC(C3)C(=C4)CO)(C)C(=O)O

>  <PUBCHEM_OPENEYE_ISO_SMILES>
CC12CCCC(C1CCC34C2CCC(C3)C(=C4)CO)(C)C(=O)O

>  <PUBCHEM_CACTVS_TPSA>
57.5

>  <PUBCHEM_MONOISOTOPIC_WEIGHT>
318.219

>  <PUBCHEM_TOTAL_CHARGE>
0

>  <PUBCHEM_HEAVY_ATOM_COUNT>
23

>  <PUBCHEM_ATOM_DEF_STEREO_COUNT>
0

>  <PUBCHEM_ATOM_UDEF_STEREO_COUNT>
6

>  <PUBCHEM_BOND_DEF_STEREO_COUNT>
0

>  <PUBCHEM_BOND_UDEF_STEREO_COUNT>
0

>  <PUBCHEM_ISOTOPIC_ATOM_COUNT>
0

>  <PUBCHEM_COMPONENT_COUNT>
1

>  <PUBCHEM_CACTVS_TAUTO_COUNT>
1

>  <PUBCHEM_COORDINATE_TYPE>
1
5
255

>  <PUBCHEM_BONDANNOTATIONS>
12  21  3
4  17  3
5  11  3
6  5  3
7  10  3
13  9  3

$$$$
