13917511
 OpenBabel06101807152D

 67 71  0  0  1  0  0  0  0  0999 V2000
    5.9860    0.5419    0.0000 O   0  0  0  0  0  0  0  0  0  0  0  0
    6.8680   -1.9996    0.0000 O   0  0  0  0  0  0  0  0  0  0  0  0
    8.6382   -1.0027    0.0000 O   0  0  0  0  0  0  0  0  0  0  0  0
    8.6540    1.0455    0.0000 O   0  0  0  0  0  0  0  0  0  0  0  0
    6.8802    2.0697    0.0000 O   0  0  0  0  0  0  0  0  0  0  0  0
    4.8772   -1.9655    0.0000 O   0  0  0  0  0  0  0  0  0  0  0  0
    5.8477   -3.6798    0.0000 O   0  0  0  0  0  0  0  0  0  0  0  0
    5.1481    2.0630    0.0000 O   0  0  0  0  0  0  0  0  0  0  0  0
    5.8772   -1.9655    0.0000 O   0  0  0  0  0  0  0  0  0  0  0  0
    6.3741   -6.3338    0.0000 O   0  0  0  0  0  0  0  0  0  0  0  0
    5.3803   -6.3338    0.0000 O   0  0  0  0  0  0  0  0  0  0  0  0
    9.4464   -4.5757    0.0000 O   0  0  0  0  0  0  0  0  0  0  0  0
    8.4223   -6.3496    0.0000 O   0  0  0  0  0  0  0  0  0  0  0  0
    3.3321   -6.3496    0.0000 O   0  0  0  0  0  0  0  0  0  0  0  0
    2.3079   -4.5757    0.0000 O   0  0  0  0  0  0  0  0  0  0  0  0
    4.2686    5.5597    0.0000 O   0  0  0  0  0  0  0  0  0  0  0  0
    7.7327    5.5730    0.0000 O   0  0  0  0  0  0  0  0  0  0  0  0
    5.9968    6.5663    0.0000 O   0  0  0  0  0  0  0  0  0  0  0  0
    6.8680   -0.9996    0.0000 C   0  0  3  0  0  0  0  0  0  0  0  0
    7.7780   -0.4927    0.0000 C   0  0  3  0  0  0  0  0  0  0  0  0
    6.0020   -0.4996    0.0000 C   0  0  3  0  0  0  0  0  0  0  0  0
    7.7861    0.5489    0.0000 C   0  0  3  0  0  0  0  0  0  0  0  0
    6.8840    1.0697    0.0000 C   0  0  3  0  0  0  0  0  0  0  0  0
    5.1360   -0.9996    0.0000 C   0  0  0  0  0  0  0  0  0  0  0  0
    6.3772   -2.8315    0.0000 C   0  0  0  0  0  0  0  0  0  0  0  0
    6.8772   -3.6976    0.0000 C   0  0  0  0  0  0  0  0  0  0  0  0
    6.3772   -4.5636    0.0000 C   0  0  0  0  0  0  0  0  0  0  0  0
    6.0122    2.5663    0.0000 C   0  0  0  0  0  0  0  0  0  0  0  0
    5.3772   -2.8315    0.0000 C   0  0  0  0  0  0  0  0  0  0  0  0
    5.3772   -4.5636    0.0000 C   0  0  0  0  0  0  0  0  0  0  0  0
    4.8772   -3.6976    0.0000 C   0  0  0  0  0  0  0  0  0  0  0  0
    7.9187   -3.6815    0.0000 C   0  0  0  0  0  0  0  0  0  0  0  0
    6.8840   -5.4736    0.0000 C   0  0  0  0  0  0  0  0  0  0  0  0
    6.0084    3.5663    0.0000 C   0  0  0  0  0  0  0  0  0  0  0  0
    4.8703   -5.4736    0.0000 C   0  0  0  0  0  0  0  0  0  0  0  0
    3.8357   -3.6815    0.0000 C   0  0  0  0  0  0  0  0  0  0  0  0
    8.4464   -4.5795    0.0000 C   0  0  0  0  0  0  0  0  0  0  0  0
    7.9256   -5.4816    0.0000 C   0  0  0  0  0  0  0  0  0  0  0  0
    3.8287   -5.4816    0.0000 C   0  0  0  0  0  0  0  0  0  0  0  0
    3.3079   -4.5795    0.0000 C   0  0  0  0  0  0  0  0  0  0  0  0
    6.8724    4.0697    0.0000 C   0  0  0  0  0  0  0  0  0  0  0  0
    5.1404    4.0630    0.0000 C   0  0  0  0  0  0  0  0  0  0  0  0
    5.1366    5.0630    0.0000 C   0  0  0  0  0  0  0  0  0  0  0  0
    6.8686    5.0697    0.0000 C   0  0  0  0  0  0  0  0  0  0  0  0
    6.0006    5.5663    0.0000 C   0  0  0  0  0  0  0  0  0  0  0  0
    7.4026   -1.3137    0.0000 H   0  0  0  0  0  0  0  0  0  0  0  0
    7.7697   -1.1127    0.0000 H   0  0  0  0  0  0  0  0  0  0  0  0
    5.4627   -0.1937    0.0000 H   0  0  0  0  0  0  0  0  0  0  0  0
    8.3212    0.2358    0.0000 H   0  0  0  0  0  0  0  0  0  0  0  0
    7.4203    1.3807    0.0000 H   0  0  0  0  0  0  0  0  0  0  0  0
    4.9755   -0.4007    0.0000 H   0  0  0  0  0  0  0  0  0  0  0  0
    4.5160   -0.9996    0.0000 H   0  0  0  0  0  0  0  0  0  0  0  0
    9.1787   -0.6989    0.0000 H   0  0  0  0  0  0  0  0  0  0  0  0
    8.6564    1.6655    0.0000 H   0  0  0  0  0  0  0  0  0  0  0  0
    8.2225   -3.1410    0.0000 H   0  0  0  0  0  0  0  0  0  0  0  0
    3.5319   -3.1410    0.0000 H   0  0  0  0  0  0  0  0  0  0  0  0
    7.4106    3.7617    0.0000 H   0  0  0  0  0  0  0  0  0  0  0  0
    4.6047    3.7509    0.0000 H   0  0  0  0  0  0  0  0  0  0  0  0
    6.6778   -6.8742    0.0000 H   0  0  0  0  0  0  0  0  0  0  0  0
    5.0766   -6.8742    0.0000 H   0  0  0  0  0  0  0  0  0  0  0  0
    9.7544   -4.0375    0.0000 H   0  0  0  0  0  0  0  0  0  0  0  0
    9.0423   -6.3519    0.0000 H   0  0  0  0  0  0  0  0  0  0  0  0
    2.7121   -6.3519    0.0000 H   0  0  0  0  0  0  0  0  0  0  0  0
    2.0000   -4.0375    0.0000 H   0  0  0  0  0  0  0  0  0  0  0  0
    3.7329    5.2476    0.0000 H   0  0  0  0  0  0  0  0  0  0  0  0
    8.2708    5.2651    0.0000 H   0  0  0  0  0  0  0  0  0  0  0  0
    5.4587    6.8742    0.0000 H   0  0  0  0  0  0  0  0  0  0  0  0
  1 21  1  0  0  0  0
  1 23  1  0  0  0  0
  2 19  1  0  0  0  0
  2 25  1  0  0  0  0
  3 20  1  0  0  0  0
  3 53  1  0  0  0  0
  4 22  1  0  0  0  0
  4 54  1  0  0  0  0
  5 23  1  0  0  0  0
  5 28  1  0  0  0  0
  6 24  1  0  0  0  0
  6 29  1  0  0  0  0
  7 25  2  0  0  0  0
  8 28  2  0  0  0  0
  9 29  2  0  0  0  0
 10 33  1  0  0  0  0
 10 59  1  0  0  0  0
 11 35  1  0  0  0  0
 11 60  1  0  0  0  0
 12 37  1  0  0  0  0
 12 61  1  0  0  0  0
 13 38  1  0  0  0  0
 13 62  1  0  0  0  0
 14 39  1  0  0  0  0
 14 63  1  0  0  0  0
 15 40  1  0  0  0  0
 15 64  1  0  0  0  0
 16 43  1  0  0  0  0
 16 65  1  0  0  0  0
 17 44  1  0  0  0  0
 17 66  1  0  0  0  0
 18 45  1  0  0  0  0
 18 67  1  0  0  0  0
 19 20  1  0  0  0  0
 19 21  1  0  0  0  0
 19 46  1  0  0  0  0
 20 22  1  0  0  0  0
 20 47  1  0  0  0  0
 21 24  1  0  0  0  0
 21 48  1  0  0  0  0
 22 23  1  0  0  0  0
 22 49  1  0  0  0  0
 23 50  1  0  0  0  0
 24 51  1  0  0  0  0
 24 52  1  0  0  0  0
 25 26  1  0  0  0  0
 26 27  1  0  0  0  0
 26 32  2  0  0  0  0
 27 30  1  0  0  0  0
 27 33  2  0  0  0  0
 28 34  1  0  0  0  0
 29 31  1  0  0  0  0
 30 31  1  0  0  0  0
 30 35  2  0  0  0  0
 31 36  2  0  0  0  0
 32 37  1  0  0  0  0
 32 55  1  0  0  0  0
 33 38  1  0  0  0  0
 34 41  2  0  0  0  0
 34 42  1  0  0  0  0
 35 39  1  0  0  0  0
 36 40  1  0  0  0  0
 36 56  1  0  0  0  0
 37 38  2  0  0  0  0
 39 40  2  0  0  0  0
 41 44  1  0  0  0  0
 41 57  1  0  0  0  0
 42 43  2  0  0  0  0
 42 58  1  0  0  0  0
 43 45  1  0  0  0  0
 44 45  2  0  0  0  0
M  END
>  <PUBCHEM_COMPOUND_CID>
13917511

>  <PUBCHEM_COMPOUND_CANONICALIZED>
1

>  <PUBCHEM_CACTVS_COMPLEXITY>
1090

>  <PUBCHEM_CACTVS_HBOND_ACCEPTOR>
18

>  <PUBCHEM_CACTVS_HBOND_DONOR>
11

>  <PUBCHEM_CACTVS_ROTATABLE_BOND>
3

>  <PUBCHEM_CACTVS_SUBSKEYS>
AAADceB4PgAAAAAAAAAAAAAAAAAAAAAAAAA0YMEAAAAAAAABUAAAGgAACAAADBSwmAMwDoAABgCIAiDSCAACAAAkIAAAiAEGiMgZNzKCNRqicQElwBUPuYfK7PzOoAABCAAYQABAAAIQADCAAAAAAAAAAA==

>  <PUBCHEM_IUPAC_INCHI>
InChI=1S/C27H22O18/c28-9-1-6(2-10(29)16(9)32)24(39)45-27-22(38)21(37)23-13(43-27)5-42-25(40)7-3-11(30)17(33)19(35)14(7)15-8(26(41)44-23)4-12(31)18(34)20(15)36/h1-4,13,21-23,27-38H,5H2

>  <PUBCHEM_IUPAC_INCHIKEY>
FYIJLTSMNXUNLT-UHFFFAOYSA-N

>  <PUBCHEM_XLOGP3_AA>
0.1

>  <PUBCHEM_EXACT_MASS>
634.081

>  <PUBCHEM_MOLECULAR_FORMULA>
C27H22O18

>  <PUBCHEM_MOLECULAR_WEIGHT>
634.455

>  <PUBCHEM_OPENEYE_CAN_SMILES>
C1C2C(C(C(C(O2)OC(=O)C3=CC(=C(C(=C3)O)O)O)O)O)OC(=O)C4=CC(=C(C(=C4C5=C(C(=C(C=C5C(=O)O1)O)O)O)O)O)O

>  <PUBCHEM_OPENEYE_ISO_SMILES>
C1C2C(C(C(C(O2)OC(=O)C3=CC(=C(C(=C3)O)O)O)O)O)OC(=O)C4=CC(=C(C(=C4C5=C(C(=C(C=C5C(=O)O1)O)O)O)O)O)O

>  <PUBCHEM_CACTVS_TPSA>
311

>  <PUBCHEM_MONOISOTOPIC_WEIGHT>
634.081

>  <PUBCHEM_TOTAL_CHARGE>
0

>  <PUBCHEM_HEAVY_ATOM_COUNT>
45

>  <PUBCHEM_ATOM_DEF_STEREO_COUNT>
0

>  <PUBCHEM_ATOM_UDEF_STEREO_COUNT>
5

>  <PUBCHEM_BOND_DEF_STEREO_COUNT>
0

>  <PUBCHEM_BOND_UDEF_STEREO_COUNT>
0

>  <PUBCHEM_ISOTOPIC_ATOM_COUNT>
0

>  <PUBCHEM_COMPONENT_COUNT>
1

>  <PUBCHEM_CACTVS_TAUTO_COUNT>
998

>  <PUBCHEM_COORDINATE_TYPE>
1
5
255

>  <PUBCHEM_BONDANNOTATIONS>
19  2  3
21  24  3
26  27  8
26  32  8
27  33  8
20  3  3
30  31  8
30  35  8
31  36  8
32  37  8
33  38  8
34  41  8
34  42  8
35  39  8
36  40  8
37  38  8
39  40  8
22  4  3
41  44  8
42  43  8
43  45  8
44  45  8
23  5  3

$$$$
