13915598
 OpenBabel06101807152D

128132  0  0  1  0  0  0  0  0999 V2000
   15.8563   -2.5933    0.0000 O   0  0  0  0  0  0  0  0  0  0  0  0
   14.9961   -1.0900    0.0000 O   0  0  0  0  0  0  0  0  0  0  0  0
   20.3834   -1.0410    0.0000 C   0  0  3  0  0  0  0  0  0  0  0  0
   19.5173   -0.5410    0.0000 C   0  0  3  0  0  0  0  0  0  0  0  0
   18.6073   -1.0478    0.0000 C   0  0  3  0  0  0  0  0  0  0  0  0
   21.2494   -0.5410    0.0000 C   0  0  3  0  0  0  0  0  0  0  0  0
   18.5993   -2.0894    0.0000 C   0  0  3  0  0  0  0  0  0  0  0  0
   20.3994   -2.0825    0.0000 C   0  0  0  0  0  0  0  0  0  0  0  0
   21.2494    0.4590    0.0000 C   0  0  0  0  0  0  0  0  0  0  0  0
   19.5014   -2.6102    0.0000 C   0  0  0  0  0  0  0  0  0  0  0  0
   17.6639   -2.6391    0.0000 C   0  0  0  0  0  0  0  0  0  0  0  0
   22.1433    0.9937    0.0000 C   0  0  3  0  0  0  0  0  0  0  0  0
   23.0494    0.4799    0.0000 C   0  0  3  0  0  0  0  0  0  0  0  0
   19.5173    0.4590    0.0000 C   0  0  0  0  0  0  0  0  0  0  0  0
   22.1433   -1.0756    0.0000 C   0  0  0  0  0  0  0  0  0  0  0  0
   17.6805   -0.4837    0.0000 C   0  0  0  0  0  0  0  0  0  0  0  0
   23.0494   -0.5618    0.0000 C   0  0  0  0  0  0  0  0  0  0  0  0
   21.0261   -1.8070    0.0000 C   0  0  0  0  0  0  0  0  0  0  0  0
   16.7242   -2.0966    0.0000 C   0  0  3  0  0  0  0  0  0  0  0  0
   20.3834    0.9590    0.0000 C   0  0  0  0  0  0  0  0  0  0  0  0
   18.6150   -0.0478    0.0000 C   0  0  0  0  0  0  0  0  0  0  0  0
   16.7326   -1.0117    0.0000 C   0  0  0  0  0  0  0  0  0  0  0  0
   21.5915   -1.4806    0.0000 C   0  0  0  0  0  0  0  0  0  0  0  0
   22.1182    2.0784    0.0000 C   0  0  0  0  0  0  0  0  0  0  0  0
   23.9932    1.0151    0.0000 C   0  0  0  0  0  0  0  0  0  0  0  0
   23.0494    2.6353    0.0000 C   0  0  0  0  0  0  0  0  0  0  0  0
   23.9932    2.1001    0.0000 C   0  0  0  0  0  0  0  0  0  0  0  0
   17.1672   -3.5071    0.0000 C   0  0  0  0  0  0  0  0  0  0  0  0
   18.1672   -3.5032    0.0000 C   0  0  0  0  0  0  0  0  0  0  0  0
   23.9193   -0.0135    0.0000 C   0  0  0  0  0  0  0  0  0  0  0  0
   23.5393    3.5071    0.0000 C   0  0  0  0  0  0  0  0  0  0  0  0
   22.5394    3.4955    0.0000 C   0  0  0  0  0  0  0  0  0  0  0  0
   14.9922   -2.0900    0.0000 C   0  0  0  0  0  0  0  0  0  0  0  0
   14.1243   -2.5866    0.0000 C   0  0  0  0  0  0  0  0  0  0  0  0
   13.2602   -2.0833    0.0000 C   0  0  0  0  0  0  0  0  0  0  0  0
   12.3922   -2.5799    0.0000 C   0  0  0  0  0  0  0  0  0  0  0  0
   11.5281   -2.0766    0.0000 C   0  0  0  0  0  0  0  0  0  0  0  0
   10.6602   -2.5733    0.0000 C   0  0  0  0  0  0  0  0  0  0  0  0
    9.7961   -2.0699    0.0000 C   0  0  0  0  0  0  0  0  0  0  0  0
    8.9282   -2.5666    0.0000 C   0  0  0  0  0  0  0  0  0  0  0  0
    8.0641   -2.0632    0.0000 C   0  0  0  0  0  0  0  0  0  0  0  0
    7.1961   -2.5599    0.0000 C   0  0  0  0  0  0  0  0  0  0  0  0
    6.3320   -2.0566    0.0000 C   0  0  0  0  0  0  0  0  0  0  0  0
    5.4641   -2.5532    0.0000 C   0  0  0  0  0  0  0  0  0  0  0  0
    4.6000   -2.0499    0.0000 C   0  0  0  0  0  0  0  0  0  0  0  0
    3.7320   -2.5466    0.0000 C   0  0  0  0  0  0  0  0  0  0  0  0
    2.8680   -2.0432    0.0000 C   0  0  0  0  0  0  0  0  0  0  0  0
    2.0000   -2.5399    0.0000 C   0  0  0  0  0  0  0  0  0  0  0  0
   20.0543   -0.2310    0.0000 H   0  0  0  0  0  0  0  0  0  0  0  0
   18.6017   -2.7094    0.0000 H   0  0  0  0  0  0  0  0  0  0  0  0
   20.6175   -2.6629    0.0000 H   0  0  0  0  0  0  0  0  0  0  0  0
   21.0086   -1.9670    0.0000 H   0  0  0  0  0  0  0  0  0  0  0  0
   19.1041   -3.0862    0.0000 H   0  0  0  0  0  0  0  0  0  0  0  0
   19.9023   -3.0831    0.0000 H   0  0  0  0  0  0  0  0  0  0  0  0
   22.6754    1.3119    0.0000 H   0  0  0  0  0  0  0  0  0  0  0  0
   19.3053    1.0416    0.0000 H   0  0  0  0  0  0  0  0  0  0  0  0
   18.9068    0.3514    0.0000 H   0  0  0  0  0  0  0  0  0  0  0  0
   21.7387   -1.5454    0.0000 H   0  0  0  0  0  0  0  0  0  0  0  0
   22.5370   -1.5546    0.0000 H   0  0  0  0  0  0  0  0  0  0  0  0
   18.0887   -0.0171    0.0000 H   0  0  0  0  0  0  0  0  0  0  0  0
   17.2906   -0.0017    0.0000 H   0  0  0  0  0  0  0  0  0  0  0  0
   23.2585   -1.1455    0.0000 H   0  0  0  0  0  0  0  0  0  0  0  0
   23.6603   -0.4557    0.0000 H   0  0  0  0  0  0  0  0  0  0  0  0
   20.5512   -2.2055    0.0000 H   0  0  0  0  0  0  0  0  0  0  0  0
   21.4247   -2.2820    0.0000 H   0  0  0  0  0  0  0  0  0  0  0  0
   21.5011   -1.4085    0.0000 H   0  0  0  0  0  0  0  0  0  0  0  0
   16.1891   -1.7835    0.0000 H   0  0  0  0  0  0  0  0  0  0  0  0
   20.3834    1.5790    0.0000 H   0  0  0  0  0  0  0  0  0  0  0  0
   19.2350   -0.0526    0.0000 H   0  0  0  0  0  0  0  0  0  0  0  0
   18.6198    0.5721    0.0000 H   0  0  0  0  0  0  0  0  0  0  0  0
   17.9951   -0.0431    0.0000 H   0  0  0  0  0  0  0  0  0  0  0  0
   16.5281   -0.4264    0.0000 H   0  0  0  0  0  0  0  0  0  0  0  0
   16.1210   -1.1131    0.0000 H   0  0  0  0  0  0  0  0  0  0  0  0
   21.0089   -1.6927    0.0000 H   0  0  0  0  0  0  0  0  0  0  0  0
   21.8036   -2.0632    0.0000 H   0  0  0  0  0  0  0  0  0  0  0  0
   22.1741   -1.2685    0.0000 H   0  0  0  0  0  0  0  0  0  0  0  0
   21.8957    2.6571    0.0000 H   0  0  0  0  0  0  0  0  0  0  0  0
   21.5100    1.9582    0.0000 H   0  0  0  0  0  0  0  0  0  0  0  0
   24.2022    0.4314    0.0000 H   0  0  0  0  0  0  0  0  0  0  0  0
   24.6040    1.1212    0.0000 H   0  0  0  0  0  0  0  0  0  0  0  0
   24.6040    1.9940    0.0000 H   0  0  0  0  0  0  0  0  0  0  0  0
   24.2022    2.6838    0.0000 H   0  0  0  0  0  0  0  0  0  0  0  0
   16.6291   -3.1992    0.0000 H   0  0  0  0  0  0  0  0  0  0  0  0
   16.8593   -4.0452    0.0000 H   0  0  0  0  0  0  0  0  0  0  0  0
   17.7054   -3.8150    0.0000 H   0  0  0  0  0  0  0  0  0  0  0  0
   17.6315   -3.8153    0.0000 H   0  0  0  0  0  0  0  0  0  0  0  0
   18.4793   -4.0390    0.0000 H   0  0  0  0  0  0  0  0  0  0  0  0
   18.7030   -3.1912    0.0000 H   0  0  0  0  0  0  0  0  0  0  0  0
   23.6134   -0.5528    0.0000 H   0  0  0  0  0  0  0  0  0  0  0  0
   24.4586   -0.3193    0.0000 H   0  0  0  0  0  0  0  0  0  0  0  0
   24.2251    0.5259    0.0000 H   0  0  0  0  0  0  0  0  0  0  0  0
   24.0798    3.2033    0.0000 H   0  0  0  0  0  0  0  0  0  0  0  0
   23.8431    4.0476    0.0000 H   0  0  0  0  0  0  0  0  0  0  0  0
   22.9989    3.8108    0.0000 H   0  0  0  0  0  0  0  0  0  0  0  0
   23.0727    3.8117    0.0000 H   0  0  0  0  0  0  0  0  0  0  0  0
   22.2232    4.0288    0.0000 H   0  0  0  0  0  0  0  0  0  0  0  0
   22.0061    3.1793    0.0000 H   0  0  0  0  0  0  0  0  0  0  0  0
   13.7239   -3.0600    0.0000 H   0  0  0  0  0  0  0  0  0  0  0  0
   14.5210   -3.0631    0.0000 H   0  0  0  0  0  0  0  0  0  0  0  0
   13.6605   -1.6099    0.0000 H   0  0  0  0  0  0  0  0  0  0  0  0
   12.8635   -1.6068    0.0000 H   0  0  0  0  0  0  0  0  0  0  0  0
   11.9919   -3.0534    0.0000 H   0  0  0  0  0  0  0  0  0  0  0  0
   12.7889   -3.0564    0.0000 H   0  0  0  0  0  0  0  0  0  0  0  0
   11.9285   -1.6032    0.0000 H   0  0  0  0  0  0  0  0  0  0  0  0
   11.1314   -1.6001    0.0000 H   0  0  0  0  0  0  0  0  0  0  0  0
   10.2598   -3.0467    0.0000 H   0  0  0  0  0  0  0  0  0  0  0  0
   11.0569   -3.0497    0.0000 H   0  0  0  0  0  0  0  0  0  0  0  0
   10.1965   -1.5965    0.0000 H   0  0  0  0  0  0  0  0  0  0  0  0
    9.3994   -1.5934    0.0000 H   0  0  0  0  0  0  0  0  0  0  0  0
    8.5278   -3.0400    0.0000 H   0  0  0  0  0  0  0  0  0  0  0  0
    9.3248   -3.0431    0.0000 H   0  0  0  0  0  0  0  0  0  0  0  0
    8.4644   -1.5898    0.0000 H   0  0  0  0  0  0  0  0  0  0  0  0
    7.6674   -1.5868    0.0000 H   0  0  0  0  0  0  0  0  0  0  0  0
    6.7958   -3.0333    0.0000 H   0  0  0  0  0  0  0  0  0  0  0  0
    7.5928   -3.0364    0.0000 H   0  0  0  0  0  0  0  0  0  0  0  0
    6.7324   -1.5832    0.0000 H   0  0  0  0  0  0  0  0  0  0  0  0
    5.9353   -1.5801    0.0000 H   0  0  0  0  0  0  0  0  0  0  0  0
    5.0637   -3.0266    0.0000 H   0  0  0  0  0  0  0  0  0  0  0  0
    5.8608   -3.0297    0.0000 H   0  0  0  0  0  0  0  0  0  0  0  0
    5.0003   -1.5765    0.0000 H   0  0  0  0  0  0  0  0  0  0  0  0
    4.2033   -1.5734    0.0000 H   0  0  0  0  0  0  0  0  0  0  0  0
    3.3317   -3.0200    0.0000 H   0  0  0  0  0  0  0  0  0  0  0  0
    4.1287   -3.0230    0.0000 H   0  0  0  0  0  0  0  0  0  0  0  0
    3.2683   -1.5698    0.0000 H   0  0  0  0  0  0  0  0  0  0  0  0
    2.4712   -1.5667    0.0000 H   0  0  0  0  0  0  0  0  0  0  0  0
    1.6921   -2.0018    0.0000 H   0  0  0  0  0  0  0  0  0  0  0  0
    1.4619   -2.8478    0.0000 H   0  0  0  0  0  0  0  0  0  0  0  0
    2.3079   -3.0780    0.0000 H   0  0  0  0  0  0  0  0  0  0  0  0
  1 19  1  0  0  0  0
  1 33  1  0  0  0  0
  2 33  2  0  0  0  0
  3  4  1  0  0  0  0
  3  6  1  0  0  0  0
  3  8  1  0  0  0  0
  3 18  1  0  0  0  0
  4  5  1  0  0  0  0
  4 14  1  0  0  0  0
  4 49  1  0  0  0  0
  5  7  1  0  0  0  0
  5 16  1  0  0  0  0
  5 21  1  0  0  0  0
  6  9  1  0  0  0  0
  6 15  1  0  0  0  0
  6 23  1  0  0  0  0
  7 10  1  0  0  0  0
  7 11  1  0  0  0  0
  7 50  1  0  0  0  0
  8 10  1  0  0  0  0
  8 51  1  0  0  0  0
  8 52  1  0  0  0  0
  9 12  1  0  0  0  0
  9 20  2  0  0  0  0
 10 53  1  0  0  0  0
 10 54  1  0  0  0  0
 11 19  1  0  0  0  0
 11 28  1  0  0  0  0
 11 29  1  0  0  0  0
 12 13  1  0  0  0  0
 12 24  1  0  0  0  0
 12 55  1  0  0  0  0
 13 17  1  0  0  0  0
 13 25  1  0  0  0  0
 13 30  1  0  0  0  0
 14 20  1  0  0  0  0
 14 56  1  0  0  0  0
 14 57  1  0  0  0  0
 15 17  1  0  0  0  0
 15 58  1  0  0  0  0
 15 59  1  0  0  0  0
 16 22  1  0  0  0  0
 16 60  1  0  0  0  0
 16 61  1  0  0  0  0
 17 62  1  0  0  0  0
 17 63  1  0  0  0  0
 18 64  1  0  0  0  0
 18 65  1  0  0  0  0
 18 66  1  0  0  0  0
 19 22  1  0  0  0  0
 19 67  1  0  0  0  0
 20 68  1  0  0  0  0
 21 69  1  0  0  0  0
 21 70  1  0  0  0  0
 21 71  1  0  0  0  0
 22 72  1  0  0  0  0
 22 73  1  0  0  0  0
 23 74  1  0  0  0  0
 23 75  1  0  0  0  0
 23 76  1  0  0  0  0
 24 26  1  0  0  0  0
 24 77  1  0  0  0  0
 24 78  1  0  0  0  0
 25 27  1  0  0  0  0
 25 79  1  0  0  0  0
 25 80  1  0  0  0  0
 26 27  1  0  0  0  0
 26 31  1  0  0  0  0
 26 32  1  0  0  0  0
 27 81  1  0  0  0  0
 27 82  1  0  0  0  0
 28 83  1  0  0  0  0
 28 84  1  0  0  0  0
 28 85  1  0  0  0  0
 29 86  1  0  0  0  0
 29 87  1  0  0  0  0
 29 88  1  0  0  0  0
 30 89  1  0  0  0  0
 30 90  1  0  0  0  0
 30 91  1  0  0  0  0
 31 92  1  0  0  0  0
 31 93  1  0  0  0  0
 31 94  1  0  0  0  0
 32 95  1  0  0  0  0
 32 96  1  0  0  0  0
 32 97  1  0  0  0  0
 33 34  1  0  0  0  0
 34 35  1  0  0  0  0
 34 98  1  0  0  0  0
 34 99  1  0  0  0  0
 35 36  1  0  0  0  0
 35100  1  0  0  0  0
 35101  1  0  0  0  0
 36 37  1  0  0  0  0
 36102  1  0  0  0  0
 36103  1  0  0  0  0
 37 38  1  0  0  0  0
 37104  1  0  0  0  0
 37105  1  0  0  0  0
 38 39  1  0  0  0  0
 38106  1  0  0  0  0
 38107  1  0  0  0  0
 39 40  1  0  0  0  0
 39108  1  0  0  0  0
 39109  1  0  0  0  0
 40 41  1  0  0  0  0
 40110  1  0  0  0  0
 40111  1  0  0  0  0
 41 42  1  0  0  0  0
 41112  1  0  0  0  0
 41113  1  0  0  0  0
 42 43  1  0  0  0  0
 42114  1  0  0  0  0
 42115  1  0  0  0  0
 43 44  1  0  0  0  0
 43116  1  0  0  0  0
 43117  1  0  0  0  0
 44 45  1  0  0  0  0
 44118  1  0  0  0  0
 44119  1  0  0  0  0
 45 46  1  0  0  0  0
 45120  1  0  0  0  0
 45121  1  0  0  0  0
 46 47  1  0  0  0  0
 46122  1  0  0  0  0
 46123  1  0  0  0  0
 47 48  1  0  0  0  0
 47124  1  0  0  0  0
 47125  1  0  0  0  0
 48126  1  0  0  0  0
 48127  1  0  0  0  0
 48128  1  0  0  0  0
M  END
>  <PUBCHEM_COMPOUND_CID>
13915598

>  <PUBCHEM_COMPOUND_CANONICALIZED>
1

>  <PUBCHEM_CACTVS_COMPLEXITY>
1120

>  <PUBCHEM_CACTVS_HBOND_ACCEPTOR>
2

>  <PUBCHEM_CACTVS_HBOND_DONOR>
0

>  <PUBCHEM_CACTVS_ROTATABLE_BOND>
16

>  <PUBCHEM_CACTVS_SUBSKEYS>
AAADcfB8MAAAAAAAAAAAAAAAAAAAAAAAAAAwYMGCAAAAAADAAAAAGgAAAAAADxSggAICCAAABACIAiDSCAAAAAAgAAAACAEAAAgAABIAAQACAAAEgAAIAAOIyPCPgAAAAAAAAADAAAYAADAAAAAAAAAAAA==

>  <PUBCHEM_IUPAC_OPENEYE_NAME>
(4,4,6a,6b,8a,11,11,14b-octamethyl-1,2,3,4a,5,6,7,8,9,10,12,12a,14,14a-tetradecahydropicen-3-yl) hexadecanoate

>  <PUBCHEM_IUPAC_CAS_NAME>
hexadecanoic acid (4,4,6a,6b,8a,11,11,14b-octamethyl-1,2,3,4a,5,6,7,8,9,10,12,12a,14,14a-tetradecahydropicen-3-yl) ester

>  <PUBCHEM_IUPAC_NAME>
(4,4,6a,6b,8a,11,11,14b-octamethyl-1,2,3,4a,5,6,7,8,9,10,12,12a,14,14a-tetradecahydropicen-3-yl) hexadecanoate

>  <PUBCHEM_IUPAC_SYSTEMATIC_NAME>
(4,4,6a,6b,8a,11,11,14b-octamethyl-1,2,3,4a,5,6,7,8,9,10,12,12a,14,14a-tetradecahydropicen-3-yl) hexadecanoate

>  <PUBCHEM_IUPAC_TRADITIONAL_NAME>
palmitic acid (4,4,6a,6b,8a,11,11,14b-octamethyl-1,2,3,4a,5,6,7,8,9,10,12,12a,14,14a-tetradecahydropicen-3-yl) ester

>  <PUBCHEM_IUPAC_INCHI>
InChI=1S/C46H80O2/c1-10-11-12-13-14-15-16-17-18-19-20-21-22-23-40(47)48-39-27-28-44(7)37(42(39,4)5)26-29-46(9)38(44)25-24-35-36-34-41(2,3)30-31-43(36,6)32-33-45(35,46)8/h24,36-39H,10-23,25-34H2,1-9H3

>  <PUBCHEM_IUPAC_INCHIKEY>
VFSRKCNYYCXRGI-UHFFFAOYSA-N

>  <PUBCHEM_XLOGP3_AA>
17.1

>  <PUBCHEM_EXACT_MASS>
664.616

>  <PUBCHEM_MOLECULAR_FORMULA>
C46H80O2

>  <PUBCHEM_MOLECULAR_WEIGHT>
665.144

>  <PUBCHEM_OPENEYE_CAN_SMILES>
CCCCCCCCCCCCCCCC(=O)OC1CCC2(C(C1(C)C)CCC3(C2CC=C4C3(CCC5(C4CC(CC5)(C)C)C)C)C)C

>  <PUBCHEM_OPENEYE_ISO_SMILES>
CCCCCCCCCCCCCCCC(=O)OC1CCC2(C(C1(C)C)CCC3(C2CC=C4C3(CCC5(C4CC(CC5)(C)C)C)C)C)C

>  <PUBCHEM_CACTVS_TPSA>
26.3

>  <PUBCHEM_MONOISOTOPIC_WEIGHT>
664.616

>  <PUBCHEM_TOTAL_CHARGE>
0

>  <PUBCHEM_HEAVY_ATOM_COUNT>
48

>  <PUBCHEM_ATOM_DEF_STEREO_COUNT>
0

>  <PUBCHEM_ATOM_UDEF_STEREO_COUNT>
8

>  <PUBCHEM_BOND_DEF_STEREO_COUNT>
0

>  <PUBCHEM_BOND_UDEF_STEREO_COUNT>
0

>  <PUBCHEM_ISOTOPIC_ATOM_COUNT>
0

>  <PUBCHEM_COMPONENT_COUNT>
1

>  <PUBCHEM_CACTVS_TAUTO_COUNT>
1

>  <PUBCHEM_COORDINATE_TYPE>
1
5
255

>  <PUBCHEM_BONDANNOTATIONS>
19  1  3
12  24  3
13  30  3
3  18  3
4  14  3
5  21  3
6  23  3
7  10  3

$$$$
