1392
 OpenBabel06101807152D

 93 92  0  0  1  0  0  0  0  0999 V2000
    6.3301   -0.5670    0.0000 P   0  0  3  0  0  0  0  0  0  0  0  0
    5.4641   -1.0670    0.0000 O   0  0  0  0  0  0  0  0  0  0  0  0
   10.6603   -0.0670    0.0000 O   0  0  0  0  0  0  0  0  0  0  0  0
    7.1962   -0.0670    0.0000 O   0  0  0  0  0  0  0  0  0  0  0  0
    8.9282    0.9330    0.0000 O   0  0  0  0  0  0  0  0  0  0  0  0
    5.8301    0.2990    0.0000 O   0  5  0  0  0  0  0  0  0  0  0  0
    6.8301   -1.4330    0.0000 O   0  0  0  0  0  0  0  0  0  0  0  0
    2.8660   -0.5670    0.0000 N   0  3  0  0  0  0  0  0  0  0  0  0
   18.4545   -0.5670    0.0000 C   0  0  0  0  0  0  0  0  0  0  0  0
   17.5885   -0.0670    0.0000 C   0  0  0  0  0  0  0  0  0  0  0  0
   19.3205   -0.0670    0.0000 C   0  0  0  0  0  0  0  0  0  0  0  0
   16.7224   -0.5670    0.0000 C   0  0  0  0  0  0  0  0  0  0  0  0
   20.1865   -0.5670    0.0000 C   0  0  0  0  0  0  0  0  0  0  0  0
   15.8564   -0.0670    0.0000 C   0  0  0  0  0  0  0  0  0  0  0  0
   21.0526   -0.0670    0.0000 C   0  0  0  0  0  0  0  0  0  0  0  0
   14.9904   -0.5670    0.0000 C   0  0  0  0  0  0  0  0  0  0  0  0
   21.9186   -0.5670    0.0000 C   0  0  0  0  0  0  0  0  0  0  0  0
   14.1244   -0.0670    0.0000 C   0  0  0  0  0  0  0  0  0  0  0  0
   22.7846   -0.0670    0.0000 C   0  0  0  0  0  0  0  0  0  0  0  0
   13.2583   -0.5670    0.0000 C   0  0  0  0  0  0  0  0  0  0  0  0
    3.7320   -1.0670    0.0000 C   0  0  0  0  0  0  0  0  0  0  0  0
   23.6506   -0.5670    0.0000 C   0  0  0  0  0  0  0  0  0  0  0  0
   12.3923   -0.0670    0.0000 C   0  0  0  0  0  0  0  0  0  0  0  0
   24.5167   -0.0670    0.0000 C   0  0  0  0  0  0  0  0  0  0  0  0
    2.0000   -0.0670    0.0000 C   0  0  0  0  0  0  0  0  0  0  0  0
    2.3660   -1.4330    0.0000 C   0  0  0  0  0  0  0  0  0  0  0  0
    3.3660    0.2990    0.0000 C   0  0  0  0  0  0  0  0  0  0  0  0
    4.5981   -0.5670    0.0000 C   0  0  0  0  0  0  0  0  0  0  0  0
   11.5263   -0.5670    0.0000 C   0  0  0  0  0  0  0  0  0  0  0  0
   25.3827   -0.5670    0.0000 C   0  0  0  0  0  0  0  0  0  0  0  0
    9.7942   -0.5670    0.0000 C   0  0  0  0  0  0  0  0  0  0  0  0
    8.9282   -0.0670    0.0000 C   0  0  3  0  0  0  0  0  0  0  0  0
   26.2487   -0.0670    0.0000 C   0  0  0  0  0  0  0  0  0  0  0  0
    8.0622   -0.5670    0.0000 C   0  0  0  0  0  0  0  0  0  0  0  0
    9.7942    1.4330    0.0000 C   0  0  0  0  0  0  0  0  0  0  0  0
   18.0560   -1.0419    0.0000 H   0  0  0  0  0  0  0  0  0  0  0  0
   18.8530   -1.0419    0.0000 H   0  0  0  0  0  0  0  0  0  0  0  0
   17.9870    0.4080    0.0000 H   0  0  0  0  0  0  0  0  0  0  0  0
   17.1899    0.4080    0.0000 H   0  0  0  0  0  0  0  0  0  0  0  0
   19.7190    0.4080    0.0000 H   0  0  0  0  0  0  0  0  0  0  0  0
   18.9220    0.4080    0.0000 H   0  0  0  0  0  0  0  0  0  0  0  0
   16.3239   -1.0419    0.0000 H   0  0  0  0  0  0  0  0  0  0  0  0
   17.1210   -1.0419    0.0000 H   0  0  0  0  0  0  0  0  0  0  0  0
   19.7880   -1.0419    0.0000 H   0  0  0  0  0  0  0  0  0  0  0  0
   20.5851   -1.0419    0.0000 H   0  0  0  0  0  0  0  0  0  0  0  0
   16.2549    0.4080    0.0000 H   0  0  0  0  0  0  0  0  0  0  0  0
   15.4579    0.4080    0.0000 H   0  0  0  0  0  0  0  0  0  0  0  0
   21.4511    0.4080    0.0000 H   0  0  0  0  0  0  0  0  0  0  0  0
   20.6540    0.4080    0.0000 H   0  0  0  0  0  0  0  0  0  0  0  0
   14.5919   -1.0419    0.0000 H   0  0  0  0  0  0  0  0  0  0  0  0
   15.3889   -1.0419    0.0000 H   0  0  0  0  0  0  0  0  0  0  0  0
   21.5201   -1.0419    0.0000 H   0  0  0  0  0  0  0  0  0  0  0  0
   22.3171   -1.0419    0.0000 H   0  0  0  0  0  0  0  0  0  0  0  0
   14.5229    0.4080    0.0000 H   0  0  0  0  0  0  0  0  0  0  0  0
   13.7258    0.4080    0.0000 H   0  0  0  0  0  0  0  0  0  0  0  0
   23.1831    0.4080    0.0000 H   0  0  0  0  0  0  0  0  0  0  0  0
   22.3861    0.4080    0.0000 H   0  0  0  0  0  0  0  0  0  0  0  0
   12.8598   -1.0419    0.0000 H   0  0  0  0  0  0  0  0  0  0  0  0
   13.6569   -1.0419    0.0000 H   0  0  0  0  0  0  0  0  0  0  0  0
    3.3335   -1.5419    0.0000 H   0  0  0  0  0  0  0  0  0  0  0  0
    4.1306   -1.5419    0.0000 H   0  0  0  0  0  0  0  0  0  0  0  0
   23.2521   -1.0419    0.0000 H   0  0  0  0  0  0  0  0  0  0  0  0
   24.0492   -1.0419    0.0000 H   0  0  0  0  0  0  0  0  0  0  0  0
   12.7908    0.4080    0.0000 H   0  0  0  0  0  0  0  0  0  0  0  0
   11.9938    0.4080    0.0000 H   0  0  0  0  0  0  0  0  0  0  0  0
   24.9152    0.4080    0.0000 H   0  0  0  0  0  0  0  0  0  0  0  0
   24.1181    0.4080    0.0000 H   0  0  0  0  0  0  0  0  0  0  0  0
    3.9030   -0.0110    0.0000 H   0  0  0  0  0  0  0  0  0  0  0  0
    3.6760    0.8360    0.0000 H   0  0  0  0  0  0  0  0  0  0  0  0
    2.8291    0.6090    0.0000 H   0  0  0  0  0  0  0  0  0  0  0  0
    1.8291   -1.1230    0.0000 H   0  0  0  0  0  0  0  0  0  0  0  0
    2.0560   -1.9700    0.0000 H   0  0  0  0  0  0  0  0  0  0  0  0
    2.9030   -1.7430    0.0000 H   0  0  0  0  0  0  0  0  0  0  0  0
    2.3100    0.4699    0.0000 H   0  0  0  0  0  0  0  0  0  0  0  0
    1.4631    0.2430    0.0000 H   0  0  0  0  0  0  0  0  0  0  0  0
    1.6900   -0.6039    0.0000 H   0  0  0  0  0  0  0  0  0  0  0  0
    4.9966   -0.0920    0.0000 H   0  0  0  0  0  0  0  0  0  0  0  0
    4.1996   -0.0920    0.0000 H   0  0  0  0  0  0  0  0  0  0  0  0
   11.1278   -1.0419    0.0000 H   0  0  0  0  0  0  0  0  0  0  0  0
   11.9248   -1.0419    0.0000 H   0  0  0  0  0  0  0  0  0  0  0  0
   24.9842   -1.0419    0.0000 H   0  0  0  0  0  0  0  0  0  0  0  0
   25.7812   -1.0419    0.0000 H   0  0  0  0  0  0  0  0  0  0  0  0
    9.3957   -1.0419    0.0000 H   0  0  0  0  0  0  0  0  0  0  0  0
   10.1928   -1.0419    0.0000 H   0  0  0  0  0  0  0  0  0  0  0  0
    9.4651    0.2430    0.0000 H   0  0  0  0  0  0  0  0  0  0  0  0
   26.5587   -0.6039    0.0000 H   0  0  0  0  0  0  0  0  0  0  0  0
   26.7856    0.2430    0.0000 H   0  0  0  0  0  0  0  0  0  0  0  0
   25.9387    0.4699    0.0000 H   0  0  0  0  0  0  0  0  0  0  0  0
    7.6636   -1.0419    0.0000 H   0  0  0  0  0  0  0  0  0  0  0  0
    8.4607   -1.0419    0.0000 H   0  0  0  0  0  0  0  0  0  0  0  0
   10.1042    0.8961    0.0000 H   0  0  0  0  0  0  0  0  0  0  0  0
   10.3312    1.7430    0.0000 H   0  0  0  0  0  0  0  0  0  0  0  0
    9.4842    1.9700    0.0000 H   0  0  0  0  0  0  0  0  0  0  0  0
  1  2  1  0  0  0  0
  1  4  1  0  0  0  0
  1  6  1  0  0  0  0
  1  7  2  0  0  0  0
  2 28  1  0  0  0  0
  3 29  1  0  0  0  0
  3 31  1  0  0  0  0
  4 34  1  0  0  0  0
  5 32  1  0  0  0  0
  5 35  1  0  0  0  0
  8 21  1  0  0  0  0
  8 25  1  0  0  0  0
  8 26  1  0  0  0  0
  8 27  1  0  0  0  0
  9 10  1  0  0  0  0
  9 11  1  0  0  0  0
  9 36  1  0  0  0  0
  9 37  1  0  0  0  0
 10 12  1  0  0  0  0
 10 38  1  0  0  0  0
 10 39  1  0  0  0  0
 11 13  1  0  0  0  0
 11 40  1  0  0  0  0
 11 41  1  0  0  0  0
 12 14  1  0  0  0  0
 12 42  1  0  0  0  0
 12 43  1  0  0  0  0
 13 15  1  0  0  0  0
 13 44  1  0  0  0  0
 13 45  1  0  0  0  0
 14 16  1  0  0  0  0
 14 46  1  0  0  0  0
 14 47  1  0  0  0  0
 15 17  1  0  0  0  0
 15 48  1  0  0  0  0
 15 49  1  0  0  0  0
 16 18  1  0  0  0  0
 16 50  1  0  0  0  0
 16 51  1  0  0  0  0
 17 19  1  0  0  0  0
 17 52  1  0  0  0  0
 17 53  1  0  0  0  0
 18 20  1  0  0  0  0
 18 54  1  0  0  0  0
 18 55  1  0  0  0  0
 19 22  1  0  0  0  0
 19 56  1  0  0  0  0
 19 57  1  0  0  0  0
 20 23  1  0  0  0  0
 20 58  1  0  0  0  0
 20 59  1  0  0  0  0
 21 28  1  0  0  0  0
 21 60  1  0  0  0  0
 21 61  1  0  0  0  0
 22 24  1  0  0  0  0
 22 62  1  0  0  0  0
 22 63  1  0  0  0  0
 23 29  1  0  0  0  0
 23 64  1  0  0  0  0
 23 65  1  0  0  0  0
 24 30  1  0  0  0  0
 24 66  1  0  0  0  0
 24 67  1  0  0  0  0
 25 74  1  0  0  0  0
 25 75  1  0  0  0  0
 25 76  1  0  0  0  0
 26 71  1  0  0  0  0
 26 72  1  0  0  0  0
 26 73  1  0  0  0  0
 27 68  1  0  0  0  0
 27 69  1  0  0  0  0
 27 70  1  0  0  0  0
 28 77  1  0  0  0  0
 28 78  1  0  0  0  0
 29 79  1  0  0  0  0
 29 80  1  0  0  0  0
 30 33  1  0  0  0  0
 30 81  1  0  0  0  0
 30 82  1  0  0  0  0
 31 32  1  0  0  0  0
 31 83  1  0  0  0  0
 31 84  1  0  0  0  0
 32 34  1  0  0  0  0
 32 85  1  0  0  0  0
 33 86  1  0  0  0  0
 33 87  1  0  0  0  0
 33 88  1  0  0  0  0
 34 89  1  0  0  0  0
 34 90  1  0  0  0  0
 35 91  1  0  0  0  0
 35 92  1  0  0  0  0
 35 93  1  0  0  0  0
M  CHG  2   6  -1   8   1
M  END
>  <PUBCHEM_COMPOUND_CID>
1392

>  <PUBCHEM_COMPOUND_CANONICALIZED>
1

>  <PUBCHEM_CACTVS_COMPLEXITY>
492

>  <PUBCHEM_CACTVS_HBOND_ACCEPTOR>
6

>  <PUBCHEM_CACTVS_HBOND_DONOR>
0

>  <PUBCHEM_CACTVS_ROTATABLE_BOND>
27

>  <PUBCHEM_CACTVS_SUBSKEYS>
AAADcfB6OAIAAAAAAAAAAAAAAAAAAAAAAAAAAAAAAAAAAAAAAAAAHgAAACAACBThgAYCAAMABRAAQAAAAIAAAAAAAAAAAAAIAAADAAIAAAACAAAFAAASAAGAwKAAAAAAAAAAAAAAAAAAAAAAAAAAAAAAAA==

>  <PUBCHEM_IUPAC_OPENEYE_NAME>
(2-methoxy-3-octadecoxy-propyl) 2-(trimethylammonio)ethyl phosphate

>  <PUBCHEM_IUPAC_CAS_NAME>
(2-methoxy-3-octadecoxypropyl) 2-(trimethylammonio)ethyl phosphate

>  <PUBCHEM_IUPAC_NAME>
(2-methoxy-3-octadecoxypropyl) 2-(trimethylazaniumyl)ethyl phosphate

>  <PUBCHEM_IUPAC_SYSTEMATIC_NAME>
(2-methoxy-3-octadecoxy-propyl) 2-(trimethylazaniumyl)ethyl phosphate

>  <PUBCHEM_IUPAC_TRADITIONAL_NAME>
(2-methoxy-3-stearyloxy-propyl) 2-(trimethylammonio)ethyl phosphate

>  <PUBCHEM_IUPAC_INCHI>
InChI=1S/C27H58NO6P/c1-6-7-8-9-10-11-12-13-14-15-16-17-18-19-20-21-23-32-25-27(31-5)26-34-35(29,30)33-24-22-28(2,3)4/h27H,6-26H2,1-5H3

>  <PUBCHEM_IUPAC_INCHIKEY>
MHFRGQHAERHWKZ-UHFFFAOYSA-N

>  <PUBCHEM_XLOGP3_AA>
7.6

>  <PUBCHEM_EXACT_MASS>
523.4

>  <PUBCHEM_MOLECULAR_FORMULA>
C27H58NO6P

>  <PUBCHEM_MOLECULAR_WEIGHT>
523.736

>  <PUBCHEM_OPENEYE_CAN_SMILES>
CCCCCCCCCCCCCCCCCCOCC(COP(=O)([O-])OCC[N+](C)(C)C)OC

>  <PUBCHEM_OPENEYE_ISO_SMILES>
CCCCCCCCCCCCCCCCCCOCC(COP(=O)([O-])OCC[N+](C)(C)C)OC

>  <PUBCHEM_CACTVS_TPSA>
77

>  <PUBCHEM_MONOISOTOPIC_WEIGHT>
523.4

>  <PUBCHEM_TOTAL_CHARGE>
0

>  <PUBCHEM_HEAVY_ATOM_COUNT>
35

>  <PUBCHEM_ATOM_DEF_STEREO_COUNT>
0

>  <PUBCHEM_ATOM_UDEF_STEREO_COUNT>
1

>  <PUBCHEM_BOND_DEF_STEREO_COUNT>
0

>  <PUBCHEM_BOND_UDEF_STEREO_COUNT>
0

>  <PUBCHEM_ISOTOPIC_ATOM_COUNT>
0

>  <PUBCHEM_COMPONENT_COUNT>
1

>  <PUBCHEM_CACTVS_TAUTO_COUNT>
1

>  <PUBCHEM_COORDINATE_TYPE>
1
5
255

>  <PUBCHEM_BONDANNOTATIONS>
32  31  3

$$$$
