13938911
 OpenBabel06101807152D

 87 90  0  0  1  0  0  0  0  0999 V2000
    8.5991   -0.5000    0.0000 O   0  0  0  0  0  0  0  0  0  0  0  0
   12.0632    0.5000    0.0000 O   0  0  0  0  0  0  0  0  0  0  0  0
   10.3312   -0.5000    0.0000 O   0  0  0  0  0  0  0  0  0  0  0  0
   13.7953    0.5000    0.0000 O   0  0  0  0  0  0  0  0  0  0  0  0
    6.8671    0.5000    0.0000 O   0  0  0  0  0  0  0  0  0  0  0  0
    5.1350    0.5000    0.0000 O   0  0  0  0  0  0  0  0  0  0  0  0
   15.5273   -0.5000    0.0000 O   0  0  0  0  0  0  0  0  0  0  0  0
   10.3312    2.5000    0.0000 O   0  0  0  0  0  0  0  0  0  0  0  0
    6.8671   -2.5000    0.0000 O   0  0  0  0  0  0  0  0  0  0  0  0
    8.5991   -3.5000    0.0000 O   0  0  0  0  0  0  0  0  0  0  0  0
   12.0632    3.5000    0.0000 O   0  0  0  0  0  0  0  0  0  0  0  0
   10.3312   -2.5000    0.0000 O   0  0  0  0  0  0  0  0  0  0  0  0
   13.7953    2.5000    0.0000 O   0  0  0  0  0  0  0  0  0  0  0  0
    6.8671    2.5000    0.0000 O   0  0  0  0  0  0  0  0  0  0  0  0
   13.7953   -2.5000    0.0000 O   0  0  0  0  0  0  0  0  0  0  0  0
    5.1350    3.5000    0.0000 O   0  0  0  0  0  0  0  0  0  0  0  0
    3.4030    2.5000    0.0000 O   0  0  0  0  0  0  0  0  0  0  0  0
   15.5273   -3.5000    0.0000 O   0  0  0  0  0  0  0  0  0  0  0  0
   17.2594   -2.5000    0.0000 O   0  0  0  0  0  0  0  0  0  0  0  0
   17.2594   -0.5000    0.0000 O   0  0  0  0  0  0  0  0  0  0  0  0
    2.5369    1.0000    0.0000 O   0  0  0  0  0  0  0  0  0  0  0  0
   11.1972    1.0000    0.0000 C   0  0  3  0  0  0  0  0  0  0  0  0
    7.7331   -1.0000    0.0000 C   0  0  3  0  0  0  0  0  0  0  0  0
   11.1972    2.0000    0.0000 C   0  0  3  0  0  0  0  0  0  0  0  0
    7.7331   -2.0000    0.0000 C   0  0  3  0  0  0  0  0  0  0  0  0
    8.5991   -2.5000    0.0000 C   0  0  3  0  0  0  0  0  0  0  0  0
   12.0632    2.5000    0.0000 C   0  0  3  0  0  0  0  0  0  0  0  0
    9.4651   -2.0000    0.0000 C   0  0  3  0  0  0  0  0  0  0  0  0
    9.4651   -1.0000    0.0000 C   0  0  3  0  0  0  0  0  0  0  0  0
   12.9292    2.0000    0.0000 C   0  0  3  0  0  0  0  0  0  0  0  0
   12.9292    1.0000    0.0000 C   0  0  3  0  0  0  0  0  0  0  0  0
   10.3312    0.5000    0.0000 C   0  0  0  0  0  0  0  0  0  0  0  0
    6.8671   -0.5000    0.0000 C   0  0  0  0  0  0  0  0  0  0  0  0
   14.6613   -1.0000    0.0000 C   0  0  3  0  0  0  0  0  0  0  0  0
    6.0010    1.0000    0.0000 C   0  0  3  0  0  0  0  0  0  0  0  0
    6.0010    2.0000    0.0000 C   0  0  3  0  0  0  0  0  0  0  0  0
   14.6613   -2.0000    0.0000 C   0  0  3  0  0  0  0  0  0  0  0  0
    5.1350    2.5000    0.0000 C   0  0  3  0  0  0  0  0  0  0  0  0
    4.2690    2.0000    0.0000 C   0  0  3  0  0  0  0  0  0  0  0  0
    4.2690    1.0000    0.0000 C   0  0  3  0  0  0  0  0  0  0  0  0
   15.5273   -2.5000    0.0000 C   0  0  3  0  0  0  0  0  0  0  0  0
   13.7953   -0.5000    0.0000 C   0  0  0  0  0  0  0  0  0  0  0  0
   16.3933   -2.0000    0.0000 C   0  0  3  0  0  0  0  0  0  0  0  0
   16.3933   -1.0000    0.0000 C   0  0  3  0  0  0  0  0  0  0  0  0
    3.4030    0.5000    0.0000 C   0  0  0  0  0  0  0  0  0  0  0  0
   11.1972    0.3800    0.0000 H   0  0  0  0  0  0  0  0  0  0  0  0
    7.7331   -0.3800    0.0000 H   0  0  0  0  0  0  0  0  0  0  0  0
   11.1972    2.6200    0.0000 H   0  0  0  0  0  0  0  0  0  0  0  0
    7.7331   -2.6200    0.0000 H   0  0  0  0  0  0  0  0  0  0  0  0
    9.1360   -2.8100    0.0000 H   0  0  0  0  0  0  0  0  0  0  0  0
   12.6002    2.8100    0.0000 H   0  0  0  0  0  0  0  0  0  0  0  0
   10.0021   -1.6900    0.0000 H   0  0  0  0  0  0  0  0  0  0  0  0
    9.4651   -0.3800    0.0000 H   0  0  0  0  0  0  0  0  0  0  0  0
   13.4662    1.6900    0.0000 H   0  0  0  0  0  0  0  0  0  0  0  0
   12.9292    0.3800    0.0000 H   0  0  0  0  0  0  0  0  0  0  0  0
   10.1191    1.0826    0.0000 H   0  0  0  0  0  0  0  0  0  0  0  0
    9.7206    0.3923    0.0000 H   0  0  0  0  0  0  0  0  0  0  0  0
    6.2565   -0.3923    0.0000 H   0  0  0  0  0  0  0  0  0  0  0  0
    6.6550   -1.0826    0.0000 H   0  0  0  0  0  0  0  0  0  0  0  0
   14.6613   -0.3800    0.0000 H   0  0  0  0  0  0  0  0  0  0  0  0
    6.5380    1.3100    0.0000 H   0  0  0  0  0  0  0  0  0  0  0  0
    6.0010    2.6200    0.0000 H   0  0  0  0  0  0  0  0  0  0  0  0
   14.1244   -1.6900    0.0000 H   0  0  0  0  0  0  0  0  0  0  0  0
    4.5981    2.8100    0.0000 H   0  0  0  0  0  0  0  0  0  0  0  0
    4.8059    1.6900    0.0000 H   0  0  0  0  0  0  0  0  0  0  0  0
    4.2690    0.3800    0.0000 H   0  0  0  0  0  0  0  0  0  0  0  0
   16.0643   -2.8100    0.0000 H   0  0  0  0  0  0  0  0  0  0  0  0
   13.1847   -0.3923    0.0000 H   0  0  0  0  0  0  0  0  0  0  0  0
   13.5832   -1.0826    0.0000 H   0  0  0  0  0  0  0  0  0  0  0  0
   16.9303   -1.6900    0.0000 H   0  0  0  0  0  0  0  0  0  0  0  0
   16.3933   -0.3800    0.0000 H   0  0  0  0  0  0  0  0  0  0  0  0
   10.3312    3.1200    0.0000 H   0  0  0  0  0  0  0  0  0  0  0  0
    6.3301   -2.1900    0.0000 H   0  0  0  0  0  0  0  0  0  0  0  0
    3.0044    0.0251    0.0000 H   0  0  0  0  0  0  0  0  0  0  0  0
    3.8015    0.0251    0.0000 H   0  0  0  0  0  0  0  0  0  0  0  0
    8.0622   -3.8100    0.0000 H   0  0  0  0  0  0  0  0  0  0  0  0
   12.6002    3.8100    0.0000 H   0  0  0  0  0  0  0  0  0  0  0  0
   10.8681   -2.1900    0.0000 H   0  0  0  0  0  0  0  0  0  0  0  0
   14.3322    2.1900    0.0000 H   0  0  0  0  0  0  0  0  0  0  0  0
    6.8671    3.1200    0.0000 H   0  0  0  0  0  0  0  0  0  0  0  0
   13.7953   -3.1200    0.0000 H   0  0  0  0  0  0  0  0  0  0  0  0
    4.5981    3.8100    0.0000 H   0  0  0  0  0  0  0  0  0  0  0  0
    3.4030    3.1200    0.0000 H   0  0  0  0  0  0  0  0  0  0  0  0
   16.0643   -3.8100    0.0000 H   0  0  0  0  0  0  0  0  0  0  0  0
   17.7963   -2.1900    0.0000 H   0  0  0  0  0  0  0  0  0  0  0  0
   17.2594    0.1200    0.0000 H   0  0  0  0  0  0  0  0  0  0  0  0
    2.0000    0.6900    0.0000 H   0  0  0  0  0  0  0  0  0  0  0  0
  1 23  1  0  0  0  0
  1 29  1  0  0  0  0
  2 22  1  0  0  0  0
  2 31  1  0  0  0  0
  3 29  1  0  0  0  0
  3 32  1  0  0  0  0
  4 31  1  0  0  0  0
  4 42  1  0  0  0  0
  5 33  1  0  0  0  0
  5 35  1  0  0  0  0
  6 35  1  0  0  0  0
  6 40  1  0  0  0  0
  7 34  1  0  0  0  0
  7 44  1  0  0  0  0
  8 24  1  0  0  0  0
  8 72  1  0  0  0  0
  9 25  1  0  0  0  0
  9 73  1  0  0  0  0
 10 26  1  0  0  0  0
 10 76  1  0  0  0  0
 11 27  1  0  0  0  0
 11 77  1  0  0  0  0
 12 28  1  0  0  0  0
 12 78  1  0  0  0  0
 13 30  1  0  0  0  0
 13 79  1  0  0  0  0
 14 36  1  0  0  0  0
 14 80  1  0  0  0  0
 15 37  1  0  0  0  0
 15 81  1  0  0  0  0
 16 38  1  0  0  0  0
 16 82  1  0  0  0  0
 17 39  1  0  0  0  0
 17 83  1  0  0  0  0
 18 41  1  0  0  0  0
 18 84  1  0  0  0  0
 19 43  1  0  0  0  0
 19 85  1  0  0  0  0
 20 44  1  0  0  0  0
 20 86  1  0  0  0  0
 21 45  1  0  0  0  0
 21 87  1  0  0  0  0
 22 24  1  0  0  0  0
 22 32  1  0  0  0  0
 22 46  1  0  0  0  0
 23 25  1  0  0  0  0
 23 33  1  0  0  0  0
 23 47  1  0  0  0  0
 24 27  1  0  0  0  0
 24 48  1  0  0  0  0
 25 26  1  0  0  0  0
 25 49  1  0  0  0  0
 26 28  1  0  0  0  0
 26 50  1  0  0  0  0
 27 30  1  0  0  0  0
 27 51  1  0  0  0  0
 28 29  1  0  0  0  0
 28 52  1  0  0  0  0
 29 53  1  0  0  0  0
 30 31  1  0  0  0  0
 30 54  1  0  0  0  0
 31 55  1  0  0  0  0
 32 56  1  0  0  0  0
 32 57  1  0  0  0  0
 33 58  1  0  0  0  0
 33 59  1  0  0  0  0
 34 37  1  0  0  0  0
 34 42  1  0  0  0  0
 34 60  1  0  0  0  0
 35 36  1  0  0  0  0
 35 61  1  0  0  0  0
 36 38  1  0  0  0  0
 36 62  1  0  0  0  0
 37 41  1  0  0  0  0
 37 63  1  0  0  0  0
 38 39  1  0  0  0  0
 38 64  1  0  0  0  0
 39 40  1  0  0  0  0
 39 65  1  0  0  0  0
 40 45  1  0  0  0  0
 40 66  1  0  0  0  0
 41 43  1  0  0  0  0
 41 67  1  0  0  0  0
 42 68  1  0  0  0  0
 42 69  1  0  0  0  0
 43 44  1  0  0  0  0
 43 70  1  0  0  0  0
 44 71  1  0  0  0  0
 45 74  1  0  0  0  0
 45 75  1  0  0  0  0
M  END
>  <PUBCHEM_COMPOUND_CID>
13938911

>  <PUBCHEM_COMPOUND_CANONICALIZED>
1

>  <PUBCHEM_CACTVS_COMPLEXITY>
918

>  <PUBCHEM_CACTVS_HBOND_ACCEPTOR>
21

>  <PUBCHEM_CACTVS_HBOND_DONOR>
14

>  <PUBCHEM_CACTVS_ROTATABLE_BOND>
10

>  <PUBCHEM_CACTVS_SUBSKEYS>
AAADcfB4PgAAAAAAAAAAAAAAAAAAAAAAAAAkSJEgAAAAAAAAAAAAGgAACAAACBSwgAMACAAABgAAAAAAAAAAAAAAAAAAAAAAAAAREAIAAAAiQAAFAAAHAAHAYAwAAAAAAAAAAAAAAAAAAAAAAAAAAAAAAA==

>  <PUBCHEM_IUPAC_OPENEYE_NAME>
6-[[3,4,5-trihydroxy-6-[[3,4,5-trihydroxy-6-[[3,4,5-trihydroxy-6-(hydroxymethyl)tetrahydropyran-2-yl]oxymethyl]tetrahydropyran-2-yl]oxymethyl]tetrahydropyran-2-yl]oxymethyl]tetrahydropyran-2,3,4,5-tetrol

>  <PUBCHEM_IUPAC_CAS_NAME>
6-[[3,4,5-trihydroxy-6-[[3,4,5-trihydroxy-6-[[3,4,5-trihydroxy-6-(hydroxymethyl)-2-oxanyl]oxymethyl]-2-oxanyl]oxymethyl]-2-oxanyl]oxymethyl]oxane-2,3,4,5-tetrol

>  <PUBCHEM_IUPAC_NAME>
6-[[3,4,5-trihydroxy-6-[[3,4,5-trihydroxy-6-[[3,4,5-trihydroxy-6-(hydroxymethyl)oxan-2-yl]oxymethyl]oxan-2-yl]oxymethyl]oxan-2-yl]oxymethyl]oxane-2,3,4,5-tetrol

>  <PUBCHEM_IUPAC_SYSTEMATIC_NAME>
6-[[6-[[6-[[6-(hydroxymethyl)-3,4,5-tris(oxidanyl)oxan-2-yl]oxymethyl]-3,4,5-tris(oxidanyl)oxan-2-yl]oxymethyl]-3,4,5-tris(oxidanyl)oxan-2-yl]oxymethyl]oxane-2,3,4,5-tetrol

>  <PUBCHEM_IUPAC_TRADITIONAL_NAME>
6-[[3,4,5-trihydroxy-6-[[3,4,5-trihydroxy-6-[(3,4,5-trihydroxy-6-methylol-tetrahydropyran-2-yl)oxymethyl]tetrahydropyran-2-yl]oxymethyl]tetrahydropyran-2-yl]oxymethyl]tetrahydropyran-2,3,4,5-tetrol

>  <PUBCHEM_IUPAC_INCHI>
InChI=1S/C24H42O21/c25-1-5-9(26)14(31)18(35)22(43-5)40-3-7-11(28)16(33)20(37)24(45-7)41-4-8-12(29)15(32)19(36)23(44-8)39-2-6-10(27)13(30)17(34)21(38)42-6/h5-38H,1-4H2

>  <PUBCHEM_IUPAC_INCHIKEY>
DFKPJBWUFOESDV-UHFFFAOYSA-N

>  <PUBCHEM_XLOGP3_AA>
-9

>  <PUBCHEM_EXACT_MASS>
666.222

>  <PUBCHEM_MOLECULAR_FORMULA>
C24H42O21

>  <PUBCHEM_MOLECULAR_WEIGHT>
666.579

>  <PUBCHEM_OPENEYE_CAN_SMILES>
C(C1C(C(C(C(O1)OCC2C(C(C(C(O2)OCC3C(C(C(C(O3)OCC4C(C(C(C(O4)O)O)O)O)O)O)O)O)O)O)O)O)O)O

>  <PUBCHEM_OPENEYE_ISO_SMILES>
C(C1C(C(C(C(O1)OCC2C(C(C(C(O2)OCC3C(C(C(C(O3)OCC4C(C(C(C(O4)O)O)O)O)O)O)O)O)O)O)O)O)O)O

>  <PUBCHEM_CACTVS_TPSA>
348

>  <PUBCHEM_MONOISOTOPIC_WEIGHT>
666.222

>  <PUBCHEM_TOTAL_CHARGE>
0

>  <PUBCHEM_HEAVY_ATOM_COUNT>
45

>  <PUBCHEM_ATOM_DEF_STEREO_COUNT>
0

>  <PUBCHEM_ATOM_UDEF_STEREO_COUNT>
20

>  <PUBCHEM_BOND_DEF_STEREO_COUNT>
0

>  <PUBCHEM_BOND_UDEF_STEREO_COUNT>
0

>  <PUBCHEM_ISOTOPIC_ATOM_COUNT>
0

>  <PUBCHEM_COMPONENT_COUNT>
1

>  <PUBCHEM_CACTVS_TAUTO_COUNT>
1

>  <PUBCHEM_COORDINATE_TYPE>
1
5
255

>  <PUBCHEM_BONDANNOTATIONS>
26  10  3
27  11  3
28  12  3
30  13  3
36  14  3
37  15  3
38  16  3
39  17  3
41  18  3
43  19  3
44  20  3
22  32  3
23  33  3
29  3  3
34  42  3
31  4  3
40  45  3
35  5  3
24  8  3
25  9  3

$$$$
