13932611
 OpenBabel06101807152D

 67 71  0  0  1  0  0  0  0  0999 V2000
    5.9860    2.7902    0.0000 O   0  0  0  0  0  0  0  0  0  0  0  0
    6.8680    0.2487    0.0000 O   0  0  0  0  0  0  0  0  0  0  0  0
    8.6382    1.2456    0.0000 O   0  0  0  0  0  0  0  0  0  0  0  0
    8.6540    3.2938    0.0000 O   0  0  0  0  0  0  0  0  0  0  0  0
    6.8802    4.3180    0.0000 O   0  0  0  0  0  0  0  0  0  0  0  0
    4.8772    0.2828    0.0000 O   0  0  0  0  0  0  0  0  0  0  0  0
    5.8477   -1.4315    0.0000 O   0  0  0  0  0  0  0  0  0  0  0  0
    9.5216    2.7355    0.0000 O   0  0  0  0  0  0  0  0  0  0  0  0
    5.8772    0.2828    0.0000 O   0  0  0  0  0  0  0  0  0  0  0  0
    6.3741   -4.0854    0.0000 O   0  0  0  0  0  0  0  0  0  0  0  0
    5.3803   -4.0854    0.0000 O   0  0  0  0  0  0  0  0  0  0  0  0
    9.4464   -2.3274    0.0000 O   0  0  0  0  0  0  0  0  0  0  0  0
    8.4223   -4.1012    0.0000 O   0  0  0  0  0  0  0  0  0  0  0  0
    3.3321   -4.1012    0.0000 O   0  0  0  0  0  0  0  0  0  0  0  0
    2.3079   -2.3274    0.0000 O   0  0  0  0  0  0  0  0  0  0  0  0
   12.9739    1.6955    0.0000 O   0  0  0  0  0  0  0  0  0  0  0  0
   11.2072   -1.2843    0.0000 O   0  0  0  0  0  0  0  0  0  0  0  0
   12.9507   -0.3044    0.0000 O   0  0  0  0  0  0  0  0  0  0  0  0
    6.8680    1.2488    0.0000 C   0  0  3  0  0  0  0  0  0  0  0  0
    7.7780    1.7556    0.0000 C   0  0  3  0  0  0  0  0  0  0  0  0
    6.0020    1.7488    0.0000 C   0  0  3  0  0  0  0  0  0  0  0  0
    7.7861    2.7972    0.0000 C   0  0  3  0  0  0  0  0  0  0  0  0
    6.8840    3.3180    0.0000 C   0  0  3  0  0  0  0  0  0  0  0  0
    5.1360    1.2488    0.0000 C   0  0  0  0  0  0  0  0  0  0  0  0
    6.3772   -0.5832    0.0000 C   0  0  0  0  0  0  0  0  0  0  0  0
    9.5100    1.7356    0.0000 C   0  0  0  0  0  0  0  0  0  0  0  0
    6.8772   -1.4492    0.0000 C   0  0  0  0  0  0  0  0  0  0  0  0
    6.3772   -2.3153    0.0000 C   0  0  0  0  0  0  0  0  0  0  0  0
    5.3772   -0.5832    0.0000 C   0  0  0  0  0  0  0  0  0  0  0  0
    5.3772   -2.3153    0.0000 C   0  0  0  0  0  0  0  0  0  0  0  0
    4.8772   -1.4492    0.0000 C   0  0  0  0  0  0  0  0  0  0  0  0
   10.3702    1.2256    0.0000 C   0  0  0  0  0  0  0  0  0  0  0  0
    7.9187   -1.4332    0.0000 C   0  0  0  0  0  0  0  0  0  0  0  0
    6.8840   -3.2253    0.0000 C   0  0  0  0  0  0  0  0  0  0  0  0
    4.8703   -3.2253    0.0000 C   0  0  0  0  0  0  0  0  0  0  0  0
    3.8357   -1.4332    0.0000 C   0  0  0  0  0  0  0  0  0  0  0  0
    8.4464   -2.3312    0.0000 C   0  0  0  0  0  0  0  0  0  0  0  0
    7.9256   -3.2333    0.0000 C   0  0  0  0  0  0  0  0  0  0  0  0
   10.3586    0.2256    0.0000 C   0  0  0  0  0  0  0  0  0  0  0  0
   11.2419    1.7155    0.0000 C   0  0  0  0  0  0  0  0  0  0  0  0
    3.8287   -3.2333    0.0000 C   0  0  0  0  0  0  0  0  0  0  0  0
    3.3079   -2.3312    0.0000 C   0  0  0  0  0  0  0  0  0  0  0  0
   12.1021    1.2055    0.0000 C   0  0  0  0  0  0  0  0  0  0  0  0
   11.2188   -0.2843    0.0000 C   0  0  0  0  0  0  0  0  0  0  0  0
   12.0905    0.2056    0.0000 C   0  0  0  0  0  0  0  0  0  0  0  0
    7.4026    0.9346    0.0000 H   0  0  0  0  0  0  0  0  0  0  0  0
    7.7697    1.1356    0.0000 H   0  0  0  0  0  0  0  0  0  0  0  0
    5.4627    2.0546    0.0000 H   0  0  0  0  0  0  0  0  0  0  0  0
    7.7873    3.4172    0.0000 H   0  0  0  0  0  0  0  0  0  0  0  0
    7.4203    3.6290    0.0000 H   0  0  0  0  0  0  0  0  0  0  0  0
    4.9755    1.8476    0.0000 H   0  0  0  0  0  0  0  0  0  0  0  0
    4.5160    1.2488    0.0000 H   0  0  0  0  0  0  0  0  0  0  0  0
    8.6564    3.9138    0.0000 H   0  0  0  0  0  0  0  0  0  0  0  0
    6.3420    4.6259    0.0000 H   0  0  0  0  0  0  0  0  0  0  0  0
    8.2225   -0.8927    0.0000 H   0  0  0  0  0  0  0  0  0  0  0  0
    3.5319   -0.8927    0.0000 H   0  0  0  0  0  0  0  0  0  0  0  0
    9.8181   -0.0781    0.0000 H   0  0  0  0  0  0  0  0  0  0  0  0
   11.2491    2.3355    0.0000 H   0  0  0  0  0  0  0  0  0  0  0  0
    6.6778   -4.6259    0.0000 H   0  0  0  0  0  0  0  0  0  0  0  0
    5.0766   -4.6259    0.0000 H   0  0  0  0  0  0  0  0  0  0  0  0
    9.7544   -1.7892    0.0000 H   0  0  0  0  0  0  0  0  0  0  0  0
    9.0423   -4.1036    0.0000 H   0  0  0  0  0  0  0  0  0  0  0  0
    2.7121   -4.1036    0.0000 H   0  0  0  0  0  0  0  0  0  0  0  0
    2.0000   -1.7892    0.0000 H   0  0  0  0  0  0  0  0  0  0  0  0
   12.9810    2.3155    0.0000 H   0  0  0  0  0  0  0  0  0  0  0  0
   11.7405   -1.6004    0.0000 H   0  0  0  0  0  0  0  0  0  0  0  0
   13.4912   -0.0006    0.0000 H   0  0  0  0  0  0  0  0  0  0  0  0
  1 21  1  0  0  0  0
  1 23  1  0  0  0  0
  2 19  1  0  0  0  0
  2 25  1  0  0  0  0
  3 20  1  0  0  0  0
  3 26  1  0  0  0  0
  4 22  1  0  0  0  0
  4 53  1  0  0  0  0
  5 23  1  0  0  0  0
  5 54  1  0  0  0  0
  6 24  1  0  0  0  0
  6 29  1  0  0  0  0
  7 25  2  0  0  0  0
  8 26  2  0  0  0  0
  9 29  2  0  0  0  0
 10 34  1  0  0  0  0
 10 59  1  0  0  0  0
 11 35  1  0  0  0  0
 11 60  1  0  0  0  0
 12 37  1  0  0  0  0
 12 61  1  0  0  0  0
 13 38  1  0  0  0  0
 13 62  1  0  0  0  0
 14 41  1  0  0  0  0
 14 63  1  0  0  0  0
 15 42  1  0  0  0  0
 15 64  1  0  0  0  0
 16 43  1  0  0  0  0
 16 65  1  0  0  0  0
 17 44  1  0  0  0  0
 17 66  1  0  0  0  0
 18 45  1  0  0  0  0
 18 67  1  0  0  0  0
 19 20  1  0  0  0  0
 19 21  1  0  0  0  0
 19 46  1  0  0  0  0
 20 22  1  0  0  0  0
 20 47  1  0  0  0  0
 21 24  1  0  0  0  0
 21 48  1  0  0  0  0
 22 23  1  0  0  0  0
 22 49  1  0  0  0  0
 23 50  1  0  0  0  0
 24 51  1  0  0  0  0
 24 52  1  0  0  0  0
 25 27  1  0  0  0  0
 26 32  1  0  0  0  0
 27 28  1  0  0  0  0
 27 33  2  0  0  0  0
 28 30  1  0  0  0  0
 28 34  2  0  0  0  0
 29 31  1  0  0  0  0
 30 31  1  0  0  0  0
 30 35  2  0  0  0  0
 31 36  2  0  0  0  0
 32 39  2  0  0  0  0
 32 40  1  0  0  0  0
 33 37  1  0  0  0  0
 33 55  1  0  0  0  0
 34 38  1  0  0  0  0
 35 41  1  0  0  0  0
 36 42  1  0  0  0  0
 36 56  1  0  0  0  0
 37 38  2  0  0  0  0
 39 44  1  0  0  0  0
 39 57  1  0  0  0  0
 40 43  2  0  0  0  0
 40 58  1  0  0  0  0
 41 42  2  0  0  0  0
 43 45  1  0  0  0  0
 44 45  2  0  0  0  0
M  END
>  <PUBCHEM_COMPOUND_CID>
13932611

>  <PUBCHEM_COMPOUND_CANONICALIZED>
1

>  <PUBCHEM_CACTVS_COMPLEXITY>
1090

>  <PUBCHEM_CACTVS_HBOND_ACCEPTOR>
18

>  <PUBCHEM_CACTVS_HBOND_DONOR>
11

>  <PUBCHEM_CACTVS_ROTATABLE_BOND>
3

>  <PUBCHEM_CACTVS_SUBSKEYS>
AAADceB4PgAAAAAAAAAAAAAAAAAAAAAAAAA0YMEAAAAAAAABUAAAGgAACAAADBSwmAMwDoAABgCIAiDSCAACAAAkIAAAiAEGiMgZNzKCNRqCcQElwBUPuYfK7PzOoAABCAAYQABAAAIQADCAAAAAAAAAAA==

>  <PUBCHEM_IUPAC_INCHI>
InChI=1S/C27H22O18/c28-9-1-6(2-10(29)16(9)32)24(38)45-23-21(37)27(41)43-13-5-42-25(39)7-3-11(30)17(33)19(35)14(7)15-8(26(40)44-22(13)23)4-12(31)18(34)20(15)36/h1-4,13,21-23,27-37,41H,5H2

>  <PUBCHEM_IUPAC_INCHIKEY>
RQOWLXQAJIAZMF-UHFFFAOYSA-N

>  <PUBCHEM_XLOGP3_AA>
0.1

>  <PUBCHEM_EXACT_MASS>
634.081

>  <PUBCHEM_MOLECULAR_FORMULA>
C27H22O18

>  <PUBCHEM_MOLECULAR_WEIGHT>
634.455

>  <PUBCHEM_OPENEYE_CAN_SMILES>
C1C2C(C(C(C(O2)O)O)OC(=O)C3=CC(=C(C(=C3)O)O)O)OC(=O)C4=CC(=C(C(=C4C5=C(C(=C(C=C5C(=O)O1)O)O)O)O)O)O

>  <PUBCHEM_OPENEYE_ISO_SMILES>
C1C2C(C(C(C(O2)O)O)OC(=O)C3=CC(=C(C(=C3)O)O)O)OC(=O)C4=CC(=C(C(=C4C5=C(C(=C(C=C5C(=O)O1)O)O)O)O)O)O

>  <PUBCHEM_CACTVS_TPSA>
311

>  <PUBCHEM_MONOISOTOPIC_WEIGHT>
634.081

>  <PUBCHEM_TOTAL_CHARGE>
0

>  <PUBCHEM_HEAVY_ATOM_COUNT>
45

>  <PUBCHEM_ATOM_DEF_STEREO_COUNT>
0

>  <PUBCHEM_ATOM_UDEF_STEREO_COUNT>
5

>  <PUBCHEM_BOND_DEF_STEREO_COUNT>
0

>  <PUBCHEM_BOND_UDEF_STEREO_COUNT>
0

>  <PUBCHEM_ISOTOPIC_ATOM_COUNT>
0

>  <PUBCHEM_COMPONENT_COUNT>
1

>  <PUBCHEM_CACTVS_TAUTO_COUNT>
998

>  <PUBCHEM_COORDINATE_TYPE>
1
5
255

>  <PUBCHEM_BONDANNOTATIONS>
19  2  3
21  24  3
27  28  8
27  33  8
28  34  8
20  3  3
30  31  8
30  35  8
31  36  8
32  39  8
32  40  8
33  37  8
34  38  8
35  41  8
36  42  8
37  38  8
39  44  8
22  4  3
40  43  8
41  42  8
43  45  8
44  45  8
23  5  3

$$$$
