13964928
 OpenBabel06101807152D

 48 52  0  0  1  0  0  0  0  0999 V2000
    5.5162    0.5574    0.0000 O   0  0  0  0  0  0  0  0  0  0  0  0
    7.9012   -2.4036    0.0000 O   0  0  0  0  0  0  0  0  0  0  0  0
    7.9380    1.1140    0.0000 O   0  0  0  0  0  0  0  0  0  0  0  0
    4.4394    1.7858    0.0000 O   0  0  0  0  0  0  0  0  0  0  0  0
    6.1653    1.6403    0.0000 O   0  0  0  0  0  0  0  0  0  0  0  0
    4.4481   -0.3308    0.0000 C   0  0  3  0  0  0  0  0  0  0  0  0
    5.6621   -1.1765    0.0000 C   0  0  3  0  0  0  0  0  0  0  0  0
    4.7500   -1.1980    0.0000 C   0  0  3  0  0  0  0  0  0  0  0  0
    5.9251   -0.3025    0.0000 C   0  0  3  0  0  0  0  0  0  0  0  0
    5.1763    0.2184    0.0000 C   0  0  3  0  0  0  0  0  0  0  0  0
    6.8424   -0.0864    0.0000 C   0  0  3  0  0  0  0  0  0  0  0  0
    3.7521   -1.1632    0.0000 C   0  0  0  0  0  0  0  0  0  0  0  0
    3.5812   -0.0262    0.0000 C   0  0  0  0  0  0  0  0  0  0  0  0
    4.2598   -1.9746    0.0000 C   0  0  0  0  0  0  0  0  0  0  0  0
    2.6992   -1.4258    0.0000 C   0  0  3  0  0  0  0  0  0  0  0  0
    6.2999   -1.8910    0.0000 C   0  0  0  0  0  0  0  0  0  0  0  0
    3.3475   -2.0758    0.0000 C   0  0  0  0  0  0  0  0  0  0  0  0
    7.4875   -0.7726    0.0000 C   0  0  0  0  0  0  0  0  0  0  0  0
    7.2160   -1.6753    0.0000 C   0  0  3  0  0  0  0  0  0  0  0  0
    2.8036   -0.5132    0.0000 C   0  0  0  0  0  0  0  0  0  0  0  0
    7.1072    0.5574    0.0000 C   0  0  0  0  0  0  0  0  0  0  0  0
    5.2603    1.2148    0.0000 C   0  0  0  0  0  0  0  0  0  0  0  0
    7.8258    0.0947    0.0000 C   0  0  0  0  0  0  0  0  0  0  0  0
    2.0000    0.0819    0.0000 C   0  0  0  0  0  0  0  0  0  0  0  0
    5.0558   -1.7374    0.0000 H   0  0  0  0  0  0  0  0  0  0  0  0
    6.0411    0.3066    0.0000 H   0  0  0  0  0  0  0  0  0  0  0  0
    4.6335    0.5180    0.0000 H   0  0  0  0  0  0  0  0  0  0  0  0
    3.7092   -1.7818    0.0000 H   0  0  0  0  0  0  0  0  0  0  0  0
    4.3272   -1.3948    0.0000 H   0  0  0  0  0  0  0  0  0  0  0  0
    3.9118    0.4983    0.0000 H   0  0  0  0  0  0  0  0  0  0  0  0
    3.1434    0.4128    0.0000 H   0  0  0  0  0  0  0  0  0  0  0  0
    4.1892   -2.5905    0.0000 H   0  0  0  0  0  0  0  0  0  0  0  0
    4.8446   -2.1805    0.0000 H   0  0  0  0  0  0  0  0  0  0  0  0
    2.1137   -1.6297    0.0000 H   0  0  0  0  0  0  0  0  0  0  0  0
    5.7755   -2.2219    0.0000 H   0  0  0  0  0  0  0  0  0  0  0  0
    6.5396   -2.4628    0.0000 H   0  0  0  0  0  0  0  0  0  0  0  0
    2.8220   -2.4049    0.0000 H   0  0  0  0  0  0  0  0  0  0  0  0
    3.5514   -2.6614    0.0000 H   0  0  0  0  0  0  0  0  0  0  0  0
    8.0412   -1.0516    0.0000 H   0  0  0  0  0  0  0  0  0  0  0  0
    7.8585   -0.2759    0.0000 H   0  0  0  0  0  0  0  0  0  0  0  0
    7.8195   -1.5331    0.0000 H   0  0  0  0  0  0  0  0  0  0  0  0
    7.9382   -0.5150    0.0000 H   0  0  0  0  0  0  0  0  0  0  0  0
    8.4356    0.2071    0.0000 H   0  0  0  0  0  0  0  0  0  0  0  0
    7.7135    0.7045    0.0000 H   0  0  0  0  0  0  0  0  0  0  0  0
    2.0704    0.6979    0.0000 H   0  0  0  0  0  0  0  0  0  0  0  0
    1.4313   -0.1651    0.0000 H   0  0  0  0  0  0  0  0  0  0  0  0
    8.5047   -2.2615    0.0000 H   0  0  0  0  0  0  0  0  0  0  0  0
    4.4915    2.4036    0.0000 H   0  0  0  0  0  0  0  0  0  0  0  0
  1  7  1  0  0  0  0
  1 21  1  0  0  0  0
  2 19  1  0  0  0  0
  2 47  1  0  0  0  0
  3 21  2  0  0  0  0
  4 22  1  0  0  0  0
  4 48  1  0  0  0  0
  5 22  2  0  0  0  0
  6  8  1  0  0  0  0
  6 10  1  0  0  0  0
  6 12  1  0  0  0  0
  6 13  1  0  0  0  0
  7  8  1  0  0  0  0
  7  9  1  0  0  0  0
  7 16  1  0  0  0  0
  8 14  1  0  0  0  0
  8 25  1  0  0  0  0
  9 10  1  0  0  0  0
  9 11  1  0  0  0  0
  9 26  1  0  0  0  0
 10 22  1  0  0  0  0
 10 27  1  0  0  0  0
 11 18  1  0  0  0  0
 11 21  1  0  0  0  0
 11 23  1  0  0  0  0
 12 15  1  0  0  0  0
 12 28  1  0  0  0  0
 12 29  1  0  0  0  0
 13 20  1  0  0  0  0
 13 30  1  0  0  0  0
 13 31  1  0  0  0  0
 14 17  1  0  0  0  0
 14 32  1  0  0  0  0
 14 33  1  0  0  0  0
 15 17  1  0  0  0  0
 15 20  1  0  0  0  0
 15 34  1  0  0  0  0
 16 19  1  0  0  0  0
 16 35  1  0  0  0  0
 16 36  1  0  0  0  0
 17 37  1  0  0  0  0
 17 38  1  0  0  0  0
 18 19  1  0  0  0  0
 18 39  1  0  0  0  0
 18 40  1  0  0  0  0
 19 41  1  0  0  0  0
 20 24  2  0  0  0  0
 23 42  1  0  0  0  0
 23 43  1  0  0  0  0
 23 44  1  0  0  0  0
 24 45  1  0  0  0  0
 24 46  1  0  0  0  0
M  END
>  <PUBCHEM_COMPOUND_CID>
13964928

>  <PUBCHEM_COMPOUND_CANONICALIZED>
1

>  <PUBCHEM_CACTVS_COMPLEXITY>
685

>  <PUBCHEM_CACTVS_HBOND_ACCEPTOR>
5

>  <PUBCHEM_CACTVS_HBOND_DONOR>
2

>  <PUBCHEM_CACTVS_ROTATABLE_BOND>
1

>  <PUBCHEM_CACTVS_SUBSKEYS>
AAADceB4OAAAAAAAAAAAAAAAAAAAAaMEAAAwYAAABogSAGDAAAAAGgAACAAAD1SggAICCAAABgCIAgDSCAAAAAAgAAAAAAEAAAgAEBIAAQACQAAFgAAAAAHK7vzPgAAAAAAAAADAAAYQADAAAYAADAAAAA==

>  <PUBCHEM_IUPAC_INCHI>
InChI=1S/C19H24O5/c1-9-5-18-6-10(9)3-4-12(18)19-8-11(20)7-17(2,16(23)24-19)14(19)13(18)15(21)22/h10-14,20H,1,3-8H2,2H3,(H,21,22)

>  <PUBCHEM_IUPAC_INCHIKEY>
HHDWSDSMWJQURA-UHFFFAOYSA-N

>  <PUBCHEM_XLOGP3_AA>
1.7

>  <PUBCHEM_EXACT_MASS>
332.162

>  <PUBCHEM_MOLECULAR_FORMULA>
C19H24O5

>  <PUBCHEM_MOLECULAR_WEIGHT>
332.396

>  <PUBCHEM_OPENEYE_CAN_SMILES>
CC12CC(CC3(C1C(C45C3CCC(C4)C(=C)C5)C(=O)O)OC2=O)O

>  <PUBCHEM_OPENEYE_ISO_SMILES>
CC12CC(CC3(C1C(C45C3CCC(C4)C(=C)C5)C(=O)O)OC2=O)O

>  <PUBCHEM_CACTVS_TPSA>
83.8

>  <PUBCHEM_MONOISOTOPIC_WEIGHT>
332.162

>  <PUBCHEM_TOTAL_CHARGE>
0

>  <PUBCHEM_HEAVY_ATOM_COUNT>
24

>  <PUBCHEM_ATOM_DEF_STEREO_COUNT>
0

>  <PUBCHEM_ATOM_UDEF_STEREO_COUNT>
8

>  <PUBCHEM_BOND_DEF_STEREO_COUNT>
0

>  <PUBCHEM_BOND_UDEF_STEREO_COUNT>
0

>  <PUBCHEM_ISOTOPIC_ATOM_COUNT>
0

>  <PUBCHEM_COMPONENT_COUNT>
1

>  <PUBCHEM_CACTVS_TAUTO_COUNT>
1

>  <PUBCHEM_COORDINATE_TYPE>
1
5
255

>  <PUBCHEM_BONDANNOTATIONS>
10  22  3
11  23  3
15  12  3
19  2  3
6  12  3
7  16  3
8  14  3
9  10  3

$$$$
