13963136
 OpenBabel06101807152D

 98101  0  0  1  0  0  0  0  0999 V2000
    4.5986   -4.6962    0.0000 O   0  0  0  0  0  0  0  0  0  0  0  0
   17.2316    5.3304    0.0000 O   0  0  0  0  0  0  0  0  0  0  0  0
   17.7320    4.4641    0.0000 C   0  0  2  0  0  0  0  0  0  0  0  0
    3.7320   -4.1962    0.0000 C   0  0  2  0  0  0  0  0  0  0  0  0
   18.2320    5.3301    0.0000 C   0  0  1  0  0  0  0  0  0  0  0  0
    3.7320   -5.1962    0.0000 C   0  0  1  0  0  0  0  0  0  0  0  0
   18.2320    3.5981    0.0000 C   0  0  0  0  0  0  0  0  0  0  0  0
    2.8660   -3.6962    0.0000 C   0  0  0  0  0  0  0  0  0  0  0  0
    2.8660   -5.6962    0.0000 C   0  0  0  0  0  0  0  0  0  0  0  0
   19.2320    5.3301    0.0000 C   0  0  0  0  0  0  0  0  0  0  0  0
    2.0000   -4.1962    0.0000 C   0  0  0  0  0  0  0  0  0  0  0  0
   19.2320    3.5981    0.0000 C   0  0  0  0  0  0  0  0  0  0  0  0
   19.7320    4.4641    0.0000 C   0  0  0  0  0  0  0  0  0  0  0  0
    2.0000   -5.1962    0.0000 C   0  0  0  0  0  0  0  0  0  0  0  0
   18.7320    6.1962    0.0000 C   0  0  0  0  0  0  0  0  0  0  0  0
    3.7320   -6.1962    0.0000 C   0  0  0  0  0  0  0  0  0  0  0  0
   17.2320    3.5981    0.0000 C   0  0  0  0  0  0  0  0  0  0  0  0
    4.2320   -3.3301    0.0000 C   0  0  0  0  0  0  0  0  0  0  0  0
    2.0000   -3.1962    0.0000 C   0  0  0  0  0  0  0  0  0  0  0  0
    2.8660   -2.6962    0.0000 C   0  0  0  0  0  0  0  0  0  0  0  0
   18.7321    2.7321    0.0000 C   0  0  0  0  0  0  0  0  0  0  0  0
   18.0584    2.6133    0.0000 C   0  0  0  0  0  0  0  0  0  0  0  0
   16.2320    3.5981    0.0000 C   0  0  0  0  0  0  0  0  0  0  0  0
    5.2320   -3.3301    0.0000 C   0  0  0  0  0  0  0  0  0  0  0  0
    5.7320   -2.4641    0.0000 C   0  0  0  0  0  0  0  0  0  0  0  0
   15.7321    2.7320    0.0000 C   0  0  0  0  0  0  0  0  0  0  0  0
   16.2320    1.8660    0.0000 C   0  0  0  0  0  0  0  0  0  0  0  0
    5.2320   -1.5981    0.0000 C   0  0  0  0  0  0  0  0  0  0  0  0
    6.7320   -2.4641    0.0000 C   0  0  0  0  0  0  0  0  0  0  0  0
   14.7321    2.7320    0.0000 C   0  0  0  0  0  0  0  0  0  0  0  0
   14.2321    1.8660    0.0000 C   0  0  0  0  0  0  0  0  0  0  0  0
    7.2320   -1.5981    0.0000 C   0  0  0  0  0  0  0  0  0  0  0  0
   13.2321    1.8660    0.0000 C   0  0  0  0  0  0  0  0  0  0  0  0
    8.2320   -1.5981    0.0000 C   0  0  0  0  0  0  0  0  0  0  0  0
    8.7320   -0.7321    0.0000 C   0  0  0  0  0  0  0  0  0  0  0  0
   12.7321    1.0000    0.0000 C   0  0  0  0  0  0  0  0  0  0  0  0
    8.2320    0.1340    0.0000 C   0  0  0  0  0  0  0  0  0  0  0  0
   13.2321    0.1340    0.0000 C   0  0  0  0  0  0  0  0  0  0  0  0
   11.7321    1.0000    0.0000 C   0  0  0  0  0  0  0  0  0  0  0  0
    9.7320   -0.7321    0.0000 C   0  0  0  0  0  0  0  0  0  0  0  0
   10.2321    0.1340    0.0000 C   0  0  0  0  0  0  0  0  0  0  0  0
   11.2321    0.1340    0.0000 C   0  0  0  0  0  0  0  0  0  0  0  0
   19.8147    5.5422    0.0000 H   0  0  0  0  0  0  0  0  0  0  0  0
   19.1244    5.9407    0.0000 H   0  0  0  0  0  0  0  0  0  0  0  0
    2.4675   -6.1711    0.0000 H   0  0  0  0  0  0  0  0  0  0  0  0
    3.2646   -6.1711    0.0000 H   0  0  0  0  0  0  0  0  0  0  0  0
   19.1244    2.9875    0.0000 H   0  0  0  0  0  0  0  0  0  0  0  0
   19.8147    3.3860    0.0000 H   0  0  0  0  0  0  0  0  0  0  0  0
    1.7880   -3.6135    0.0000 H   0  0  0  0  0  0  0  0  0  0  0  0
    1.3894   -4.3038    0.0000 H   0  0  0  0  0  0  0  0  0  0  0  0
   20.2070    4.0656    0.0000 H   0  0  0  0  0  0  0  0  0  0  0  0
   20.2070    4.8626    0.0000 H   0  0  0  0  0  0  0  0  0  0  0  0
    1.3894   -5.0885    0.0000 H   0  0  0  0  0  0  0  0  0  0  0  0
    1.7880   -5.7788    0.0000 H   0  0  0  0  0  0  0  0  0  0  0  0
    3.1120   -6.1962    0.0000 H   0  0  0  0  0  0  0  0  0  0  0  0
    3.7320   -6.8162    0.0000 H   0  0  0  0  0  0  0  0  0  0  0  0
    4.3520   -6.1962    0.0000 H   0  0  0  0  0  0  0  0  0  0  0  0
   19.2690    5.8862    0.0000 H   0  0  0  0  0  0  0  0  0  0  0  0
   19.0420    6.7331    0.0000 H   0  0  0  0  0  0  0  0  0  0  0  0
   18.1951    6.5062    0.0000 H   0  0  0  0  0  0  0  0  0  0  0  0
    3.9220   -2.7932    0.0000 H   0  0  0  0  0  0  0  0  0  0  0  0
   17.3397    2.9875    0.0000 H   0  0  0  0  0  0  0  0  0  0  0  0
    3.4860   -2.6962    0.0000 H   0  0  0  0  0  0  0  0  0  0  0  0
    2.8660   -2.0762    0.0000 H   0  0  0  0  0  0  0  0  0  0  0  0
    2.2460   -2.6962    0.0000 H   0  0  0  0  0  0  0  0  0  0  0  0
    2.3100   -2.6592    0.0000 H   0  0  0  0  0  0  0  0  0  0  0  0
    1.4631   -2.8862    0.0000 H   0  0  0  0  0  0  0  0  0  0  0  0
    1.6900   -3.7331    0.0000 H   0  0  0  0  0  0  0  0  0  0  0  0
   18.1952    2.4220    0.0000 H   0  0  0  0  0  0  0  0  0  0  0  0
   19.0422    2.1952    0.0000 H   0  0  0  0  0  0  0  0  0  0  0  0
   19.2690    3.0422    0.0000 H   0  0  0  0  0  0  0  0  0  0  0  0
   17.4478    2.7209    0.0000 H   0  0  0  0  0  0  0  0  0  0  0  0
   17.9507    2.0027    0.0000 H   0  0  0  0  0  0  0  0  0  0  0  0
   18.6690    2.5056    0.0000 H   0  0  0  0  0  0  0  0  0  0  0  0
   15.9221    4.1350    0.0000 H   0  0  0  0  0  0  0  0  0  0  0  0
    5.5420   -3.8671    0.0000 H   0  0  0  0  0  0  0  0  0  0  0  0
    5.7690   -1.2881    0.0000 H   0  0  0  0  0  0  0  0  0  0  0  0
    4.9220   -1.0611    0.0000 H   0  0  0  0  0  0  0  0  0  0  0  0
    4.6951   -1.9081    0.0000 H   0  0  0  0  0  0  0  0  0  0  0  0
   15.6951    1.5560    0.0000 H   0  0  0  0  0  0  0  0  0  0  0  0
   16.5420    1.3291    0.0000 H   0  0  0  0  0  0  0  0  0  0  0  0
   16.7690    2.1760    0.0000 H   0  0  0  0  0  0  0  0  0  0  0  0
   14.4221    3.2690    0.0000 H   0  0  0  0  0  0  0  0  0  0  0  0
    7.0420   -3.0010    0.0000 H   0  0  0  0  0  0  0  0  0  0  0  0
   14.5421    1.3291    0.0000 H   0  0  0  0  0  0  0  0  0  0  0  0
    6.9220   -1.0611    0.0000 H   0  0  0  0  0  0  0  0  0  0  0  0
   12.9221    2.4030    0.0000 H   0  0  0  0  0  0  0  0  0  0  0  0
    8.5420   -2.1350    0.0000 H   0  0  0  0  0  0  0  0  0  0  0  0
    8.7690    0.4440    0.0000 H   0  0  0  0  0  0  0  0  0  0  0  0
    7.9220    0.6709    0.0000 H   0  0  0  0  0  0  0  0  0  0  0  0
    7.6951   -0.1760    0.0000 H   0  0  0  0  0  0  0  0  0  0  0  0
   12.6951   -0.1760    0.0000 H   0  0  0  0  0  0  0  0  0  0  0  0
   13.5421   -0.4030    0.0000 H   0  0  0  0  0  0  0  0  0  0  0  0
   13.7690    0.4440    0.0000 H   0  0  0  0  0  0  0  0  0  0  0  0
   11.4221    1.5369    0.0000 H   0  0  0  0  0  0  0  0  0  0  0  0
   10.0421   -1.2690    0.0000 H   0  0  0  0  0  0  0  0  0  0  0  0
    9.9220    0.6709    0.0000 H   0  0  0  0  0  0  0  0  0  0  0  0
   11.5421   -0.4030    0.0000 H   0  0  0  0  0  0  0  0  0  0  0  0
  1  4  1  0  0  0  0
  1  6  1  0  0  0  0
  2  3  1  0  0  0  0
  2  5  1  0  0  0  0
  3  5  1  1  0  0  0
  3  7  1  0  0  0  0
  3 17  1  0  0  0  0
  4  6  1  1  0  0  0
  4  8  1  0  0  0  0
  4 18  1  0  0  0  0
  5 10  1  0  0  0  0
  5 15  1  1  0  0  0
  6  9  1  0  0  0  0
  6 16  1  1  0  0  0
  7 12  1  0  0  0  0
  7 21  1  0  0  0  0
  7 22  1  0  0  0  0
  8 11  1  0  0  0  0
  8 19  1  0  0  0  0
  8 20  1  0  0  0  0
  9 14  1  0  0  0  0
  9 45  1  0  0  0  0
  9 46  1  0  0  0  0
 10 13  1  0  0  0  0
 10 43  1  0  0  0  0
 10 44  1  0  0  0  0
 11 14  1  0  0  0  0
 11 49  1  0  0  0  0
 11 50  1  0  0  0  0
 12 13  1  0  0  0  0
 12 47  1  0  0  0  0
 12 48  1  0  0  0  0
 13 51  1  0  0  0  0
 13 52  1  0  0  0  0
 14 53  1  0  0  0  0
 14 54  1  0  0  0  0
 15 58  1  0  0  0  0
 15 59  1  0  0  0  0
 15 60  1  0  0  0  0
 16 55  1  0  0  0  0
 16 56  1  0  0  0  0
 16 57  1  0  0  0  0
 17 23  2  0  0  0  0
 17 62  1  0  0  0  0
 18 24  2  0  0  0  0
 18 61  1  0  0  0  0
 19 66  1  0  0  0  0
 19 67  1  0  0  0  0
 19 68  1  0  0  0  0
 20 63  1  0  0  0  0
 20 64  1  0  0  0  0
 20 65  1  0  0  0  0
 21 69  1  0  0  0  0
 21 70  1  0  0  0  0
 21 71  1  0  0  0  0
 22 72  1  0  0  0  0
 22 73  1  0  0  0  0
 22 74  1  0  0  0  0
 23 26  1  0  0  0  0
 23 75  1  0  0  0  0
 24 25  1  0  0  0  0
 24 76  1  0  0  0  0
 25 28  1  0  0  0  0
 25 29  2  0  0  0  0
 26 27  1  0  0  0  0
 26 30  2  0  0  0  0
 27 80  1  0  0  0  0
 27 81  1  0  0  0  0
 27 82  1  0  0  0  0
 28 77  1  0  0  0  0
 28 78  1  0  0  0  0
 28 79  1  0  0  0  0
 29 32  1  0  0  0  0
 29 84  1  0  0  0  0
 30 31  1  0  0  0  0
 30 83  1  0  0  0  0
 31 33  2  0  0  0  0
 31 85  1  0  0  0  0
 32 34  2  0  0  0  0
 32 86  1  0  0  0  0
 33 36  1  0  0  0  0
 33 87  1  0  0  0  0
 34 35  1  0  0  0  0
 34 88  1  0  0  0  0
 35 37  1  0  0  0  0
 35 40  2  0  0  0  0
 36 38  1  0  0  0  0
 36 39  2  0  0  0  0
 37 89  1  0  0  0  0
 37 90  1  0  0  0  0
 37 91  1  0  0  0  0
 38 92  1  0  0  0  0
 38 93  1  0  0  0  0
 38 94  1  0  0  0  0
 39 42  1  0  0  0  0
 39 95  1  0  0  0  0
 40 41  1  0  0  0  0
 40 96  1  0  0  0  0
 41 42  2  0  0  0  0
 41 97  1  0  0  0  0
 42 98  1  0  0  0  0
M  END
>  <PUBCHEM_COMPOUND_CID>
13963136

>  <PUBCHEM_COMPOUND_CANONICALIZED>
1

>  <PUBCHEM_CACTVS_COMPLEXITY>
1200

>  <PUBCHEM_CACTVS_HBOND_ACCEPTOR>
2

>  <PUBCHEM_CACTVS_HBOND_DONOR>
0

>  <PUBCHEM_CACTVS_ROTATABLE_BOND>
10

>  <PUBCHEM_CACTVS_SUBSKEYS>
AAADcfB8MAAAAAAAAAAAAAAAEiQAAAAAAAAwYAAABIkAAAAAAAAAGgAAAAAADkSAgAACAAAABACAAiBCAAAAAAAgAAAICAAAAAgIBAIAIQACEAAEwAAIoAOAwPAPgAAAAAAAAAAAAAYAADAAAAAAAAAAAA==

>  <PUBCHEM_IUPAC_OPENEYE_NAME>
(1R,6S)-1,5,5-trimethyl-6-[(1E,3E,5E,7E,9E,11E,13E,15E,17E)-3,7,12,16-tetramethyl-18-[(1R,6S)-1,5,5-trimethyl-7-oxabicyclo[4.1.0]heptan-6-yl]octadeca-1,3,5,7,9,11,13,15,17-nonaenyl]-7-oxabicyclo[4.1.0]heptane

>  <PUBCHEM_IUPAC_CAS_NAME>
(1R,6S)-1,5,5-trimethyl-6-[(1E,3E,5E,7E,9E,11E,13E,15E,17E)-3,7,12,16-tetramethyl-18-[(1R,6S)-1,5,5-trimethyl-7-oxabicyclo[4.1.0]heptan-6-yl]octadeca-1,3,5,7,9,11,13,15,17-nonaenyl]-7-oxabicyclo[4.1.0]heptane

>  <PUBCHEM_IUPAC_NAME>
(1R,6S)-1,5,5-trimethyl-6-[(1E,3E,5E,7E,9E,11E,13E,15E,17E)-3,7,12,16-tetramethyl-18-[(1R,6S)-1,5,5-trimethyl-7-oxabicyclo[4.1.0]heptan-6-yl]octadeca-1,3,5,7,9,11,13,15,17-nonaenyl]-7-oxabicyclo[4.1.0]heptane

>  <PUBCHEM_IUPAC_SYSTEMATIC_NAME>
(1R,6S)-1,5,5-trimethyl-6-[(1E,3E,5E,7E,9E,11E,13E,15E,17E)-3,7,12,16-tetramethyl-18-[(1R,6S)-1,5,5-trimethyl-7-oxabicyclo[4.1.0]heptan-6-yl]octadeca-1,3,5,7,9,11,13,15,17-nonaenyl]-7-oxabicyclo[4.1.0]heptane

>  <PUBCHEM_IUPAC_TRADITIONAL_NAME>
(1R,6S)-1,5,5-trimethyl-6-[(1E,3E,5E,7E,9E,11E,13E,15E,17E)-3,7,12,16-tetramethyl-18-[(1R,6S)-1,5,5-trimethyl-7-oxabicyclo[4.1.0]heptan-6-yl]octadeca-1,3,5,7,9,11,13,15,17-nonaenyl]-7-oxabicyclo[4.1.0]heptane

>  <PUBCHEM_IUPAC_INCHI>
InChI=1S/C40H56O2/c1-31(19-13-21-33(3)23-29-39-35(5,6)25-15-27-37(39,9)41-39)17-11-12-18-32(2)20-14-22-34(4)24-30-40-36(7,8)26-16-28-38(40,10)42-40/h11-14,17-24,29-30H,15-16,25-28H2,1-10H3/b12-11+,19-13+,20-14+,29-23+,30-24+,31-17+,32-18+,33-21+,34-22+/t37-,38-,39+,40+/m1/s1

>  <PUBCHEM_IUPAC_INCHIKEY>
JMZDCQZKLCHTFI-HPLZOGFXSA-N

>  <PUBCHEM_XLOGP3_AA>
11.7

>  <PUBCHEM_EXACT_MASS>
568.428

>  <PUBCHEM_MOLECULAR_FORMULA>
C40H56O2

>  <PUBCHEM_MOLECULAR_WEIGHT>
568.886

>  <PUBCHEM_OPENEYE_CAN_SMILES>
CC(=CC=CC=C(C)C=CC=C(C)C=CC12C(CCCC1(O2)C)(C)C)C=CC=C(C)C=CC34C(CCCC3(O4)C)(C)C

>  <PUBCHEM_OPENEYE_ISO_SMILES>
C/C(=C\C=C\C=C(\C=C\C=C(\C=C\[C@@]12O[C@@]1(CCCC2(C)C)C)/C)/C)/C=C/C=C(/C=C/[C@@]34O[C@@]3(CCCC4(C)C)C)\C

>  <PUBCHEM_CACTVS_TPSA>
25.1

>  <PUBCHEM_MONOISOTOPIC_WEIGHT>
568.428

>  <PUBCHEM_TOTAL_CHARGE>
0

>  <PUBCHEM_HEAVY_ATOM_COUNT>
42

>  <PUBCHEM_ATOM_DEF_STEREO_COUNT>
4

>  <PUBCHEM_ATOM_UDEF_STEREO_COUNT>
0

>  <PUBCHEM_BOND_DEF_STEREO_COUNT>
9

>  <PUBCHEM_BOND_UDEF_STEREO_COUNT>
0

>  <PUBCHEM_ISOTOPIC_ATOM_COUNT>
0

>  <PUBCHEM_COMPONENT_COUNT>
1

>  <PUBCHEM_CACTVS_TAUTO_COUNT>
1

>  <PUBCHEM_COORDINATE_TYPE>
1
5
255

>  <PUBCHEM_BONDANNOTATIONS>
3  17  5
4  18  5
5  15  5
6  16  5

$$$$
