13971001
 OpenBabel06101807152D

 34 38  0  0  0  0  0  0  0  0999 V2000
    8.6480    2.1172    0.0000 O   0  0  0  0  0  0  0  0  0  0  0  0
    7.2616   -2.1681    0.0000 O   0  0  0  0  0  0  0  0  0  0  0  0
    6.9654    1.5672    0.0000 N   0  0  0  0  0  0  0  0  0  0  0  0
    4.5124    0.4498    0.0000 N   0  0  0  0  0  0  0  0  0  0  0  0
    6.6028   -0.1714    0.0000 N   0  0  0  0  0  0  0  0  0  0  0  0
    5.3181    1.0320    0.0000 C   0  0  0  0  0  0  0  0  0  0  0  0
    5.0091    1.9830    0.0000 C   0  0  0  0  0  0  0  0  0  0  0  0
    6.2962    0.8241    0.0000 C   0  0  0  0  0  0  0  0  0  0  0  0
    4.0150    1.9805    0.0000 C   0  0  0  0  0  0  0  0  0  0  0  0
    3.7086    1.0348    0.0000 C   0  0  0  0  0  0  0  0  0  0  0  0
    5.6782    2.7262    0.0000 C   0  0  0  0  0  0  0  0  0  0  0  0
    6.6564    2.5183    0.0000 C   0  0  0  0  0  0  0  0  0  0  0  0
    7.9875    1.3664    0.0000 C   0  0  0  0  0  0  0  0  0  0  0  0
    8.3170    0.3782    0.0000 C   0  0  0  0  0  0  0  0  0  0  0  0
    7.6200   -0.3958    0.0000 C   0  0  0  0  0  0  0  0  0  0  0  0
    3.3334    2.7600    0.0000 C   0  0  0  0  0  0  0  0  0  0  0  0
    2.6994    0.8030    0.0000 C   0  0  0  0  0  0  0  0  0  0  0  0
    7.9393   -1.4328    0.0000 C   0  0  0  0  0  0  0  0  0  0  0  0
    2.3191    2.5516    0.0000 C   0  0  0  0  0  0  0  0  0  0  0  0
    9.3816    0.1691    0.0000 C   0  0  0  0  0  0  0  0  0  0  0  0
    2.0000    1.5666    0.0000 C   0  0  0  0  0  0  0  0  0  0  0  0
    8.9988   -1.6665    0.0000 C   0  0  0  0  0  0  0  0  0  0  0  0
    9.7248   -0.8602    0.0000 C   0  0  0  0  0  0  0  0  0  0  0  0
    4.5113   -0.1702    0.0000 H   0  0  0  0  0  0  0  0  0  0  0  0
    5.4866    3.3158    0.0000 H   0  0  0  0  0  0  0  0  0  0  0  0
    7.0712    2.9790    0.0000 H   0  0  0  0  0  0  0  0  0  0  0  0
    3.5313    3.3475    0.0000 H   0  0  0  0  0  0  0  0  0  0  0  0
    2.5152    0.2110    0.0000 H   0  0  0  0  0  0  0  0  0  0  0  0
    9.7911    0.6346    0.0000 H   0  0  0  0  0  0  0  0  0  0  0  0
    1.9056    3.0136    0.0000 H   0  0  0  0  0  0  0  0  0  0  0  0
    1.3942    1.4348    0.0000 H   0  0  0  0  0  0  0  0  0  0  0  0
    9.1881   -2.2569    0.0000 H   0  0  0  0  0  0  0  0  0  0  0  0
   10.3318   -0.9868    0.0000 H   0  0  0  0  0  0  0  0  0  0  0  0
    7.4464   -2.7600    0.0000 H   0  0  0  0  0  0  0  0  0  0  0  0
  1 13  2  0  0  0  0
  2 18  1  0  0  0  0
  2 34  1  0  0  0  0
  3  8  1  0  0  0  0
  3 12  1  0  0  0  0
  3 13  1  0  0  0  0
  4  6  1  0  0  0  0
  4 10  1  0  0  0  0
  4 24  1  0  0  0  0
  5  8  2  0  0  0  0
  5 15  1  0  0  0  0
  6  7  2  0  0  0  0
  6  8  1  0  0  0  0
  7  9  1  0  0  0  0
  7 11  1  0  0  0  0
  9 10  1  0  0  0  0
  9 16  2  0  0  0  0
 10 17  2  0  0  0  0
 11 12  2  0  0  0  0
 11 25  1  0  0  0  0
 12 26  1  0  0  0  0
 13 14  1  0  0  0  0
 14 15  2  0  0  0  0
 14 20  1  0  0  0  0
 15 18  1  0  0  0  0
 16 19  1  0  0  0  0
 16 27  1  0  0  0  0
 17 21  1  0  0  0  0
 17 28  1  0  0  0  0
 18 22  2  0  0  0  0
 19 21  2  0  0  0  0
 19 30  1  0  0  0  0
 20 23  2  0  0  0  0
 20 29  1  0  0  0  0
 21 31  1  0  0  0  0
 22 23  1  0  0  0  0
 22 32  1  0  0  0  0
 23 33  1  0  0  0  0
M  END
>  <PUBCHEM_COMPOUND_CID>
13971001

>  <PUBCHEM_COMPOUND_CANONICALIZED>
1

>  <PUBCHEM_CACTVS_COMPLEXITY>
587

>  <PUBCHEM_CACTVS_HBOND_ACCEPTOR>
3

>  <PUBCHEM_CACTVS_HBOND_DONOR>
2

>  <PUBCHEM_CACTVS_ROTATABLE_BOND>
0

>  <PUBCHEM_CACTVS_SUBSKEYS>
AAADccB7MAAAAAAAAAAAAAAAAAAAAWAAAAAwYIEAAAAAAFiB9AAAHgAQCAAADAzBngQxxvPJkgCoAyd2dACCgCElIiAJmSE/bNgKZvrS3ZOUcYhk1hHI2ce6yNCOgAABAAACEAAAAAIAAAQgAAAAAAAAAA==

>  <PUBCHEM_IUPAC_TRADITIONAL_NAME>
1-hydroxy-13H-quinazolino[2,3-a]$b-carbolin-5-one

>  <PUBCHEM_IUPAC_INCHI>
InChI=1S/C18H11N3O2/c22-14-7-3-5-12-15(14)20-17-16-11(8-9-21(17)18(12)23)10-4-1-2-6-13(10)19-16/h1-9,19,22H

>  <PUBCHEM_IUPAC_INCHIKEY>
OMFWTNOKBSQADJ-UHFFFAOYSA-N

>  <PUBCHEM_XLOGP3_AA>
2.8

>  <PUBCHEM_EXACT_MASS>
301.085

>  <PUBCHEM_MOLECULAR_FORMULA>
C18H11N3O2

>  <PUBCHEM_MOLECULAR_WEIGHT>
301.305

>  <PUBCHEM_OPENEYE_CAN_SMILES>
C1=CC=C2C(=C1)C3=C(N2)C4=NC5=C(C=CC=C5O)C(=O)N4C=C3

>  <PUBCHEM_OPENEYE_ISO_SMILES>
C1=CC=C2C(=C1)C3=C(N2)C4=NC5=C(C=CC=C5O)C(=O)N4C=C3

>  <PUBCHEM_CACTVS_TPSA>
68.7

>  <PUBCHEM_MONOISOTOPIC_WEIGHT>
301.085

>  <PUBCHEM_TOTAL_CHARGE>
0

>  <PUBCHEM_HEAVY_ATOM_COUNT>
23

>  <PUBCHEM_ATOM_DEF_STEREO_COUNT>
0

>  <PUBCHEM_ATOM_UDEF_STEREO_COUNT>
0

>  <PUBCHEM_BOND_DEF_STEREO_COUNT>
0

>  <PUBCHEM_BOND_UDEF_STEREO_COUNT>
0

>  <PUBCHEM_ISOTOPIC_ATOM_COUNT>
0

>  <PUBCHEM_COMPONENT_COUNT>
1

>  <PUBCHEM_CACTVS_TAUTO_COUNT>
12

>  <PUBCHEM_COORDINATE_TYPE>
1
5
255

>  <PUBCHEM_BONDANNOTATIONS>
10  17  8
11  12  8
13  14  8
14  15  8
14  20  8
15  18  8
16  19  8
17  21  8
18  22  8
19  21  8
20  23  8
22  23  8
3  12  8
3  13  8
3  8  8
4  10  8
4  6  8
5  15  8
5  8  8
6  7  8
6  8  8
7  11  8
7  9  8
9  10  8
9  16  8

$$$$
