13984469
 OpenBabel06101807152D

 59 62  0  0  1  0  0  0  0  0999 V2000
    5.1350   -2.1246    0.0000 O   0  0  0  0  0  0  0  0  0  0  0  0
    6.8671   -2.1246    0.0000 O   0  0  0  0  0  0  0  0  0  0  0  0
    5.1350   -5.1246    0.0000 O   0  0  0  0  0  0  0  0  0  0  0  0
    3.4030   -4.1246    0.0000 O   0  0  0  0  0  0  0  0  0  0  0  0
    6.8671   -4.1246    0.0000 O   0  0  0  0  0  0  0  0  0  0  0  0
    2.5369   -2.6246    0.0000 O   0  0  0  0  0  0  0  0  0  0  0  0
    8.6230    0.9379    0.0000 O   0  0  0  0  0  0  0  0  0  0  0  0
    5.1208    0.9546    0.0000 O   0  0  0  0  0  0  0  0  0  0  0  0
    6.0308    2.4479    0.0000 O   0  0  0  0  0  0  0  0  0  0  0  0
   10.3705    4.9312    0.0000 O   0  0  0  0  0  0  0  0  0  0  0  0
   12.0910    1.9246    0.0000 O   0  0  0  0  0  0  0  0  0  0  0  0
   12.0987    3.9246    0.0000 O   0  0  0  0  0  0  0  0  0  0  0  0
    5.1350   -4.1246    0.0000 C   0  0  3  0  0  0  0  0  0  0  0  0
    4.2690   -3.6246    0.0000 C   0  0  3  0  0  0  0  0  0  0  0  0
    6.0010   -3.6246    0.0000 C   0  0  3  0  0  0  0  0  0  0  0  0
    4.2690   -2.6246    0.0000 C   0  0  3  0  0  0  0  0  0  0  0  0
    6.0010   -2.6246    0.0000 C   0  0  3  0  0  0  0  0  0  0  0  0
    3.4030   -2.1246    0.0000 C   0  0  0  0  0  0  0  0  0  0  0  0
    6.8671   -1.1246    0.0000 C   0  0  0  0  0  0  0  0  0  0  0  0
    7.7671   -0.6003    0.0000 C   0  0  0  0  0  0  0  0  0  0  0  0
    5.9670   -0.6003    0.0000 C   0  0  0  0  0  0  0  0  0  0  0  0
    7.7551    0.4413    0.0000 C   0  0  0  0  0  0  0  0  0  0  0  0
    6.8910    0.9446    0.0000 C   0  0  0  0  0  0  0  0  0  0  0  0
    5.9790    0.4413    0.0000 C   0  0  0  0  0  0  0  0  0  0  0  0
    6.8948    1.9446    0.0000 C   0  0  0  0  0  0  0  0  0  0  0  0
    8.6269    1.9379    0.0000 C   0  0  0  0  0  0  0  0  0  0  0  0
    7.7628    2.4413    0.0000 C   0  0  0  0  0  0  0  0  0  0  0  0
    9.4948    2.4346    0.0000 C   0  0  0  0  0  0  0  0  0  0  0  0
   10.3589    1.9313    0.0000 C   0  0  0  0  0  0  0  0  0  0  0  0
    9.4987    3.4346    0.0000 C   0  0  0  0  0  0  0  0  0  0  0  0
   10.3666    3.9312    0.0000 C   0  0  0  0  0  0  0  0  0  0  0  0
   11.2269    2.4279    0.0000 C   0  0  0  0  0  0  0  0  0  0  0  0
   11.2307    3.4279    0.0000 C   0  0  0  0  0  0  0  0  0  0  0  0
    9.5064    5.4346    0.0000 C   0  0  0  0  0  0  0  0  0  0  0  0
   12.0871    0.9246    0.0000 C   0  0  0  0  0  0  0  0  0  0  0  0
    5.6720   -4.4346    0.0000 H   0  0  0  0  0  0  0  0  0  0  0  0
    3.7320   -3.3146    0.0000 H   0  0  0  0  0  0  0  0  0  0  0  0
    6.5380   -3.3146    0.0000 H   0  0  0  0  0  0  0  0  0  0  0  0
    4.2690   -2.0046    0.0000 H   0  0  0  0  0  0  0  0  0  0  0  0
    6.0010   -2.0046    0.0000 H   0  0  0  0  0  0  0  0  0  0  0  0
    3.8015   -1.6496    0.0000 H   0  0  0  0  0  0  0  0  0  0  0  0
    3.0044   -1.6496    0.0000 H   0  0  0  0  0  0  0  0  0  0  0  0
    4.5981   -5.4346    0.0000 H   0  0  0  0  0  0  0  0  0  0  0  0
    3.4030   -4.7446    0.0000 H   0  0  0  0  0  0  0  0  0  0  0  0
    6.8671   -4.7446    0.0000 H   0  0  0  0  0  0  0  0  0  0  0  0
    2.0000   -2.3146    0.0000 H   0  0  0  0  0  0  0  0  0  0  0  0
    8.3064   -0.9061    0.0000 H   0  0  0  0  0  0  0  0  0  0  0  0
    5.4277   -0.9061    0.0000 H   0  0  0  0  0  0  0  0  0  0  0  0
    7.7652    3.0613    0.0000 H   0  0  0  0  0  0  0  0  0  0  0  0
    4.5792    0.6529    0.0000 H   0  0  0  0  0  0  0  0  0  0  0  0
   10.3565    1.3113    0.0000 H   0  0  0  0  0  0  0  0  0  0  0  0
    8.9630    3.7466    0.0000 H   0  0  0  0  0  0  0  0  0  0  0  0
   12.1011    4.5446    0.0000 H   0  0  0  0  0  0  0  0  0  0  0  0
    9.8185    5.9703    0.0000 H   0  0  0  0  0  0  0  0  0  0  0  0
    8.9707    5.7466    0.0000 H   0  0  0  0  0  0  0  0  0  0  0  0
    9.1943    4.8988    0.0000 H   0  0  0  0  0  0  0  0  0  0  0  0
   11.4671    0.9270    0.0000 H   0  0  0  0  0  0  0  0  0  0  0  0
   12.0847    0.3046    0.0000 H   0  0  0  0  0  0  0  0  0  0  0  0
   12.7071    0.9222    0.0000 H   0  0  0  0  0  0  0  0  0  0  0  0
  1 16  1  0  0  0  0
  1 17  1  0  0  0  0
  2 17  1  0  0  0  0
  2 19  1  0  0  0  0
  3 13  1  0  0  0  0
  3 43  1  0  0  0  0
  4 14  1  0  0  0  0
  4 44  1  0  0  0  0
  5 15  1  0  0  0  0
  5 45  1  0  0  0  0
  6 18  1  0  0  0  0
  6 46  1  0  0  0  0
  7 22  1  0  0  0  0
  7 26  1  0  0  0  0
  8 24  1  0  0  0  0
  8 50  1  0  0  0  0
  9 25  2  0  0  0  0
 10 31  1  0  0  0  0
 10 34  1  0  0  0  0
 11 32  1  0  0  0  0
 11 35  1  0  0  0  0
 12 33  1  0  0  0  0
 12 53  1  0  0  0  0
 13 14  1  0  0  0  0
 13 15  1  0  0  0  0
 13 36  1  0  0  0  0
 14 16  1  0  0  0  0
 14 37  1  0  0  0  0
 15 17  1  0  0  0  0
 15 38  1  0  0  0  0
 16 18  1  0  0  0  0
 16 39  1  0  0  0  0
 17 40  1  0  0  0  0
 18 41  1  0  0  0  0
 18 42  1  0  0  0  0
 19 20  1  0  0  0  0
 19 21  2  0  0  0  0
 20 22  2  0  0  0  0
 20 47  1  0  0  0  0
 21 24  1  0  0  0  0
 21 48  1  0  0  0  0
 22 23  1  0  0  0  0
 23 24  2  0  0  0  0
 23 25  1  0  0  0  0
 25 27  1  0  0  0  0
 26 27  2  0  0  0  0
 26 28  1  0  0  0  0
 27 49  1  0  0  0  0
 28 29  2  0  0  0  0
 28 30  1  0  0  0  0
 29 32  1  0  0  0  0
 29 51  1  0  0  0  0
 30 31  2  0  0  0  0
 30 52  1  0  0  0  0
 31 33  1  0  0  0  0
 32 33  2  0  0  0  0
 34 54  1  0  0  0  0
 34 55  1  0  0  0  0
 34 56  1  0  0  0  0
 35 57  1  0  0  0  0
 35 58  1  0  0  0  0
 35 59  1  0  0  0  0
M  END
>  <PUBCHEM_COMPOUND_CID>
13984469

>  <PUBCHEM_COMPOUND_CANONICALIZED>
1

>  <PUBCHEM_CACTVS_COMPLEXITY>
762

>  <PUBCHEM_CACTVS_HBOND_ACCEPTOR>
12

>  <PUBCHEM_CACTVS_HBOND_DONOR>
6

>  <PUBCHEM_CACTVS_ROTATABLE_BOND>
6

>  <PUBCHEM_CACTVS_SUBSKEYS>
AAADceB4PAAAAAAAAAAAAAAAAAAAAAAAAAA0YIEAAAAAAACBQAAAGgAACAAADBSwmAMyDoAABgCIAqBSAAACCAAkIAAAiAEGiMgdNzaGNRqieWOl4BUPuQfI7LzOIAABCAAIQABAAAIQABCAAAAAAAAAAA==

>  <PUBCHEM_IUPAC_OPENEYE_NAME>
5-hydroxy-2-(4-hydroxy-3,5-dimethoxy-phenyl)-7-[3,4,5-trihydroxy-6-(hydroxymethyl)tetrahydropyran-2-yl]oxy-chromen-4-one

>  <PUBCHEM_IUPAC_CAS_NAME>
5-hydroxy-2-(4-hydroxy-3,5-dimethoxyphenyl)-7-[[3,4,5-trihydroxy-6-(hydroxymethyl)-2-oxanyl]oxy]-1-benzopyran-4-one

>  <PUBCHEM_IUPAC_NAME>
5-hydroxy-2-(4-hydroxy-3,5-dimethoxyphenyl)-7-[3,4,5-trihydroxy-6-(hydroxymethyl)oxan-2-yl]oxychromen-4-one

>  <PUBCHEM_IUPAC_SYSTEMATIC_NAME>
2-(3,5-dimethoxy-4-oxidanyl-phenyl)-7-[6-(hydroxymethyl)-3,4,5-tris(oxidanyl)oxan-2-yl]oxy-5-oxidanyl-chromen-4-one

>  <PUBCHEM_IUPAC_TRADITIONAL_NAME>
5-hydroxy-2-(4-hydroxy-3,5-dimethoxy-phenyl)-7-(3,4,5-trihydroxy-6-methylol-tetrahydropyran-2-yl)oxy-chromone

>  <PUBCHEM_IUPAC_INCHI>
InChI=1S/C23H24O12/c1-31-15-3-9(4-16(32-2)19(15)27)13-7-12(26)18-11(25)5-10(6-14(18)34-13)33-23-22(30)21(29)20(28)17(8-24)35-23/h3-7,17,20-25,27-30H,8H2,1-2H3

>  <PUBCHEM_IUPAC_INCHIKEY>
JGXFMIJHKASCIZ-UHFFFAOYSA-N

>  <PUBCHEM_XLOGP3_AA>
0.8

>  <PUBCHEM_EXACT_MASS>
492.127

>  <PUBCHEM_MOLECULAR_FORMULA>
C23H24O12

>  <PUBCHEM_MOLECULAR_WEIGHT>
492.433

>  <PUBCHEM_OPENEYE_CAN_SMILES>
COC1=CC(=CC(=C1O)OC)C2=CC(=O)C3=C(C=C(C=C3O2)OC4C(C(C(C(O4)CO)O)O)O)O

>  <PUBCHEM_OPENEYE_ISO_SMILES>
COC1=CC(=CC(=C1O)OC)C2=CC(=O)C3=C(C=C(C=C3O2)OC4C(C(C(C(O4)CO)O)O)O)O

>  <PUBCHEM_CACTVS_TPSA>
185

>  <PUBCHEM_MONOISOTOPIC_WEIGHT>
492.127

>  <PUBCHEM_TOTAL_CHARGE>
0

>  <PUBCHEM_HEAVY_ATOM_COUNT>
35

>  <PUBCHEM_ATOM_DEF_STEREO_COUNT>
0

>  <PUBCHEM_ATOM_UDEF_STEREO_COUNT>
5

>  <PUBCHEM_BOND_DEF_STEREO_COUNT>
0

>  <PUBCHEM_BOND_UDEF_STEREO_COUNT>
0

>  <PUBCHEM_ISOTOPIC_ATOM_COUNT>
0

>  <PUBCHEM_COMPONENT_COUNT>
1

>  <PUBCHEM_CACTVS_TAUTO_COUNT>
24

>  <PUBCHEM_COORDINATE_TYPE>
1
5
255

>  <PUBCHEM_BONDANNOTATIONS>
16  18  3
19  20  8
19  21  8
17  2  3
20  22  8
21  24  8
22  23  8
23  24  8
23  25  8
25  27  8
26  27  8
28  29  8
28  30  8
29  32  8
13  3  3
30  31  8
31  33  8
32  33  8
14  4  3
15  5  3
7  22  8
7  26  8

$$$$
