14016776
 OpenBabel06101807152D

 34 36  0  0  0  0  0  0  0  0999 V2000
    3.4037   -0.4529    0.0000 S   0  0  0  0  0  0  0  0  0  0  0  0
    7.8018   -0.9254    0.0000 O   0  0  0  0  0  0  0  0  0  0  0  0
    4.2716   -0.9495    0.0000 O   0  0  0  0  0  0  0  0  0  0  0  0
    6.0534    2.1092    0.0000 O   0  0  0  0  0  0  0  0  0  0  0  0
    7.8018    2.0746    0.0000 O   0  0  0  0  0  0  0  0  0  0  0  0
   12.1319   -2.4254    0.0000 O   0  0  0  0  0  0  0  0  0  0  0  0
    2.5357    0.0438    0.0000 O   0  0  0  0  0  0  0  0  0  0  0  0
    2.9070   -1.3208    0.0000 O   0  0  0  0  0  0  0  0  0  0  0  0
    3.9003    0.4151    0.0000 O   0  0  0  0  0  0  0  0  0  0  0  0
    6.9357    0.5746    0.0000 C   0  0  0  0  0  0  0  0  0  0  0  0
    6.9357   -0.4254    0.0000 C   0  0  0  0  0  0  0  0  0  0  0  0
    8.6678   -0.4254    0.0000 C   0  0  0  0  0  0  0  0  0  0  0  0
    7.8018    1.0746    0.0000 C   0  0  0  0  0  0  0  0  0  0  0  0
    6.0418    1.1093    0.0000 C   0  0  0  0  0  0  0  0  0  0  0  0
    6.0418   -0.9601    0.0000 C   0  0  0  0  0  0  0  0  0  0  0  0
    9.5338   -0.9254    0.0000 C   0  0  0  0  0  0  0  0  0  0  0  0
    8.6678    0.5746    0.0000 C   0  0  0  0  0  0  0  0  0  0  0  0
    5.1357   -0.4462    0.0000 C   0  0  0  0  0  0  0  0  0  0  0  0
    5.1357    0.5954    0.0000 C   0  0  0  0  0  0  0  0  0  0  0  0
    9.5338   -1.9254    0.0000 C   0  0  0  0  0  0  0  0  0  0  0  0
   10.3998   -0.4254    0.0000 C   0  0  0  0  0  0  0  0  0  0  0  0
   10.3998   -2.4254    0.0000 C   0  0  0  0  0  0  0  0  0  0  0  0
   11.2659   -0.9254    0.0000 C   0  0  0  0  0  0  0  0  0  0  0  0
   11.2659   -1.9254    0.0000 C   0  0  0  0  0  0  0  0  0  0  0  0
    6.0490   -1.5800    0.0000 H   0  0  0  0  0  0  0  0  0  0  0  0
    9.2047    0.8846    0.0000 H   0  0  0  0  0  0  0  0  0  0  0  0
    4.6000    0.9075    0.0000 H   0  0  0  0  0  0  0  0  0  0  0  0
    8.9969   -2.2354    0.0000 H   0  0  0  0  0  0  0  0  0  0  0  0
   10.3998    0.1946    0.0000 H   0  0  0  0  0  0  0  0  0  0  0  0
   10.3998   -3.0454    0.0000 H   0  0  0  0  0  0  0  0  0  0  0  0
   11.8028   -0.6154    0.0000 H   0  0  0  0  0  0  0  0  0  0  0  0
    5.5200    2.4254    0.0000 H   0  0  0  0  0  0  0  0  0  0  0  0
   12.6688   -2.1154    0.0000 H   0  0  0  0  0  0  0  0  0  0  0  0
    2.0000   -0.2683    0.0000 H   0  0  0  0  0  0  0  0  0  0  0  0
  1  3  1  0  0  0  0
  1  7  1  0  0  0  0
  1  8  2  0  0  0  0
  1  9  2  0  0  0  0
  2 11  1  0  0  0  0
  2 12  1  0  0  0  0
  3 18  1  0  0  0  0
  4 14  1  0  0  0  0
  4 32  1  0  0  0  0
  5 13  2  0  0  0  0
  6 24  1  0  0  0  0
  6 33  1  0  0  0  0
  7 34  1  0  0  0  0
 10 11  1  0  0  0  0
 10 13  1  0  0  0  0
 10 14  2  0  0  0  0
 11 15  2  0  0  0  0
 12 16  1  0  0  0  0
 12 17  2  0  0  0  0
 13 17  1  0  0  0  0
 14 19  1  0  0  0  0
 15 18  1  0  0  0  0
 15 25  1  0  0  0  0
 16 20  2  0  0  0  0
 16 21  1  0  0  0  0
 17 26  1  0  0  0  0
 18 19  2  0  0  0  0
 19 27  1  0  0  0  0
 20 22  1  0  0  0  0
 20 28  1  0  0  0  0
 21 23  2  0  0  0  0
 21 29  1  0  0  0  0
 22 24  2  0  0  0  0
 22 30  1  0  0  0  0
 23 24  1  0  0  0  0
 23 31  1  0  0  0  0
M  END
>  <PUBCHEM_COMPOUND_CID>
14016776

>  <PUBCHEM_COMPOUND_CANONICALIZED>
1

>  <PUBCHEM_CACTVS_COMPLEXITY>
614

>  <PUBCHEM_CACTVS_HBOND_ACCEPTOR>
8

>  <PUBCHEM_CACTVS_HBOND_DONOR>
3

>  <PUBCHEM_CACTVS_ROTATABLE_BOND>
3

>  <PUBCHEM_CACTVS_SUBSKEYS>
AAADccBwPABAAAAAAAAAAAAAAAAAAAAAAAAwYIAAAAAAAACBQAAAGgAACAAADASAmAAwBoAABoCIAqBSADACCAAkIAAIiAEGCMgMJzaGNRqCeWCl4BUIuQeI7KzOIAAACAAIAABAAAAQABAAAAAAAAAAAA==

>  <PUBCHEM_IUPAC_OPENEYE_NAME>
[5-hydroxy-2-(4-hydroxyphenyl)-4-oxo-chromen-7-yl] hydrogen sulfate

>  <PUBCHEM_IUPAC_CAS_NAME>
sulfuric acid [5-hydroxy-2-(4-hydroxyphenyl)-4-oxo-1-benzopyran-7-yl] ester

>  <PUBCHEM_IUPAC_NAME>
[5-hydroxy-2-(4-hydroxyphenyl)-4-oxochromen-7-yl] hydrogen sulfate

>  <PUBCHEM_IUPAC_SYSTEMATIC_NAME>
[2-(4-hydroxyphenyl)-5-oxidanyl-4-oxidanylidene-chromen-7-yl] hydrogen sulfate

>  <PUBCHEM_IUPAC_TRADITIONAL_NAME>
sulfuric acid [5-hydroxy-2-(4-hydroxyphenyl)-4-keto-chromen-7-yl] ester

>  <PUBCHEM_IUPAC_INCHI>
InChI=1S/C15H10O8S/c16-9-3-1-8(2-4-9)13-7-12(18)15-11(17)5-10(6-14(15)22-13)23-24(19,20)21/h1-7,16-17H,(H,19,20,21)

>  <PUBCHEM_IUPAC_INCHIKEY>
UQUHXFINOFUDCC-UHFFFAOYSA-N

>  <PUBCHEM_XLOGP3>
1.1

>  <PUBCHEM_EXACT_MASS>
350.01

>  <PUBCHEM_MOLECULAR_FORMULA>
C15H10O8S

>  <PUBCHEM_MOLECULAR_WEIGHT>
350.297

>  <PUBCHEM_OPENEYE_CAN_SMILES>
C1=CC(=CC=C1C2=CC(=O)C3=C(C=C(C=C3O2)OS(=O)(=O)O)O)O

>  <PUBCHEM_OPENEYE_ISO_SMILES>
C1=CC(=CC=C1C2=CC(=O)C3=C(C=C(C=C3O2)OS(=O)(=O)O)O)O

>  <PUBCHEM_CACTVS_TPSA>
139

>  <PUBCHEM_MONOISOTOPIC_WEIGHT>
350.01

>  <PUBCHEM_TOTAL_CHARGE>
0

>  <PUBCHEM_HEAVY_ATOM_COUNT>
24

>  <PUBCHEM_ATOM_DEF_STEREO_COUNT>
0

>  <PUBCHEM_ATOM_UDEF_STEREO_COUNT>
0

>  <PUBCHEM_BOND_DEF_STEREO_COUNT>
0

>  <PUBCHEM_BOND_UDEF_STEREO_COUNT>
0

>  <PUBCHEM_ISOTOPIC_ATOM_COUNT>
0

>  <PUBCHEM_COMPONENT_COUNT>
1

>  <PUBCHEM_CACTVS_TAUTO_COUNT>
24

>  <PUBCHEM_COORDINATE_TYPE>
1
5
255

>  <PUBCHEM_BONDANNOTATIONS>
10  11  8
10  13  8
10  14  8
11  15  8
12  17  8
13  17  8
14  19  8
15  18  8
16  20  8
16  21  8
18  19  8
2  11  8
2  12  8
20  22  8
21  23  8
22  24  8
23  24  8

$$$$
