14035445
 OpenBabel06101807152D

 67 71  0  0  1  0  0  0  0  0999 V2000
    9.1654   -0.3792    0.0000 O   0  0  0  0  0  0  0  0  0  0  0  0
    8.7497   -1.2190    0.0000 O   0  0  0  0  0  0  0  0  0  0  0  0
   10.0830    2.1763    0.0000 O   0  0  0  0  0  0  0  0  0  0  0  0
    6.9970   -0.7321    0.0000 O   0  0  0  0  0  0  0  0  0  0  0  0
    6.3941    1.1749    0.0000 O   0  0  0  0  0  0  0  0  0  0  0  0
   11.8314    2.1417    0.0000 O   0  0  0  0  0  0  0  0  0  0  0  0
    9.9092   -1.8798    0.0000 O   0  0  0  0  0  0  0  0  0  0  0  0
    7.7442    2.6505    0.0000 O   0  0  0  0  0  0  0  0  0  0  0  0
   13.5635   -0.8583    0.0000 O   0  0  0  0  0  0  0  0  0  0  0  0
   13.5635    1.1417    0.0000 O   0  0  0  0  0  0  0  0  0  0  0  0
    8.9342   -2.8399    0.0000 O   0  0  0  0  0  0  0  0  0  0  0  0
   13.0241   -1.9112    0.0000 O   0  0  0  0  0  0  0  0  0  0  0  0
   12.8264   -3.8434    0.0000 O   0  0  0  0  0  0  0  0  0  0  0  0
   11.0641   -4.6601    0.0000 O   0  0  0  0  0  0  0  0  0  0  0  0
    6.7678    2.8662    0.0000 O   0  0  0  0  0  0  0  0  0  0  0  0
    2.7897    1.0843    0.0000 O   0  0  0  0  0  0  0  0  0  0  0  0
    3.5370    4.4668    0.0000 O   0  0  0  0  0  0  0  0  0  0  0  0
    2.1869    2.9913    0.0000 O   0  0  0  0  0  0  0  0  0  0  0  0
    9.1654    0.6625    0.0000 C   0  0  3  0  0  0  0  0  0  0  0  0
    8.6485   -0.2100    0.0000 C   0  0  3  0  0  0  0  0  0  0  0  0
   10.0714    1.1763    0.0000 C   0  0  3  0  0  0  0  0  0  0  0  0
    7.6720    0.0057    0.0000 C   0  0  3  0  0  0  0  0  0  0  0  0
   10.9654    0.6417    0.0000 C   0  0  0  0  0  0  0  0  0  0  0  0
   10.9654   -0.3583    0.0000 C   0  0  0  0  0  0  0  0  0  0  0  0
    7.3706    0.9592    0.0000 C   0  0  3  0  0  0  0  0  0  0  0  0
   11.8314   -0.8583    0.0000 C   0  0  0  0  0  0  0  0  0  0  0  0
   10.0714   -0.8930    0.0000 C   0  0  0  0  0  0  0  0  0  0  0  0
   11.8314    1.1417    0.0000 C   0  0  0  0  0  0  0  0  0  0  0  0
   11.3435   -1.7474    0.0000 C   0  0  0  0  0  0  0  0  0  0  0  0
    8.0456    1.6970    0.0000 C   0  0  0  0  0  0  0  0  0  0  0  0
   12.6974   -0.3583    0.0000 C   0  0  0  0  0  0  0  0  0  0  0  0
   10.4234   -2.1737    0.0000 C   0  0  0  0  0  0  0  0  0  0  0  0
   12.6974    0.6417    0.0000 C   0  0  0  0  0  0  0  0  0  0  0  0
    9.4297   -1.9713    0.0000 C   0  0  0  0  0  0  0  0  0  0  0  0
   12.1092   -2.3148    0.0000 C   0  0  0  0  0  0  0  0  0  0  0  0
   10.3615   -3.1247    0.0000 C   0  0  0  0  0  0  0  0  0  0  0  0
   12.0122   -3.2629    0.0000 C   0  0  0  0  0  0  0  0  0  0  0  0
   11.1475   -3.6636    0.0000 C   0  0  0  0  0  0  0  0  0  0  0  0
    6.0927    2.1284    0.0000 C   0  0  0  0  0  0  0  0  0  0  0  0
    5.1162    2.3441    0.0000 C   0  0  0  0  0  0  0  0  0  0  0  0
    4.8148    3.2976    0.0000 C   0  0  0  0  0  0  0  0  0  0  0  0
    4.4412    1.6064    0.0000 C   0  0  0  0  0  0  0  0  0  0  0  0
    3.4648    1.8221    0.0000 C   0  0  0  0  0  0  0  0  0  0  0  0
    3.8384    3.5133    0.0000 C   0  0  0  0  0  0  0  0  0  0  0  0
    3.1633    2.7756    0.0000 C   0  0  0  0  0  0  0  0  0  0  0  0
    8.7312    1.1050    0.0000 H   0  0  0  0  0  0  0  0  0  0  0  0
    8.1851   -0.6219    0.0000 H   0  0  0  0  0  0  0  0  0  0  0  0
   10.6125    1.4790    0.0000 H   0  0  0  0  0  0  0  0  0  0  0  0
    7.0666    0.1395    0.0000 H   0  0  0  0  0  0  0  0  0  0  0  0
    7.1837    1.5504    0.0000 H   0  0  0  0  0  0  0  0  0  0  0  0
    8.4234    1.2054    0.0000 H   0  0  0  0  0  0  0  0  0  0  0  0
    8.5954    1.9837    0.0000 H   0  0  0  0  0  0  0  0  0  0  0  0
    9.5497    2.4924    0.0000 H   0  0  0  0  0  0  0  0  0  0  0  0
    6.3916   -0.5983    0.0000 H   0  0  0  0  0  0  0  0  0  0  0  0
    9.8038   -3.3958    0.0000 H   0  0  0  0  0  0  0  0  0  0  0  0
   12.3683    2.4517    0.0000 H   0  0  0  0  0  0  0  0  0  0  0  0
    8.1627    3.1079    0.0000 H   0  0  0  0  0  0  0  0  0  0  0  0
   14.1004   -0.5483    0.0000 H   0  0  0  0  0  0  0  0  0  0  0  0
   13.5635    1.7617    0.0000 H   0  0  0  0  0  0  0  0  0  0  0  0
   13.5244   -2.2773    0.0000 H   0  0  0  0  0  0  0  0  0  0  0  0
   12.7671   -4.4606    0.0000 H   0  0  0  0  0  0  0  0  0  0  0  0
   10.5032   -4.9242    0.0000 H   0  0  0  0  0  0  0  0  0  0  0  0
    5.2334    3.7550    0.0000 H   0  0  0  0  0  0  0  0  0  0  0  0
    4.6281    1.0152    0.0000 H   0  0  0  0  0  0  0  0  0  0  0  0
    2.1843    1.2180    0.0000 H   0  0  0  0  0  0  0  0  0  0  0  0
    3.9555    4.9242    0.0000 H   0  0  0  0  0  0  0  0  0  0  0  0
    2.0000    3.5824    0.0000 H   0  0  0  0  0  0  0  0  0  0  0  0
  1 19  1  0  0  0  0
  1 27  1  0  0  0  0
  2 20  1  0  0  0  0
  2 34  1  0  0  0  0
  3 21  1  0  0  0  0
  3 53  1  0  0  0  0
  4 22  1  0  0  0  0
  4 54  1  0  0  0  0
  5 25  1  0  0  0  0
  5 39  1  0  0  0  0
  6 28  1  0  0  0  0
  6 56  1  0  0  0  0
  7 27  2  0  0  0  0
  8 30  1  0  0  0  0
  8 57  1  0  0  0  0
  9 31  1  0  0  0  0
  9 58  1  0  0  0  0
 10 33  1  0  0  0  0
 10 59  1  0  0  0  0
 11 34  2  0  0  0  0
 12 35  1  0  0  0  0
 12 60  1  0  0  0  0
 13 37  1  0  0  0  0
 13 61  1  0  0  0  0
 14 38  1  0  0  0  0
 14 62  1  0  0  0  0
 15 39  2  0  0  0  0
 16 43  1  0  0  0  0
 16 65  1  0  0  0  0
 17 44  1  0  0  0  0
 17 66  1  0  0  0  0
 18 45  1  0  0  0  0
 18 67  1  0  0  0  0
 19 20  1  0  0  0  0
 19 21  1  0  0  0  0
 19 46  1  0  0  0  0
 20 22  1  0  0  0  0
 20 47  1  0  0  0  0
 21 23  1  0  0  0  0
 21 48  1  0  0  0  0
 22 25  1  0  0  0  0
 22 49  1  0  0  0  0
 23 24  1  0  0  0  0
 23 28  2  0  0  0  0
 24 26  2  0  0  0  0
 24 27  1  0  0  0  0
 25 30  1  0  0  0  0
 25 50  1  0  0  0  0
 26 29  1  0  0  0  0
 26 31  1  0  0  0  0
 28 33  1  0  0  0  0
 29 32  1  0  0  0  0
 29 35  2  0  0  0  0
 30 51  1  0  0  0  0
 30 52  1  0  0  0  0
 31 33  2  0  0  0  0
 32 34  1  0  0  0  0
 32 36  2  0  0  0  0
 35 37  1  0  0  0  0
 36 38  1  0  0  0  0
 36 55  1  0  0  0  0
 37 38  2  0  0  0  0
 39 40  1  0  0  0  0
 40 41  2  0  0  0  0
 40 42  1  0  0  0  0
 41 44  1  0  0  0  0
 41 63  1  0  0  0  0
 42 43  2  0  0  0  0
 42 64  1  0  0  0  0
 43 45  1  0  0  0  0
 44 45  2  0  0  0  0
M  END
>  <PUBCHEM_COMPOUND_CID>
14035445

>  <PUBCHEM_COMPOUND_CANONICALIZED>
1

>  <PUBCHEM_CACTVS_COMPLEXITY>
1110

>  <PUBCHEM_CACTVS_HBOND_ACCEPTOR>
18

>  <PUBCHEM_CACTVS_HBOND_DONOR>
12

>  <PUBCHEM_CACTVS_ROTATABLE_BOND>
6

>  <PUBCHEM_CACTVS_SUBSKEYS>
AAADceB4PgAAAAAAAAAAAAAAAAAAAAAAAAA0YMEAAAAAAACRUAAAGgAACAAADBSgmAIwDoAABgCIAiDSCAACAAAkIAAAiAEGiMgJNzKCNRqCcQElwBULuYfK7PzOoAADCAAYQABAAAYQADCAAAAAAAAAAA==

>  <PUBCHEM_IUPAC_INCHI>
InChI=1S/C27H22O18/c28-4-10(43-25(40)5-1-7(29)15(32)8(30)2-5)17(34)23-24-21(38)14-13(27(42)45-24)12(19(36)22(39)20(14)37)11-6(26(41)44-23)3-9(31)16(33)18(11)35/h1-3,10,17,21,23-24,28-39H,4H2

>  <PUBCHEM_IUPAC_INCHIKEY>
TXPZOUVETLGUPE-UHFFFAOYSA-N

>  <PUBCHEM_XLOGP3_AA>
-0.8

>  <PUBCHEM_EXACT_MASS>
634.081

>  <PUBCHEM_MOLECULAR_FORMULA>
C27H22O18

>  <PUBCHEM_MOLECULAR_WEIGHT>
634.455

>  <PUBCHEM_OPENEYE_CAN_SMILES>
C1=C(C=C(C(=C1O)O)O)C(=O)OC(CO)C(C2C3C(C4=C(C(=C(C(=C4C(=O)O3)C5=C(C(=C(C=C5C(=O)O2)O)O)O)O)O)O)O)O

>  <PUBCHEM_OPENEYE_ISO_SMILES>
C1=C(C=C(C(=C1O)O)O)C(=O)OC(CO)C(C2C3C(C4=C(C(=C(C(=C4C(=O)O3)C5=C(C(=C(C=C5C(=O)O2)O)O)O)O)O)O)O)O

>  <PUBCHEM_CACTVS_TPSA>
322

>  <PUBCHEM_MONOISOTOPIC_WEIGHT>
634.081

>  <PUBCHEM_TOTAL_CHARGE>
0

>  <PUBCHEM_HEAVY_ATOM_COUNT>
45

>  <PUBCHEM_ATOM_DEF_STEREO_COUNT>
0

>  <PUBCHEM_ATOM_UDEF_STEREO_COUNT>
5

>  <PUBCHEM_BOND_DEF_STEREO_COUNT>
0

>  <PUBCHEM_BOND_UDEF_STEREO_COUNT>
0

>  <PUBCHEM_ISOTOPIC_ATOM_COUNT>
0

>  <PUBCHEM_COMPONENT_COUNT>
1

>  <PUBCHEM_CACTVS_TAUTO_COUNT>
998

>  <PUBCHEM_COORDINATE_TYPE>
1
5
255

>  <PUBCHEM_BONDANNOTATIONS>
19  1  3
20  2  3
23  24  8
23  28  8
24  26  8
25  30  3
26  31  8
28  33  8
29  32  8
29  35  8
21  3  3
31  33  8
32  36  8
35  37  8
36  38  8
37  38  8
22  4  3
40  41  8
40  42  8
41  44  8
42  43  8
43  45  8
44  45  8

$$$$
