14057248
 OpenBabel06101807152D

 50 54  0  0  1  0  0  0  0  0999 V2000
    5.5162    1.0406    0.0000 O   0  0  0  0  0  0  0  0  0  0  0  0
    4.7902   -2.3392    0.0000 O   0  0  0  0  0  0  0  0  0  0  0  0
    8.4608   -0.0601    0.0000 O   0  0  0  0  0  0  0  0  0  0  0  0
    7.9012   -1.9205    0.0000 O   0  0  0  0  0  0  0  0  0  0  0  0
    7.9380    1.5971    0.0000 O   0  0  0  0  0  0  0  0  0  0  0  0
    4.4394    2.2690    0.0000 O   0  0  0  0  0  0  0  0  0  0  0  0
    6.1653    2.1234    0.0000 O   0  0  0  0  0  0  0  0  0  0  0  0
    4.4481    0.1523    0.0000 C   0  0  3  0  0  0  0  0  0  0  0  0
    5.6621   -0.6933    0.0000 C   0  0  3  0  0  0  0  0  0  0  0  0
    4.7500   -0.7149    0.0000 C   0  0  3  0  0  0  0  0  0  0  0  0
    5.9251    0.1807    0.0000 C   0  0  3  0  0  0  0  0  0  0  0  0
    5.1763    0.7015    0.0000 C   0  0  3  0  0  0  0  0  0  0  0  0
    6.8424    0.3967    0.0000 C   0  0  3  0  0  0  0  0  0  0  0  0
    3.7521   -0.6801    0.0000 C   0  0  0  0  0  0  0  0  0  0  0  0
    4.2598   -1.4914    0.0000 C   0  0  3  0  0  0  0  0  0  0  0  0
    3.5812    0.4569    0.0000 C   0  0  0  0  0  0  0  0  0  0  0  0
    2.6992   -0.9427    0.0000 C   0  0  3  0  0  0  0  0  0  0  0  0
    6.2999   -1.4079    0.0000 C   0  0  0  0  0  0  0  0  0  0  0  0
    7.4875   -0.2895    0.0000 C   0  0  3  0  0  0  0  0  0  0  0  0
    3.3475   -1.5927    0.0000 C   0  0  0  0  0  0  0  0  0  0  0  0
    7.2160   -1.1921    0.0000 C   0  0  3  0  0  0  0  0  0  0  0  0
    2.8036   -0.0301    0.0000 C   0  0  0  0  0  0  0  0  0  0  0  0
    7.1072    1.0406    0.0000 C   0  0  0  0  0  0  0  0  0  0  0  0
    5.2603    1.6980    0.0000 C   0  0  0  0  0  0  0  0  0  0  0  0
    7.8258    0.5779    0.0000 C   0  0  0  0  0  0  0  0  0  0  0  0
    2.0000    0.5650    0.0000 C   0  0  0  0  0  0  0  0  0  0  0  0
    5.0558   -1.2543    0.0000 H   0  0  0  0  0  0  0  0  0  0  0  0
    6.0411    0.7897    0.0000 H   0  0  0  0  0  0  0  0  0  0  0  0
    4.6335    1.0011    0.0000 H   0  0  0  0  0  0  0  0  0  0  0  0
    3.7092   -1.2986    0.0000 H   0  0  0  0  0  0  0  0  0  0  0  0
    4.3272   -0.9117    0.0000 H   0  0  0  0  0  0  0  0  0  0  0  0
    3.9898   -2.0496    0.0000 H   0  0  0  0  0  0  0  0  0  0  0  0
    3.9118    0.9815    0.0000 H   0  0  0  0  0  0  0  0  0  0  0  0
    3.1434    0.8960    0.0000 H   0  0  0  0  0  0  0  0  0  0  0  0
    2.1137   -1.1466    0.0000 H   0  0  0  0  0  0  0  0  0  0  0  0
    5.7755   -1.7388    0.0000 H   0  0  0  0  0  0  0  0  0  0  0  0
    6.5396   -1.9796    0.0000 H   0  0  0  0  0  0  0  0  0  0  0  0
    7.9124   -0.7410    0.0000 H   0  0  0  0  0  0  0  0  0  0  0  0
    2.8220   -1.9218    0.0000 H   0  0  0  0  0  0  0  0  0  0  0  0
    3.5514   -2.1782    0.0000 H   0  0  0  0  0  0  0  0  0  0  0  0
    7.0374   -1.7858    0.0000 H   0  0  0  0  0  0  0  0  0  0  0  0
    7.9382   -0.0319    0.0000 H   0  0  0  0  0  0  0  0  0  0  0  0
    8.4356    0.6902    0.0000 H   0  0  0  0  0  0  0  0  0  0  0  0
    7.7135    1.1876    0.0000 H   0  0  0  0  0  0  0  0  0  0  0  0
    4.4995   -2.8868    0.0000 H   0  0  0  0  0  0  0  0  0  0  0  0
    2.0704    1.1810    0.0000 H   0  0  0  0  0  0  0  0  0  0  0  0
    1.4313    0.3181    0.0000 H   0  0  0  0  0  0  0  0  0  0  0  0
    8.8858   -0.5115    0.0000 H   0  0  0  0  0  0  0  0  0  0  0  0
    7.7226   -2.5142    0.0000 H   0  0  0  0  0  0  0  0  0  0  0  0
    4.4915    2.8868    0.0000 H   0  0  0  0  0  0  0  0  0  0  0  0
  1  9  1  0  0  0  0
  1 23  1  0  0  0  0
  2 15  1  0  0  0  0
  2 45  1  0  0  0  0
  3 19  1  0  0  0  0
  3 48  1  0  0  0  0
  4 21  1  0  0  0  0
  4 49  1  0  0  0  0
  5 23  2  0  0  0  0
  6 24  1  0  0  0  0
  6 50  1  0  0  0  0
  7 24  2  0  0  0  0
  8 10  1  0  0  0  0
  8 12  1  0  0  0  0
  8 14  1  0  0  0  0
  8 16  1  0  0  0  0
  9 10  1  0  0  0  0
  9 11  1  0  0  0  0
  9 18  1  0  0  0  0
 10 15  1  0  0  0  0
 10 27  1  0  0  0  0
 11 12  1  0  0  0  0
 11 13  1  0  0  0  0
 11 28  1  0  0  0  0
 12 24  1  0  0  0  0
 12 29  1  0  0  0  0
 13 19  1  0  0  0  0
 13 23  1  0  0  0  0
 13 25  1  0  0  0  0
 14 17  1  0  0  0  0
 14 30  1  0  0  0  0
 14 31  1  0  0  0  0
 15 20  1  0  0  0  0
 15 32  1  0  0  0  0
 16 22  1  0  0  0  0
 16 33  1  0  0  0  0
 16 34  1  0  0  0  0
 17 20  1  0  0  0  0
 17 22  1  0  0  0  0
 17 35  1  0  0  0  0
 18 21  1  0  0  0  0
 18 36  1  0  0  0  0
 18 37  1  0  0  0  0
 19 21  1  0  0  0  0
 19 38  1  0  0  0  0
 20 39  1  0  0  0  0
 20 40  1  0  0  0  0
 21 41  1  0  0  0  0
 22 26  2  0  0  0  0
 25 42  1  0  0  0  0
 25 43  1  0  0  0  0
 25 44  1  0  0  0  0
 26 46  1  0  0  0  0
 26 47  1  0  0  0  0
M  END
>  <PUBCHEM_COMPOUND_CID>
14057248

>  <PUBCHEM_COMPOUND_CANONICALIZED>
1

>  <PUBCHEM_CACTVS_COMPLEXITY>
748

>  <PUBCHEM_CACTVS_HBOND_ACCEPTOR>
7

>  <PUBCHEM_CACTVS_HBOND_DONOR>
4

>  <PUBCHEM_CACTVS_ROTATABLE_BOND>
1

>  <PUBCHEM_CACTVS_SUBSKEYS>
AAADceB4OAAAAAAAAAAAAAAAAAAAAaMEAAAwYAAABogSAGDAAAAAGgAACAAAD1SggAICCAAABgCIAgDSCAAAAAAgAAAAAAEAAAgBEBYAAQACQAAFoAABAAHK7vzPgAAAAAAAAADCAAYQADCAAYAADAAAAA==

>  <PUBCHEM_IUPAC_INCHI>
InChI=1S/C19H24O7/c1-7-4-18-5-8(7)3-9(20)12(18)19-6-10(21)14(22)17(2,16(25)26-19)13(19)11(18)15(23)24/h8-14,20-22H,1,3-6H2,2H3,(H,23,24)

>  <PUBCHEM_IUPAC_INCHIKEY>
FKMJLJSSQHSAEF-UHFFFAOYSA-N

>  <PUBCHEM_XLOGP3_AA>
-0.5

>  <PUBCHEM_EXACT_MASS>
364.152

>  <PUBCHEM_MOLECULAR_FORMULA>
C19H24O7

>  <PUBCHEM_MOLECULAR_WEIGHT>
364.394

>  <PUBCHEM_OPENEYE_CAN_SMILES>
CC12C3C(C45CC(CC(C4C3(CC(C1O)O)OC2=O)O)C(=C)C5)C(=O)O

>  <PUBCHEM_OPENEYE_ISO_SMILES>
CC12C3C(C45CC(CC(C4C3(CC(C1O)O)OC2=O)O)C(=C)C5)C(=O)O

>  <PUBCHEM_CACTVS_TPSA>
124

>  <PUBCHEM_MONOISOTOPIC_WEIGHT>
364.152

>  <PUBCHEM_TOTAL_CHARGE>
0

>  <PUBCHEM_HEAVY_ATOM_COUNT>
26

>  <PUBCHEM_ATOM_DEF_STEREO_COUNT>
0

>  <PUBCHEM_ATOM_UDEF_STEREO_COUNT>
10

>  <PUBCHEM_BOND_DEF_STEREO_COUNT>
0

>  <PUBCHEM_BOND_UDEF_STEREO_COUNT>
0

>  <PUBCHEM_ISOTOPIC_ATOM_COUNT>
0

>  <PUBCHEM_COMPONENT_COUNT>
1

>  <PUBCHEM_CACTVS_TAUTO_COUNT>
1

>  <PUBCHEM_COORDINATE_TYPE>
1
5
255

>  <PUBCHEM_BONDANNOTATIONS>
10  15  3
11  12  3
12  24  3
13  25  3
17  14  3
15  2  3
19  3  3
21  4  3
8  14  3
9  18  3

$$$$
