14079045
 OpenBabel06101807152D

 54 56  0  0  1  0  0  0  0  0999 V2000
    7.9497   -0.3927    0.0000 O   0  0  0  0  0  0  0  0  0  0  0  0
    4.4381    0.7005    0.0000 O   0  0  0  0  0  0  0  0  0  0  0  0
    6.2177    0.6073    0.0000 O   0  0  0  0  0  0  0  0  0  0  0  0
    4.4769    3.2879    0.0000 O   0  0  0  0  0  0  0  0  0  0  0  0
    6.2177   -2.3927    0.0000 O   0  0  0  0  0  0  0  0  0  0  0  0
    5.9903    2.7709    0.0000 O   0  0  0  0  0  0  0  0  0  0  0  0
    9.6818   -0.3927    0.0000 O   0  0  0  0  0  0  0  0  0  0  0  0
    7.9497   -3.3927    0.0000 O   0  0  0  0  0  0  0  0  0  0  0  0
    9.6818   -2.3927    0.0000 O   0  0  0  0  0  0  0  0  0  0  0  0
    2.5369    2.3097    0.0000 O   0  0  0  0  0  0  0  0  0  0  0  0
    4.2690    2.3097    0.0000 C   0  0  1  0  0  0  0  0  0  0  0  0
    7.0837   -0.8927    0.0000 C   0  0  1  0  0  0  0  0  0  0  0  0
    7.0837   -1.8927    0.0000 C   0  0  2  0  0  0  0  0  0  0  0  0
    5.2471    2.1018    0.0000 C   0  0  2  0  0  0  0  0  0  0  0  0
    7.9497   -2.3927    0.0000 C   0  0  1  0  0  0  0  0  0  0  0  0
    5.3517    1.1073    0.0000 C   0  0  1  0  0  0  0  0  0  0  0  0
    8.8158   -1.8927    0.0000 C   0  0  2  0  0  0  0  0  0  0  0  0
    3.7690    1.4437    0.0000 C   0  0  0  0  0  0  0  0  0  0  0  0
    6.2177   -0.3927    0.0000 C   0  0  0  0  0  0  0  0  0  0  0  0
    8.8158   -0.8927    0.0000 C   0  0  1  0  0  0  0  0  0  0  0  0
    3.4030    2.8097    0.0000 C   0  0  0  0  0  0  0  0  0  0  0  0
    9.6818    0.6073    0.0000 C   0  0  0  0  0  0  0  0  0  0  0  0
   10.5478    1.1073    0.0000 C   0  0  0  0  0  0  0  0  0  0  0  0
   11.4138    0.6073    0.0000 C   0  0  0  0  0  0  0  0  0  0  0  0
   10.5478    2.1073    0.0000 C   0  0  0  0  0  0  0  0  0  0  0  0
   12.2799    1.1073    0.0000 C   0  0  0  0  0  0  0  0  0  0  0  0
   11.4138    2.6073    0.0000 C   0  0  0  0  0  0  0  0  0  0  0  0
   12.2799    2.1073    0.0000 C   0  0  0  0  0  0  0  0  0  0  0  0
    7.0837   -0.2727    0.0000 H   0  0  0  0  0  0  0  0  0  0  0  0
    6.5468   -1.5827    0.0000 H   0  0  0  0  0  0  0  0  0  0  0  0
    5.0867    2.7007    0.0000 H   0  0  0  0  0  0  0  0  0  0  0  0
    7.4128   -2.7027    0.0000 H   0  0  0  0  0  0  0  0  0  0  0  0
    5.3192    0.4881    0.0000 H   0  0  0  0  0  0  0  0  0  0  0  0
    9.3527   -1.5827    0.0000 H   0  0  0  0  0  0  0  0  0  0  0  0
    3.2674    1.8081    0.0000 H   0  0  0  0  0  0  0  0  0  0  0  0
    3.3541    0.9829    0.0000 H   0  0  0  0  0  0  0  0  0  0  0  0
    5.6071   -0.2851    0.0000 H   0  0  0  0  0  0  0  0  0  0  0  0
    6.0056   -0.9753    0.0000 H   0  0  0  0  0  0  0  0  0  0  0  0
    8.8158   -0.2727    0.0000 H   0  0  0  0  0  0  0  0  0  0  0  0
    3.8015    3.2847    0.0000 H   0  0  0  0  0  0  0  0  0  0  0  0
    3.0044    3.2847    0.0000 H   0  0  0  0  0  0  0  0  0  0  0  0
    4.0162    3.7027    0.0000 H   0  0  0  0  0  0  0  0  0  0  0  0
    5.6808   -2.0827    0.0000 H   0  0  0  0  0  0  0  0  0  0  0  0
    6.5799    2.5793    0.0000 H   0  0  0  0  0  0  0  0  0  0  0  0
    7.4128   -3.7027    0.0000 H   0  0  0  0  0  0  0  0  0  0  0  0
   10.2187   -2.0827    0.0000 H   0  0  0  0  0  0  0  0  0  0  0  0
    9.4697    1.1899    0.0000 H   0  0  0  0  0  0  0  0  0  0  0  0
    9.0712    0.4996    0.0000 H   0  0  0  0  0  0  0  0  0  0  0  0
    2.0000    2.6197    0.0000 H   0  0  0  0  0  0  0  0  0  0  0  0
   11.4138   -0.0127    0.0000 H   0  0  0  0  0  0  0  0  0  0  0  0
   10.0109    2.4173    0.0000 H   0  0  0  0  0  0  0  0  0  0  0  0
   12.8168    0.7973    0.0000 H   0  0  0  0  0  0  0  0  0  0  0  0
   11.4138    3.2273    0.0000 H   0  0  0  0  0  0  0  0  0  0  0  0
   12.8168    2.4173    0.0000 H   0  0  0  0  0  0  0  0  0  0  0  0
  1 12  1  0  0  0  0
  1 20  1  0  0  0  0
  2 16  1  0  0  0  0
  2 18  1  0  0  0  0
  3 19  1  0  0  0  0
  4 42  1  0  0  0  0
  5 43  1  0  0  0  0
  6 44  1  0  0  0  0
  7 22  1  0  0  0  0
  8 45  1  0  0  0  0
  9 46  1  0  0  0  0
 10 21  1  0  0  0  0
 10 49  1  0  0  0  0
 11  4  1  0  0  0  0
 11 14  1  6  0  0  0
 11 18  1  0  0  0  0
 11 21  1  0  0  0  0
 12 13  1  6  0  0  0
 12 19  1  0  0  0  0
 12 29  1  0  0  0  0
 13  5  1  0  0  0  0
 13 15  1  1  0  0  0
 13 30  1  0  0  0  0
 14  6  1  0  0  0  0
 14 16  1  6  0  0  0
 14 31  1  0  0  0  0
 15  8  1  0  0  0  0
 15 17  1  6  0  0  0
 15 32  1  0  0  0  0
 16  3  1  0  0  0  0
 16 33  1  1  0  0  0
 17  9  1  0  0  0  0
 17 20  1  6  0  0  0
 17 34  1  0  0  0  0
 18 35  1  0  0  0  0
 18 36  1  0  0  0  0
 19 37  1  0  0  0  0
 19 38  1  0  0  0  0
 20  7  1  0  0  0  0
 20 39  1  6  0  0  0
 21 40  1  0  0  0  0
 21 41  1  0  0  0  0
 22 23  1  0  0  0  0
 22 47  1  0  0  0  0
 22 48  1  0  0  0  0
 23 24  2  0  0  0  0
 23 25  1  0  0  0  0
 24 26  1  0  0  0  0
 24 50  1  0  0  0  0
 25 27  2  0  0  0  0
 25 51  1  0  0  0  0
 26 28  2  0  0  0  0
 26 52  1  0  0  0  0
 27 28  1  0  0  0  0
 27 53  1  0  0  0  0
 28 54  1  0  0  0  0
M  END
>  <PUBCHEM_COMPOUND_CID>
14079045

>  <PUBCHEM_COMPOUND_CANONICALIZED>
1

>  <PUBCHEM_CACTVS_COMPLEXITY>
487

>  <PUBCHEM_CACTVS_HBOND_ACCEPTOR>
10

>  <PUBCHEM_CACTVS_HBOND_DONOR>
6

>  <PUBCHEM_CACTVS_ROTATABLE_BOND>
7

>  <PUBCHEM_CACTVS_SUBSKEYS>
AAADceB4PAAAAAAAAAAAAAAAAAAAASAAAAA0QAAAAAAAAAABAAAAGgAACAAADFSwmAMwCIAABgCAAiBCAAACAAAgAAAIiAAACIgZNiKAMRiicAAlwAEPqAfA4CwOAAAAAAAAAAAAAAAAAAAAAAAAAAAAAA==

>  <PUBCHEM_IUPAC_OPENEYE_NAME>
(2R,3R,4S,5S,6R)-2-benzyloxy-6-[[(2R,3R,4R)-3,4-dihydroxy-4-(hydroxymethyl)tetrahydrofuran-2-yl]oxymethyl]tetrahydropyran-3,4,5-triol

>  <PUBCHEM_IUPAC_CAS_NAME>
(2R,3S,4S,5R,6R)-2-[[(2R,3R,4R)-3,4-dihydroxy-4-(hydroxymethyl)-2-oxolanyl]oxymethyl]-6-phenylmethoxyoxane-3,4,5-triol

>  <PUBCHEM_IUPAC_NAME>
(2R,3S,4S,5R,6R)-2-[[(2R,3R,4R)-3,4-dihydroxy-4-(hydroxymethyl)oxolan-2-yl]oxymethyl]-6-phenylmethoxyoxane-3,4,5-triol

>  <PUBCHEM_IUPAC_SYSTEMATIC_NAME>
(2R,3S,4S,5R,6R)-2-[[(2R,3R,4R)-4-(hydroxymethyl)-3,4-bis(oxidanyl)oxolan-2-yl]oxymethyl]-6-phenylmethoxy-oxane-3,4,5-triol

>  <PUBCHEM_IUPAC_TRADITIONAL_NAME>
(2R,3R,4S,5S,6R)-2-benzoxy-6-[[(2R,3R,4R)-3,4-dihydroxy-4-methylol-tetrahydrofuran-2-yl]oxymethyl]tetrahydropyran-3,4,5-triol

>  <PUBCHEM_IUPAC_INCHI>
InChI=1S/C18H26O10/c19-8-18(24)9-27-17(15(18)23)26-7-11-12(20)13(21)14(22)16(28-11)25-6-10-4-2-1-3-5-10/h1-5,11-17,19-24H,6-9H2/t11-,12-,13+,14-,15+,16-,17-,18-/m1/s1

>  <PUBCHEM_IUPAC_INCHIKEY>
NJMQSVWMCODQIP-FQXXIRCGSA-N

>  <PUBCHEM_XLOGP3_AA>
-2.3

>  <PUBCHEM_EXACT_MASS>
402.153

>  <PUBCHEM_MOLECULAR_FORMULA>
C18H26O10

>  <PUBCHEM_MOLECULAR_WEIGHT>
402.396

>  <PUBCHEM_OPENEYE_CAN_SMILES>
C1C(C(C(O1)OCC2C(C(C(C(O2)OCC3=CC=CC=C3)O)O)O)O)(CO)O

>  <PUBCHEM_OPENEYE_ISO_SMILES>
C1[C@@]([C@H]([C@@H](O1)OC[C@@H]2[C@H]([C@@H]([C@H]([C@@H](O2)OCC3=CC=CC=C3)O)O)O)O)(CO)O

>  <PUBCHEM_CACTVS_TPSA>
158

>  <PUBCHEM_MONOISOTOPIC_WEIGHT>
402.153

>  <PUBCHEM_TOTAL_CHARGE>
0

>  <PUBCHEM_HEAVY_ATOM_COUNT>
28

>  <PUBCHEM_ATOM_DEF_STEREO_COUNT>
8

>  <PUBCHEM_ATOM_UDEF_STEREO_COUNT>
0

>  <PUBCHEM_BOND_DEF_STEREO_COUNT>
0

>  <PUBCHEM_BOND_UDEF_STEREO_COUNT>
0

>  <PUBCHEM_ISOTOPIC_ATOM_COUNT>
0

>  <PUBCHEM_COMPONENT_COUNT>
1

>  <PUBCHEM_CACTVS_TAUTO_COUNT>
1

>  <PUBCHEM_COORDINATE_TYPE>
1
5
255

>  <PUBCHEM_BONDANNOTATIONS>
12  19  5
23  24  8
23  25  8
24  26  8
25  27  8
26  28  8
27  28  8
16  3  6
11  4  5
13  5  6
14  6  5
20  7  5
15  8  5
17  9  6

$$$$
