14102503
 OpenBabel06101807152D

 32 33  0  0  0  0  0  0  0  0999 V2000
    6.0290    1.1030    0.0000 O   0  0  0  0  0  0  0  0  0  0  0  0
    2.5369    1.1377    0.0000 O   0  0  0  0  0  0  0  0  0  0  0  0
    2.5369   -2.8623    0.0000 O   0  0  0  0  0  0  0  0  0  0  0  0
    7.7991    1.1135    0.0000 O   0  0  0  0  0  0  0  0  0  0  0  0
    4.2690    1.1377    0.0000 C   0  0  0  0  0  0  0  0  0  0  0  0
    4.2690    0.1377    0.0000 C   0  0  0  0  0  0  0  0  0  0  0  0
    5.1350    1.6377    0.0000 C   0  0  0  0  0  0  0  0  0  0  0  0
    5.1350    2.6377    0.0000 C   0  0  0  0  0  0  0  0  0  0  0  0
    3.4030    1.6377    0.0000 C   0  0  0  0  0  0  0  0  0  0  0  0
    3.4030   -0.3623    0.0000 C   0  0  0  0  0  0  0  0  0  0  0  0
    4.2690    3.1377    0.0000 C   0  0  0  0  0  0  0  0  0  0  0  0
    3.4030    2.6377    0.0000 C   0  0  0  0  0  0  0  0  0  0  0  0
    3.4030   -1.3623    0.0000 C   0  0  0  0  0  0  0  0  0  0  0  0
    6.0290    3.1723    0.0000 C   0  0  0  0  0  0  0  0  0  0  0  0
    2.5369   -1.8623    0.0000 C   0  0  0  0  0  0  0  0  0  0  0  0
    6.9350    2.6585    0.0000 C   0  0  0  0  0  0  0  0  0  0  0  0
    4.2690   -1.8623    0.0000 C   0  0  0  0  0  0  0  0  0  0  0  0
    6.9350    1.6168    0.0000 C   0  0  0  0  0  0  0  0  0  0  0  0
    4.4810   -0.4449    0.0000 H   0  0  0  0  0  0  0  0  0  0  0  0
    4.8796    0.2453    0.0000 H   0  0  0  0  0  0  0  0  0  0  0  0
    2.8660   -0.0523    0.0000 H   0  0  0  0  0  0  0  0  0  0  0  0
    4.2690    3.7577    0.0000 H   0  0  0  0  0  0  0  0  0  0  0  0
    2.8660    2.9477    0.0000 H   0  0  0  0  0  0  0  0  0  0  0  0
    6.0218    3.7923    0.0000 H   0  0  0  0  0  0  0  0  0  0  0  0
    2.3249   -1.2797    0.0000 H   0  0  0  0  0  0  0  0  0  0  0  0
    1.9264   -1.9700    0.0000 H   0  0  0  0  0  0  0  0  0  0  0  0
    7.4708    2.9705    0.0000 H   0  0  0  0  0  0  0  0  0  0  0  0
    3.9590   -2.3993    0.0000 H   0  0  0  0  0  0  0  0  0  0  0  0
    4.8059   -2.1723    0.0000 H   0  0  0  0  0  0  0  0  0  0  0  0
    4.5790   -1.3254    0.0000 H   0  0  0  0  0  0  0  0  0  0  0  0
    2.0000    1.4477    0.0000 H   0  0  0  0  0  0  0  0  0  0  0  0
    2.0000   -3.1723    0.0000 H   0  0  0  0  0  0  0  0  0  0  0  0
  1  7  1  0  0  0  0
  1 18  1  0  0  0  0
  2  9  1  0  0  0  0
  2 31  1  0  0  0  0
  3 15  1  0  0  0  0
  3 32  1  0  0  0  0
  4 18  2  0  0  0  0
  5  6  1  0  0  0  0
  5  7  1  0  0  0  0
  5  9  2  0  0  0  0
  6 10  1  0  0  0  0
  6 19  1  0  0  0  0
  6 20  1  0  0  0  0
  7  8  2  0  0  0  0
  8 11  1  0  0  0  0
  8 14  1  0  0  0  0
  9 12  1  0  0  0  0
 10 13  2  0  0  0  0
 10 21  1  0  0  0  0
 11 12  2  0  0  0  0
 11 22  1  0  0  0  0
 12 23  1  0  0  0  0
 13 15  1  0  0  0  0
 13 17  1  0  0  0  0
 14 16  2  0  0  0  0
 14 24  1  0  0  0  0
 15 25  1  0  0  0  0
 15 26  1  0  0  0  0
 16 18  1  0  0  0  0
 16 27  1  0  0  0  0
 17 28  1  0  0  0  0
 17 29  1  0  0  0  0
 17 30  1  0  0  0  0
M  END
>  <PUBCHEM_COMPOUND_CID>
14102503

>  <PUBCHEM_COMPOUND_CANONICALIZED>
1

>  <PUBCHEM_CACTVS_COMPLEXITY>
372

>  <PUBCHEM_CACTVS_HBOND_ACCEPTOR>
4

>  <PUBCHEM_CACTVS_HBOND_DONOR>
2

>  <PUBCHEM_CACTVS_ROTATABLE_BOND>
3

>  <PUBCHEM_CACTVS_SUBSKEYS>
AAADccBwOAAAAAAAAAAAAAAAAAAAAAAAAAAwQAAAAAAAAACBAAAAGgAACAAADASgmAIyDoAABgCIAiDSCAACCAAgIAAIiAAGCMgMNyKGMRqCeiClwBUIuYeA4OwOIAACCAAIAABAAAQQABAAAAAAAAAAAA==

>  <PUBCHEM_IUPAC_OPENEYE_NAME>
7-hydroxy-8-[(E)-4-hydroxy-3-methyl-but-2-enyl]chromen-2-one

>  <PUBCHEM_IUPAC_CAS_NAME>
7-hydroxy-8-[(E)-4-hydroxy-3-methylbut-2-enyl]-1-benzopyran-2-one

>  <PUBCHEM_IUPAC_NAME>
7-hydroxy-8-[(E)-4-hydroxy-3-methylbut-2-enyl]chromen-2-one

>  <PUBCHEM_IUPAC_SYSTEMATIC_NAME>
8-[(E)-3-methyl-4-oxidanyl-but-2-enyl]-7-oxidanyl-chromen-2-one

>  <PUBCHEM_IUPAC_TRADITIONAL_NAME>
7-hydroxy-8-[(E)-4-hydroxy-3-methyl-but-2-enyl]coumarin

>  <PUBCHEM_IUPAC_INCHI>
InChI=1S/C14H14O4/c1-9(8-15)2-5-11-12(16)6-3-10-4-7-13(17)18-14(10)11/h2-4,6-7,15-16H,5,8H2,1H3/b9-2+

>  <PUBCHEM_IUPAC_INCHIKEY>
TXAQUMCUNALGRP-XNWCZRBMSA-N

>  <PUBCHEM_XLOGP3_AA>
2.2

>  <PUBCHEM_EXACT_MASS>
246.089

>  <PUBCHEM_MOLECULAR_FORMULA>
C14H14O4

>  <PUBCHEM_MOLECULAR_WEIGHT>
246.262

>  <PUBCHEM_OPENEYE_CAN_SMILES>
CC(=CCC1=C(C=CC2=C1OC(=O)C=C2)O)CO

>  <PUBCHEM_OPENEYE_ISO_SMILES>
C/C(=C\CC1=C(C=CC2=C1OC(=O)C=C2)O)/CO

>  <PUBCHEM_CACTVS_TPSA>
66.8

>  <PUBCHEM_MONOISOTOPIC_WEIGHT>
246.089

>  <PUBCHEM_TOTAL_CHARGE>
0

>  <PUBCHEM_HEAVY_ATOM_COUNT>
18

>  <PUBCHEM_ATOM_DEF_STEREO_COUNT>
0

>  <PUBCHEM_ATOM_UDEF_STEREO_COUNT>
0

>  <PUBCHEM_BOND_DEF_STEREO_COUNT>
1

>  <PUBCHEM_BOND_UDEF_STEREO_COUNT>
0

>  <PUBCHEM_ISOTOPIC_ATOM_COUNT>
0

>  <PUBCHEM_COMPONENT_COUNT>
1

>  <PUBCHEM_CACTVS_TAUTO_COUNT>
5

>  <PUBCHEM_COORDINATE_TYPE>
1
5
255

>  <PUBCHEM_BONDANNOTATIONS>
1  18  8
1  7  8
11  12  8
14  16  8
16  18  8
5  7  8
5  9  8
7  8  8
8  11  8
8  14  8
9  12  8

$$$$
