14136859
 OpenBabel06101807152D

 69 71  0  0  1  0  0  0  0  0999 V2000
    5.1350   -1.9695    0.0000 O   0  0  0  0  0  0  0  0  0  0  0  0
    6.8671   -1.9695    0.0000 O   0  0  0  0  0  0  0  0  0  0  0  0
    5.1350   -4.9695    0.0000 O   0  0  0  0  0  0  0  0  0  0  0  0
    3.4030   -3.9695    0.0000 O   0  0  0  0  0  0  0  0  0  0  0  0
    6.8671   -3.9695    0.0000 O   0  0  0  0  0  0  0  0  0  0  0  0
    6.0010   -0.4695    0.0000 O   0  0  0  0  0  0  0  0  0  0  0  0
    2.5369   -2.4695    0.0000 O   0  0  0  0  0  0  0  0  0  0  0  0
   10.2267    1.6229    0.0000 O   0  0  0  0  0  0  0  0  0  0  0  0
    6.0010    2.5305    0.0000 O   0  0  0  0  0  0  0  0  0  0  0  0
    8.8999    2.7362    0.0000 O   0  0  0  0  0  0  0  0  0  0  0  0
    7.2091    2.9702    0.0000 O   0  0  0  0  0  0  0  0  0  0  0  0
   14.4255    5.2795    0.0000 O   0  0  0  0  0  0  0  0  0  0  0  0
    5.1350   -3.9695    0.0000 C   0  0  1  0  0  0  0  0  0  0  0  0
    4.2690   -3.4695    0.0000 C   0  0  1  0  0  0  0  0  0  0  0  0
    6.0010   -3.4695    0.0000 C   0  0  2  0  0  0  0  0  0  0  0  0
    4.2690   -2.4695    0.0000 C   0  0  1  0  0  0  0  0  0  0  0  0
    6.0010   -2.4695    0.0000 C   0  0  1  0  0  0  0  0  0  0  0  0
    3.4030   -1.9695    0.0000 C   0  0  0  0  0  0  0  0  0  0  0  0
    6.8671   -0.9695    0.0000 C   0  0  2  0  0  0  0  0  0  0  0  0
    7.7331    0.5305    0.0000 C   0  0  1  0  0  0  0  0  0  0  0  0
    7.7331   -0.4695    0.0000 C   0  0  0  0  0  0  0  0  0  0  0  0
    6.8671    1.0305    0.0000 C   0  0  0  0  0  0  0  0  0  0  0  0
    8.5991    1.0305    0.0000 C   0  0  0  0  0  0  0  0  0  0  0  0
    6.0010    0.5305    0.0000 C   0  0  0  0  0  0  0  0  0  0  0  0
    8.5991   -0.9695    0.0000 C   0  0  0  0  0  0  0  0  0  0  0  0
    9.2419    1.7966    0.0000 C   0  0  0  0  0  0  0  0  0  0  0  0
    6.8671    2.0305    0.0000 C   0  0  0  0  0  0  0  0  0  0  0  0
    9.4651   -0.4695    0.0000 C   0  0  0  0  0  0  0  0  0  0  0  0
   10.8695    2.3890    0.0000 C   0  0  0  0  0  0  0  0  0  0  0  0
   11.8543    2.2153    0.0000 C   0  0  0  0  0  0  0  0  0  0  0  0
    6.0010    3.5305    0.0000 C   0  0  0  0  0  0  0  0  0  0  0  0
   12.4971    2.9814    0.0000 C   0  0  0  0  0  0  0  0  0  0  0  0
   13.4819    2.8077    0.0000 C   0  0  0  0  0  0  0  0  0  0  0  0
   12.1551    3.9210    0.0000 C   0  0  0  0  0  0  0  0  0  0  0  0
   14.1247    3.5738    0.0000 C   0  0  0  0  0  0  0  0  0  0  0  0
   12.7979    4.6871    0.0000 C   0  0  0  0  0  0  0  0  0  0  0  0
   13.7827    4.5134    0.0000 C   0  0  0  0  0  0  0  0  0  0  0  0
    5.6720   -4.2795    0.0000 H   0  0  0  0  0  0  0  0  0  0  0  0
    4.2690   -4.0895    0.0000 H   0  0  0  0  0  0  0  0  0  0  0  0
    6.5380   -3.1595    0.0000 H   0  0  0  0  0  0  0  0  0  0  0  0
    4.2690   -1.8495    0.0000 H   0  0  0  0  0  0  0  0  0  0  0  0
    6.0010   -1.8495    0.0000 H   0  0  0  0  0  0  0  0  0  0  0  0
    3.8015   -1.4945    0.0000 H   0  0  0  0  0  0  0  0  0  0  0  0
    3.0044   -1.4945    0.0000 H   0  0  0  0  0  0  0  0  0  0  0  0
    7.4040   -1.2795    0.0000 H   0  0  0  0  0  0  0  0  0  0  0  0
    8.2700    0.2205    0.0000 H   0  0  0  0  0  0  0  0  0  0  0  0
    4.5981   -5.2795    0.0000 H   0  0  0  0  0  0  0  0  0  0  0  0
    3.4030   -4.5895    0.0000 H   0  0  0  0  0  0  0  0  0  0  0  0
    6.8671   -4.5895    0.0000 H   0  0  0  0  0  0  0  0  0  0  0  0
    8.6711    0.4147    0.0000 H   0  0  0  0  0  0  0  0  0  0  0  0
    8.2006    1.5055    0.0000 H   0  0  0  0  0  0  0  0  0  0  0  0
    5.4641    0.8405    0.0000 H   0  0  0  0  0  0  0  0  0  0  0  0
    8.5991   -1.5895    0.0000 H   0  0  0  0  0  0  0  0  0  0  0  0
    2.0000   -2.1595    0.0000 H   0  0  0  0  0  0  0  0  0  0  0  0
    9.7751   -1.0064    0.0000 H   0  0  0  0  0  0  0  0  0  0  0  0
   10.0021   -0.1595    0.0000 H   0  0  0  0  0  0  0  0  0  0  0  0
    9.1551    0.0675    0.0000 H   0  0  0  0  0  0  0  0  0  0  0  0
   11.0815    2.9716    0.0000 H   0  0  0  0  0  0  0  0  0  0  0  0
   10.3326    2.6990    0.0000 H   0  0  0  0  0  0  0  0  0  0  0  0
   11.6423    1.6327    0.0000 H   0  0  0  0  0  0  0  0  0  0  0  0
   12.3912    1.9053    0.0000 H   0  0  0  0  0  0  0  0  0  0  0  0
    6.6210    3.5305    0.0000 H   0  0  0  0  0  0  0  0  0  0  0  0
    6.0010    4.1505    0.0000 H   0  0  0  0  0  0  0  0  0  0  0  0
    5.3810    3.5305    0.0000 H   0  0  0  0  0  0  0  0  0  0  0  0
   13.6940    2.2251    0.0000 H   0  0  0  0  0  0  0  0  0  0  0  0
   11.5445    4.0287    0.0000 H   0  0  0  0  0  0  0  0  0  0  0  0
   14.7353    3.4661    0.0000 H   0  0  0  0  0  0  0  0  0  0  0  0
   12.5858    5.2697    0.0000 H   0  0  0  0  0  0  0  0  0  0  0  0
   15.0360    5.1718    0.0000 H   0  0  0  0  0  0  0  0  0  0  0  0
  1 16  1  0  0  0  0
  1 17  1  0  0  0  0
  3 47  1  0  0  0  0
  4 48  1  0  0  0  0
  5 49  1  0  0  0  0
  6 19  1  0  0  0  0
  6 24  1  0  0  0  0
  7 18  1  0  0  0  0
  7 54  1  0  0  0  0
  8 26  1  0  0  0  0
  8 29  1  0  0  0  0
  9 27  1  0  0  0  0
  9 31  1  0  0  0  0
 10 26  2  0  0  0  0
 11 27  2  0  0  0  0
 12 37  1  0  0  0  0
 12 69  1  0  0  0  0
 13  3  1  0  0  0  0
 13 14  1  6  0  0  0
 13 38  1  0  0  0  0
 14  4  1  0  0  0  0
 14 16  1  1  0  0  0
 14 39  1  0  0  0  0
 15  5  1  0  0  0  0
 15 13  1  1  0  0  0
 15 40  1  0  0  0  0
 16 18  1  0  0  0  0
 16 41  1  6  0  0  0
 17  2  1  0  0  0  0
 17 15  1  6  0  0  0
 17 42  1  0  0  0  0
 18 43  1  0  0  0  0
 18 44  1  0  0  0  0
 19  2  1  0  0  0  0
 19 21  1  0  0  0  0
 19 45  1  1  0  0  0
 20 21  1  0  0  0  0
 20 22  1  0  0  0  0
 20 23  1  0  0  0  0
 20 46  1  6  0  0  0
 21 25  2  0  0  0  0
 22 24  2  0  0  0  0
 22 27  1  0  0  0  0
 23 26  1  0  0  0  0
 23 50  1  0  0  0  0
 23 51  1  0  0  0  0
 24 52  1  0  0  0  0
 25 28  1  0  0  0  0
 25 53  1  0  0  0  0
 28 55  1  0  0  0  0
 28 56  1  0  0  0  0
 28 57  1  0  0  0  0
 29 30  1  0  0  0  0
 29 58  1  0  0  0  0
 29 59  1  0  0  0  0
 30 32  1  0  0  0  0
 30 60  1  0  0  0  0
 30 61  1  0  0  0  0
 31 62  1  0  0  0  0
 31 63  1  0  0  0  0
 31 64  1  0  0  0  0
 32 33  2  0  0  0  0
 32 34  1  0  0  0  0
 33 35  1  0  0  0  0
 33 65  1  0  0  0  0
 34 36  2  0  0  0  0
 34 66  1  0  0  0  0
 35 37  2  0  0  0  0
 35 67  1  0  0  0  0
 36 37  1  0  0  0  0
 36 68  1  0  0  0  0
M  END
>  <PUBCHEM_COMPOUND_CID>
14136859

>  <PUBCHEM_COMPOUND_CANONICALIZED>
1

>  <PUBCHEM_CACTVS_COMPLEXITY>
834

>  <PUBCHEM_CACTVS_HBOND_ACCEPTOR>
12

>  <PUBCHEM_CACTVS_HBOND_DONOR>
5

>  <PUBCHEM_CACTVS_ROTATABLE_BOND>
11

>  <PUBCHEM_CACTVS_SUBSKEYS>
AAADcfB4PAAAAAAAAAAAAAAAAAAAAAAAAAA0QIAAAAAAAAABAAAAGgAACAAADRSwmAMyDoAABgCIAiDSCAACCAAgIAAIiAEGCMgZNjKCMRKicAAlwBEPuIfI5qwOIAAAAAAAAABAAAAAAAAAAAAAAAAAAA==

>  <PUBCHEM_IUPAC_OPENEYE_NAME>
methyl (4S,5E,6S)-5-ethylidene-4-[2-[2-(4-hydroxyphenyl)ethoxy]-2-oxo-ethyl]-6-[(2S,3R,4S,5S,6R)-3,4,5-trihydroxy-6-(hydroxymethyl)tetrahydropyran-2-yl]oxy-4H-pyran-3-carboxylate

>  <PUBCHEM_IUPAC_CAS_NAME>
(4S,5E,6S)-5-ethylidene-4-[2-[2-(4-hydroxyphenyl)ethoxy]-2-oxoethyl]-6-[[(2S,3R,4S,5S,6R)-3,4,5-trihydroxy-6-(hydroxymethyl)-2-oxanyl]oxy]-4H-pyran-3-carboxylic acid methyl ester

>  <PUBCHEM_IUPAC_NAME>
methyl (4S,5E,6S)-5-ethylidene-4-[2-[2-(4-hydroxyphenyl)ethoxy]-2-oxoethyl]-6-[(2S,3R,4S,5S,6R)-3,4,5-trihydroxy-6-(hydroxymethyl)oxan-2-yl]oxy-4H-pyran-3-carboxylate

>  <PUBCHEM_IUPAC_SYSTEMATIC_NAME>
methyl (4S,5E,6S)-5-ethylidene-6-[(2S,3R,4S,5S,6R)-6-(hydroxymethyl)-3,4,5-tris(oxidanyl)oxan-2-yl]oxy-4-[2-[2-(4-hydroxyphenyl)ethoxy]-2-oxidanylidene-ethyl]-4H-pyran-3-carboxylate

>  <PUBCHEM_IUPAC_TRADITIONAL_NAME>
(4S,5E,6S)-5-ethylidene-4-[2-[2-(4-hydroxyphenyl)ethoxy]-2-keto-ethyl]-6-[(2S,3R,4S,5S,6R)-3,4,5-trihydroxy-6-methylol-tetrahydropyran-2-yl]oxy-4H-pyran-3-carboxylic acid methyl ester

>  <PUBCHEM_IUPAC_INCHI>
InChI=1S/C25H32O12/c1-3-15-16(10-19(28)34-9-8-13-4-6-14(27)7-5-13)17(23(32)33-2)12-35-24(15)37-25-22(31)21(30)20(29)18(11-26)36-25/h3-7,12,16,18,20-22,24-27,29-31H,8-11H2,1-2H3/b15-3+/t16-,18+,20+,21-,22+,24-,25-/m0/s1

>  <PUBCHEM_IUPAC_INCHIKEY>
GMQXOLRKJQWPNB-MVVLSVRYSA-N

>  <PUBCHEM_XLOGP3_AA>
-0.1

>  <PUBCHEM_EXACT_MASS>
524.189

>  <PUBCHEM_MOLECULAR_FORMULA>
C25H32O12

>  <PUBCHEM_MOLECULAR_WEIGHT>
524.519

>  <PUBCHEM_OPENEYE_CAN_SMILES>
CC=C1C(C(=COC1OC2C(C(C(C(O2)CO)O)O)O)C(=O)OC)CC(=O)OCCC3=CC=C(C=C3)O

>  <PUBCHEM_OPENEYE_ISO_SMILES>
C/C=C/1\[C@@H](C(=CO[C@H]1O[C@H]2[C@@H]([C@H]([C@@H]([C@H](O2)CO)O)O)O)C(=O)OC)CC(=O)OCCC3=CC=C(C=C3)O

>  <PUBCHEM_CACTVS_TPSA>
181

>  <PUBCHEM_MONOISOTOPIC_WEIGHT>
524.189

>  <PUBCHEM_TOTAL_CHARGE>
0

>  <PUBCHEM_HEAVY_ATOM_COUNT>
37

>  <PUBCHEM_ATOM_DEF_STEREO_COUNT>
7

>  <PUBCHEM_ATOM_UDEF_STEREO_COUNT>
0

>  <PUBCHEM_BOND_DEF_STEREO_COUNT>
1

>  <PUBCHEM_BOND_UDEF_STEREO_COUNT>
0

>  <PUBCHEM_ISOTOPIC_ATOM_COUNT>
0

>  <PUBCHEM_COMPONENT_COUNT>
1

>  <PUBCHEM_CACTVS_TAUTO_COUNT>
2

>  <PUBCHEM_COORDINATE_TYPE>
1
5
255

>  <PUBCHEM_BONDANNOTATIONS>
16  18  5
17  2  5
19  2  6
20  23  5
13  3  5
32  33  8
32  34  8
33  35  8
34  36  8
35  37  8
36  37  8
14  4  6
15  5  6

$$$$
