14165818
 OpenBabel06101807152D

 41 42  0  0  1  0  0  0  0  0999 V2000
    4.3100    1.0987    0.0000 O   0  0  0  0  0  0  0  0  0  0  0  0
    2.3100   -0.6333    0.0000 O   0  0  0  0  0  0  0  0  0  0  0  0
    6.5420   -0.7673    0.0000 C   0  0  3  0  0  0  0  0  0  0  0  0
    6.5420    0.2327    0.0000 C   0  0  3  0  0  0  0  0  0  0  0  0
    5.6760   -1.2673    0.0000 C   0  0  0  0  0  0  0  0  0  0  0  0
    5.6760    0.7327    0.0000 C   0  0  0  0  0  0  0  0  0  0  0  0
    4.8100    0.2327    0.0000 C   0  0  3  0  0  0  0  0  0  0  0  0
    7.4360   -1.3020    0.0000 C   0  0  0  0  0  0  0  0  0  0  0  0
    4.8100   -0.7673    0.0000 C   0  0  0  0  0  0  0  0  0  0  0  0
    7.4360    0.7674    0.0000 C   0  0  0  0  0  0  0  0  0  0  0  0
    8.3421   -0.7881    0.0000 C   0  0  0  0  0  0  0  0  0  0  0  0
    6.5420   -1.7673    0.0000 C   0  0  0  0  0  0  0  0  0  0  0  0
    8.3421    0.2535    0.0000 C   0  0  0  0  0  0  0  0  0  0  0  0
    3.8100    0.2327    0.0000 C   0  0  0  0  0  0  0  0  0  0  0  0
    7.4244    1.7673    0.0000 C   0  0  0  0  0  0  0  0  0  0  0  0
    3.3100   -0.6333    0.0000 C   0  0  0  0  0  0  0  0  0  0  0  0
    3.3100    1.0987    0.0000 C   0  0  0  0  0  0  0  0  0  0  0  0
    6.5373    0.8527    0.0000 H   0  0  0  0  0  0  0  0  0  0  0  0
    5.2775   -1.7422    0.0000 H   0  0  0  0  0  0  0  0  0  0  0  0
    6.0746   -1.7422    0.0000 H   0  0  0  0  0  0  0  0  0  0  0  0
    6.0746    1.2076    0.0000 H   0  0  0  0  0  0  0  0  0  0  0  0
    5.2775    1.2076    0.0000 H   0  0  0  0  0  0  0  0  0  0  0  0
    7.0314   -1.7718    0.0000 H   0  0  0  0  0  0  0  0  0  0  0  0
    7.8296   -1.7810    0.0000 H   0  0  0  0  0  0  0  0  0  0  0  0
    4.1994   -0.6596    0.0000 H   0  0  0  0  0  0  0  0  0  0  0  0
    4.5980   -1.3499    0.0000 H   0  0  0  0  0  0  0  0  0  0  0  0
    8.5511   -1.3718    0.0000 H   0  0  0  0  0  0  0  0  0  0  0  0
    8.9529   -0.6820    0.0000 H   0  0  0  0  0  0  0  0  0  0  0  0
    5.9220   -1.7673    0.0000 H   0  0  0  0  0  0  0  0  0  0  0  0
    6.5420   -2.3873    0.0000 H   0  0  0  0  0  0  0  0  0  0  0  0
    7.1620   -1.7673    0.0000 H   0  0  0  0  0  0  0  0  0  0  0  0
    8.9529    0.1474    0.0000 H   0  0  0  0  0  0  0  0  0  0  0  0
    8.5511    0.8372    0.0000 H   0  0  0  0  0  0  0  0  0  0  0  0
    4.6200    1.6357    0.0000 H   0  0  0  0  0  0  0  0  0  0  0  0
    7.9577    2.0835    0.0000 H   0  0  0  0  0  0  0  0  0  0  0  0
    6.8839    2.0711    0.0000 H   0  0  0  0  0  0  0  0  0  0  0  0
    3.2023   -1.2439    0.0000 H   0  0  0  0  0  0  0  0  0  0  0  0
    3.8926   -0.8454    0.0000 H   0  0  0  0  0  0  0  0  0  0  0  0
    3.6200    1.6357    0.0000 H   0  0  0  0  0  0  0  0  0  0  0  0
    2.6900    1.0987    0.0000 H   0  0  0  0  0  0  0  0  0  0  0  0
    2.0000   -1.1703    0.0000 H   0  0  0  0  0  0  0  0  0  0  0  0
  1  7  1  0  0  0  0
  1 34  1  0  0  0  0
  2 16  1  0  0  0  0
  2 41  1  0  0  0  0
  3  4  1  0  0  0  0
  3  5  1  0  0  0  0
  3  8  1  0  0  0  0
  3 12  1  0  0  0  0
  4  6  1  0  0  0  0
  4 10  1  0  0  0  0
  4 18  1  0  0  0  0
  5  9  1  0  0  0  0
  5 19  1  0  0  0  0
  5 20  1  0  0  0  0
  6  7  1  0  0  0  0
  6 21  1  0  0  0  0
  6 22  1  0  0  0  0
  7  9  1  0  0  0  0
  7 14  1  0  0  0  0
  8 11  1  0  0  0  0
  8 23  1  0  0  0  0
  8 24  1  0  0  0  0
  9 25  1  0  0  0  0
  9 26  1  0  0  0  0
 10 13  1  0  0  0  0
 10 15  2  0  0  0  0
 11 13  1  0  0  0  0
 11 27  1  0  0  0  0
 11 28  1  0  0  0  0
 12 29  1  0  0  0  0
 12 30  1  0  0  0  0
 12 31  1  0  0  0  0
 13 32  1  0  0  0  0
 13 33  1  0  0  0  0
 14 16  1  0  0  0  0
 14 17  2  0  0  0  0
 15 35  1  0  0  0  0
 15 36  1  0  0  0  0
 16 37  1  0  0  0  0
 16 38  1  0  0  0  0
 17 39  1  0  0  0  0
 17 40  1  0  0  0  0
M  END
>  <PUBCHEM_COMPOUND_CID>
14165818

>  <PUBCHEM_COMPOUND_CANONICALIZED>
1

>  <PUBCHEM_CACTVS_COMPLEXITY>
347

>  <PUBCHEM_CACTVS_HBOND_ACCEPTOR>
2

>  <PUBCHEM_CACTVS_HBOND_DONOR>
2

>  <PUBCHEM_CACTVS_ROTATABLE_BOND>
2

>  <PUBCHEM_CACTVS_SUBSKEYS>
AAADceBwMAAAAAAAAAAAAAAAAAAAAAAAAAAwYAAAAAAAAADAAAAAGgAACAAAD0SggAICAAAAAgCAAgBCAAAAAAAgAAAAAAAAAAgAFAIAAQAAQAAFgAAAEAGAwPAPgAAAAAAAAADAAAYAACAAAAAAAAAAAA==

>  <PUBCHEM_IUPAC_OPENEYE_NAME>
2-[1-(hydroxymethyl)vinyl]-4a-methyl-8-methylene-decalin-2-ol

>  <PUBCHEM_IUPAC_CAS_NAME>
2-(3-hydroxyprop-1-en-2-yl)-4a-methyl-8-methylene-3,4,5,6,7,8a-hexahydro-1H-naphthalen-2-ol

>  <PUBCHEM_IUPAC_NAME>
2-(3-hydroxyprop-1-en-2-yl)-4a-methyl-8-methylidene-3,4,5,6,7,8a-hexahydro-1H-naphthalen-2-ol

>  <PUBCHEM_IUPAC_SYSTEMATIC_NAME>
4a-methyl-8-methylidene-2-(3-oxidanylprop-1-en-2-yl)-3,4,5,6,7,8a-hexahydro-1H-naphthalen-2-ol

>  <PUBCHEM_IUPAC_TRADITIONAL_NAME>
4a-methyl-8-methylene-2-(1-methylolvinyl)decalin-2-ol

>  <PUBCHEM_IUPAC_INCHI>
InChI=1S/C15H24O2/c1-11-5-4-6-14(3)7-8-15(17,9-13(11)14)12(2)10-16/h13,16-17H,1-2,4-10H2,3H3

>  <PUBCHEM_IUPAC_INCHIKEY>
SDWGOFYIBUYAQT-UHFFFAOYSA-N

>  <PUBCHEM_XLOGP3_AA>
3.1

>  <PUBCHEM_EXACT_MASS>
236.178

>  <PUBCHEM_MOLECULAR_FORMULA>
C15H24O2

>  <PUBCHEM_MOLECULAR_WEIGHT>
236.355

>  <PUBCHEM_OPENEYE_CAN_SMILES>
CC12CCCC(=C)C1CC(CC2)(C(=C)CO)O

>  <PUBCHEM_OPENEYE_ISO_SMILES>
CC12CCCC(=C)C1CC(CC2)(C(=C)CO)O

>  <PUBCHEM_CACTVS_TPSA>
40.5

>  <PUBCHEM_MONOISOTOPIC_WEIGHT>
236.178

>  <PUBCHEM_TOTAL_CHARGE>
0

>  <PUBCHEM_HEAVY_ATOM_COUNT>
17

>  <PUBCHEM_ATOM_DEF_STEREO_COUNT>
0

>  <PUBCHEM_ATOM_UDEF_STEREO_COUNT>
3

>  <PUBCHEM_BOND_DEF_STEREO_COUNT>
0

>  <PUBCHEM_BOND_UDEF_STEREO_COUNT>
0

>  <PUBCHEM_ISOTOPIC_ATOM_COUNT>
0

>  <PUBCHEM_COMPONENT_COUNT>
1

>  <PUBCHEM_CACTVS_TAUTO_COUNT>
1

>  <PUBCHEM_COORDINATE_TYPE>
1
5
255

>  <PUBCHEM_BONDANNOTATIONS>
7  1  3
3  12  3
4  10  3

$$$$
