14160521
 OpenBabel06101807152D

 52 56  0  0  1  0  0  0  0  0999 V2000
    5.0414   -1.4845    0.0000 O   0  0  0  0  0  0  0  0  0  0  0  0
    6.8536   -0.4565    0.0000 O   0  0  0  0  0  0  0  0  0  0  0  0
    5.8934    2.8987    0.0000 O   0  0  0  0  0  0  0  0  0  0  0  0
    6.7168   -1.6651    0.0000 O   0  0  0  0  0  0  0  0  0  0  0  0
    5.8643   -2.9381    0.0000 O   0  0  0  0  0  0  0  0  0  0  0  0
    4.6745   -3.3204    0.0000 O   0  0  0  0  0  0  0  0  0  0  0  0
    5.1708   -0.2669    0.0000 C   0  0  3  0  0  0  0  0  0  0  0  0
    3.5848   -0.5533    0.0000 C   0  0  3  0  0  0  0  0  0  0  0  0
    4.2699    0.1670    0.0000 C   0  0  3  0  0  0  0  0  0  0  0  0
    4.0566   -1.4282    0.0000 C   0  0  3  0  0  0  0  0  0  0  0  0
    5.0349   -1.2516    0.0000 C   0  0  3  0  0  0  0  0  0  0  0  0
    5.0640    0.9099    0.0000 C   0  0  0  0  0  0  0  0  0  0  0  0
    3.5267   -2.3178    0.0000 C   0  0  3  0  0  0  0  0  0  0  0  0
    6.0718    0.1670    0.0000 C   0  0  3  0  0  0  0  0  0  0  0  0
    5.6708    1.9238    0.0000 C   0  0  3  0  0  0  0  0  0  0  0  0
    4.0474    1.1420    0.0000 C   0  0  0  0  0  0  0  0  0  0  0  0
    2.5503   -0.5072    0.0000 C   0  0  0  0  0  0  0  0  0  0  0  0
    4.5781   -0.6043    0.0000 C   0  0  0  0  0  0  0  0  0  0  0  0
    4.6708    1.9238    0.0000 C   0  0  0  0  0  0  0  0  0  0  0  0
    6.2943    1.1420    0.0000 C   0  0  0  0  0  0  0  0  0  0  0  0
    2.4915   -2.2957    0.0000 C   0  0  0  0  0  0  0  0  0  0  0  0
    2.0000   -1.3843    0.0000 C   0  0  0  0  0  0  0  0  0  0  0  0
    5.7565   -1.9439    0.0000 C   0  0  0  0  0  0  0  0  0  0  0  0
    4.5212   -2.3322    0.0000 C   0  0  0  0  0  0  0  0  0  0  0  0
    3.5088   -3.3177    0.0000 C   0  0  0  0  0  0  0  0  0  0  0  0
    7.2693    1.3645    0.0000 C   0  0  0  0  0  0  0  0  0  0  0  0
    4.7546    0.5536    0.0000 H   0  0  0  0  0  0  0  0  0  0  0  0
    4.4098   -1.9378    0.0000 H   0  0  0  0  0  0  0  0  0  0  0  0
    4.8558   -1.8452    0.0000 H   0  0  0  0  0  0  0  0  0  0  0  0
    4.6562    1.3769    0.0000 H   0  0  0  0  0  0  0  0  0  0  0  0
    4.4940    0.6661    0.0000 H   0  0  0  0  0  0  0  0  0  0  0  0
    6.0024   -0.4491    0.0000 H   0  0  0  0  0  0  0  0  0  0  0  0
    3.6608    1.6267    0.0000 H   0  0  0  0  0  0  0  0  0  0  0  0
    3.4888    0.8729    0.0000 H   0  0  0  0  0  0  0  0  0  0  0  0
    2.6835    0.0983    0.0000 H   0  0  0  0  0  0  0  0  0  0  0  0
    1.9765   -0.2724    0.0000 H   0  0  0  0  0  0  0  0  0  0  0  0
    5.1693   -0.4176    0.0000 H   0  0  0  0  0  0  0  0  0  0  0  0
    4.4994    0.0107    0.0000 H   0  0  0  0  0  0  0  0  0  0  0  0
    4.8088    2.5282    0.0000 H   0  0  0  0  0  0  0  0  0  0  0  0
    4.1123    2.1928    0.0000 H   0  0  0  0  0  0  0  0  0  0  0  0
    1.9034   -2.4923    0.0000 H   0  0  0  0  0  0  0  0  0  0  0  0
    2.5845   -2.9087    0.0000 H   0  0  0  0  0  0  0  0  0  0  0  0
    1.5390   -0.9698    0.0000 H   0  0  0  0  0  0  0  0  0  0  0  0
    1.5127   -1.7676    0.0000 H   0  0  0  0  0  0  0  0  0  0  0  0
    2.8889   -3.3066    0.0000 H   0  0  0  0  0  0  0  0  0  0  0  0
    3.4977   -3.9376    0.0000 H   0  0  0  0  0  0  0  0  0  0  0  0
    4.1287   -3.3288    0.0000 H   0  0  0  0  0  0  0  0  0  0  0  0
    7.4308   -0.2300    0.0000 H   0  0  0  0  0  0  0  0  0  0  0  0
    5.4389    3.3204    0.0000 H   0  0  0  0  0  0  0  0  0  0  0  0
    7.6910    0.9100    0.0000 H   0  0  0  0  0  0  0  0  0  0  0  0
    7.4520    1.9569    0.0000 H   0  0  0  0  0  0  0  0  0  0  0  0
    7.1642   -2.0944    0.0000 H   0  0  0  0  0  0  0  0  0  0  0  0
  1 18  1  0  0  0  0
  1 24  1  0  0  0  0
  2 14  1  0  0  0  0
  2 48  1  0  0  0  0
  3 15  1  0  0  0  0
  3 49  1  0  0  0  0
  4 23  1  0  0  0  0
  4 52  1  0  0  0  0
  5 23  2  0  0  0  0
  6 24  2  0  0  0  0
  7  9  1  0  0  0  0
  7 11  1  0  0  0  0
  7 12  1  0  0  0  0
  7 14  1  0  0  0  0
  8  9  1  0  0  0  0
  8 10  1  0  0  0  0
  8 17  1  0  0  0  0
  8 18  1  0  0  0  0
  9 16  1  0  0  0  0
  9 27  1  0  0  0  0
 10 11  1  0  0  0  0
 10 13  1  0  0  0  0
 10 28  1  0  0  0  0
 11 23  1  0  0  0  0
 11 29  1  0  0  0  0
 12 15  1  0  0  0  0
 12 30  1  0  0  0  0
 12 31  1  0  0  0  0
 13 21  1  0  0  0  0
 13 24  1  0  0  0  0
 13 25  1  0  0  0  0
 14 20  1  0  0  0  0
 14 32  1  0  0  0  0
 15 19  1  0  0  0  0
 15 20  1  0  0  0  0
 16 19  1  0  0  0  0
 16 33  1  0  0  0  0
 16 34  1  0  0  0  0
 17 22  1  0  0  0  0
 17 35  1  0  0  0  0
 17 36  1  0  0  0  0
 18 37  1  0  0  0  0
 18 38  1  0  0  0  0
 19 39  1  0  0  0  0
 19 40  1  0  0  0  0
 20 26  2  0  0  0  0
 21 22  1  0  0  0  0
 21 41  1  0  0  0  0
 21 42  1  0  0  0  0
 22 43  1  0  0  0  0
 22 44  1  0  0  0  0
 25 45  1  0  0  0  0
 25 46  1  0  0  0  0
 25 47  1  0  0  0  0
 26 50  1  0  0  0  0
 26 51  1  0  0  0  0
M  END
>  <PUBCHEM_COMPOUND_CID>
14160521

>  <PUBCHEM_COMPOUND_CANONICALIZED>
1

>  <PUBCHEM_CACTVS_COMPLEXITY>
747

>  <PUBCHEM_CACTVS_HBOND_ACCEPTOR>
6

>  <PUBCHEM_CACTVS_HBOND_DONOR>
3

>  <PUBCHEM_CACTVS_ROTATABLE_BOND>
1

>  <PUBCHEM_CACTVS_SUBSKEYS>
AAADceB4OAAAAAAAAAAAAAAAAAAAAYMAAAA0YIAABgASAGjAAAAAGgAACAAAD1SggAICCAAABgCIAgDSCAAAAAAgAAAAAAEAAAgAFBIAAQACQAAFgAAAEAHK7vzPgAAAAAAAAADAAAYAACAAAYQADAAAAA==

>  <PUBCHEM_IUPAC_INCHI>
InChI=1S/C20H26O6/c1-10-14(21)20-8-19(10,25)7-4-11(20)18-6-3-5-17(2,16(24)26-9-18)13(18)12(20)15(22)23/h11-14,21,25H,1,3-9H2,2H3,(H,22,23)

>  <PUBCHEM_IUPAC_INCHIKEY>
TVHWJBUVLOSPPI-UHFFFAOYSA-N

>  <PUBCHEM_XLOGP3_AA>
0.5

>  <PUBCHEM_EXACT_MASS>
362.173

>  <PUBCHEM_MOLECULAR_FORMULA>
C20H26O6

>  <PUBCHEM_MOLECULAR_WEIGHT>
362.422

>  <PUBCHEM_OPENEYE_CAN_SMILES>
CC12CCCC3(C1C(C45C3CCC(C4)(C(=C)C5O)O)C(=O)O)COC2=O

>  <PUBCHEM_OPENEYE_ISO_SMILES>
CC12CCCC3(C1C(C45C3CCC(C4)(C(=C)C5O)O)C(=O)O)COC2=O

>  <PUBCHEM_CACTVS_TPSA>
104

>  <PUBCHEM_MONOISOTOPIC_WEIGHT>
362.173

>  <PUBCHEM_TOTAL_CHARGE>
0

>  <PUBCHEM_HEAVY_ATOM_COUNT>
26

>  <PUBCHEM_ATOM_DEF_STEREO_COUNT>
0

>  <PUBCHEM_ATOM_UDEF_STEREO_COUNT>
8

>  <PUBCHEM_BOND_DEF_STEREO_COUNT>
0

>  <PUBCHEM_BOND_UDEF_STEREO_COUNT>
0

>  <PUBCHEM_ISOTOPIC_ATOM_COUNT>
0

>  <PUBCHEM_COMPONENT_COUNT>
1

>  <PUBCHEM_CACTVS_TAUTO_COUNT>
1

>  <PUBCHEM_COORDINATE_TYPE>
1
5
255

>  <PUBCHEM_BONDANNOTATIONS>
10  11  3
11  23  3
13  25  3
14  2  3
15  3  3
7  12  3
8  18  3
9  16  3

$$$$
