14165820
 OpenBabel06101807152D

 39 40  0  0  1  0  0  0  0  0999 V2000
    4.0000    1.0987    0.0000 O   0  0  0  0  0  0  0  0  0  0  0  0
    2.0000   -0.6333    0.0000 O   0  0  0  0  0  0  0  0  0  0  0  0
    6.2320   -0.7673    0.0000 C   0  0  3  0  0  0  0  0  0  0  0  0
    6.2320    0.2327    0.0000 C   0  0  3  0  0  0  0  0  0  0  0  0
    5.3660   -1.2673    0.0000 C   0  0  0  0  0  0  0  0  0  0  0  0
    5.3660    0.7327    0.0000 C   0  0  0  0  0  0  0  0  0  0  0  0
    7.1260   -1.3020    0.0000 C   0  0  0  0  0  0  0  0  0  0  0  0
    4.5000    0.2327    0.0000 C   0  0  3  0  0  0  0  0  0  0  0  0
    4.5000   -0.7673    0.0000 C   0  0  0  0  0  0  0  0  0  0  0  0
    7.1260    0.7674    0.0000 C   0  0  0  0  0  0  0  0  0  0  0  0
    8.0321   -0.7881    0.0000 C   0  0  0  0  0  0  0  0  0  0  0  0
    6.2320   -1.7673    0.0000 C   0  0  0  0  0  0  0  0  0  0  0  0
    8.0321    0.2535    0.0000 C   0  0  0  0  0  0  0  0  0  0  0  0
    3.5000    0.2327    0.0000 C   0  0  0  0  0  0  0  0  0  0  0  0
    7.1144    1.7673    0.0000 C   0  0  0  0  0  0  0  0  0  0  0  0
    3.0000   -0.6333    0.0000 C   0  0  0  0  0  0  0  0  0  0  0  0
    3.0000    1.0987    0.0000 C   0  0  0  0  0  0  0  0  0  0  0  0
    6.2273    0.8527    0.0000 H   0  0  0  0  0  0  0  0  0  0  0  0
    4.9675   -1.7422    0.0000 H   0  0  0  0  0  0  0  0  0  0  0  0
    5.7646   -1.7422    0.0000 H   0  0  0  0  0  0  0  0  0  0  0  0
    5.7646    1.2076    0.0000 H   0  0  0  0  0  0  0  0  0  0  0  0
    4.9675    1.2076    0.0000 H   0  0  0  0  0  0  0  0  0  0  0  0
    6.7214   -1.7718    0.0000 H   0  0  0  0  0  0  0  0  0  0  0  0
    7.5196   -1.7810    0.0000 H   0  0  0  0  0  0  0  0  0  0  0  0
    3.8894   -0.6596    0.0000 H   0  0  0  0  0  0  0  0  0  0  0  0
    4.2880   -1.3499    0.0000 H   0  0  0  0  0  0  0  0  0  0  0  0
    8.2411   -1.3718    0.0000 H   0  0  0  0  0  0  0  0  0  0  0  0
    8.6429   -0.6820    0.0000 H   0  0  0  0  0  0  0  0  0  0  0  0
    5.6120   -1.7673    0.0000 H   0  0  0  0  0  0  0  0  0  0  0  0
    6.2320   -2.3873    0.0000 H   0  0  0  0  0  0  0  0  0  0  0  0
    6.8520   -1.7673    0.0000 H   0  0  0  0  0  0  0  0  0  0  0  0
    8.6429    0.1474    0.0000 H   0  0  0  0  0  0  0  0  0  0  0  0
    8.2411    0.8372    0.0000 H   0  0  0  0  0  0  0  0  0  0  0  0
    4.3100    1.6357    0.0000 H   0  0  0  0  0  0  0  0  0  0  0  0
    7.6477    2.0835    0.0000 H   0  0  0  0  0  0  0  0  0  0  0  0
    6.5740    2.0711    0.0000 H   0  0  0  0  0  0  0  0  0  0  0  0
    3.3100   -1.1703    0.0000 H   0  0  0  0  0  0  0  0  0  0  0  0
    3.3100    1.6357    0.0000 H   0  0  0  0  0  0  0  0  0  0  0  0
    2.3800    1.0987    0.0000 H   0  0  0  0  0  0  0  0  0  0  0  0
  1  8  1  0  0  0  0
  1 34  1  0  0  0  0
  2 16  2  0  0  0  0
  3  4  1  0  0  0  0
  3  5  1  0  0  0  0
  3  7  1  0  0  0  0
  3 12  1  0  0  0  0
  4  6  1  0  0  0  0
  4 10  1  0  0  0  0
  4 18  1  0  0  0  0
  5  9  1  0  0  0  0
  5 19  1  0  0  0  0
  5 20  1  0  0  0  0
  6  8  1  0  0  0  0
  6 21  1  0  0  0  0
  6 22  1  0  0  0  0
  7 11  1  0  0  0  0
  7 23  1  0  0  0  0
  7 24  1  0  0  0  0
  8  9  1  0  0  0  0
  8 14  1  0  0  0  0
  9 25  1  0  0  0  0
  9 26  1  0  0  0  0
 10 13  1  0  0  0  0
 10 15  2  0  0  0  0
 11 13  1  0  0  0  0
 11 27  1  0  0  0  0
 11 28  1  0  0  0  0
 12 29  1  0  0  0  0
 12 30  1  0  0  0  0
 12 31  1  0  0  0  0
 13 32  1  0  0  0  0
 13 33  1  0  0  0  0
 14 16  1  0  0  0  0
 14 17  2  0  0  0  0
 15 35  1  0  0  0  0
 15 36  1  0  0  0  0
 16 37  1  0  0  0  0
 17 38  1  0  0  0  0
 17 39  1  0  0  0  0
M  END
>  <PUBCHEM_COMPOUND_CID>
14165820

>  <PUBCHEM_COMPOUND_CANONICALIZED>
1

>  <PUBCHEM_CACTVS_COMPLEXITY>
371

>  <PUBCHEM_CACTVS_HBOND_ACCEPTOR>
2

>  <PUBCHEM_CACTVS_HBOND_DONOR>
1

>  <PUBCHEM_CACTVS_ROTATABLE_BOND>
2

>  <PUBCHEM_CACTVS_SUBSKEYS>
AAADceBwMAAAAAAAAAAAAAAAAAAAAAAAAAAwYAAAAAAAAADAAAAAGgAACAAAD0SggAICAAAAAgCIAghSgAAAAAAgAAAAAAEAAEgABBYAAQAAQAAEoAAAEIGIyPCPgAAAAAAAAADAAAYAACAAAAAAAAAAAA==

>  <PUBCHEM_IUPAC_OPENEYE_NAME>
2-(2-hydroxy-4a-methyl-8-methylene-decalin-2-yl)prop-2-enal

>  <PUBCHEM_IUPAC_CAS_NAME>
2-(2-hydroxy-4a-methyl-8-methylene-3,4,5,6,7,8a-hexahydro-1H-naphthalen-2-yl)-2-propenal

>  <PUBCHEM_IUPAC_NAME>
2-(2-hydroxy-4a-methyl-8-methylidene-3,4,5,6,7,8a-hexahydro-1H-naphthalen-2-yl)prop-2-enal

>  <PUBCHEM_IUPAC_SYSTEMATIC_NAME>
2-(4a-methyl-8-methylidene-2-oxidanyl-3,4,5,6,7,8a-hexahydro-1H-naphthalen-2-yl)prop-2-enal

>  <PUBCHEM_IUPAC_TRADITIONAL_NAME>
2-(2-hydroxy-4a-methyl-8-methylene-decalin-2-yl)acrolein

>  <PUBCHEM_IUPAC_INCHI>
InChI=1S/C15H22O2/c1-11-5-4-6-14(3)7-8-15(17,9-13(11)14)12(2)10-16/h10,13,17H,1-2,4-9H2,3H3

>  <PUBCHEM_IUPAC_INCHIKEY>
VRDBEJGMTYROKE-UHFFFAOYSA-N

>  <PUBCHEM_XLOGP3_AA>
3

>  <PUBCHEM_EXACT_MASS>
234.162

>  <PUBCHEM_MOLECULAR_FORMULA>
C15H22O2

>  <PUBCHEM_MOLECULAR_WEIGHT>
234.339

>  <PUBCHEM_OPENEYE_CAN_SMILES>
CC12CCCC(=C)C1CC(CC2)(C(=C)C=O)O

>  <PUBCHEM_OPENEYE_ISO_SMILES>
CC12CCCC(=C)C1CC(CC2)(C(=C)C=O)O

>  <PUBCHEM_CACTVS_TPSA>
37.3

>  <PUBCHEM_MONOISOTOPIC_WEIGHT>
234.162

>  <PUBCHEM_TOTAL_CHARGE>
0

>  <PUBCHEM_HEAVY_ATOM_COUNT>
17

>  <PUBCHEM_ATOM_DEF_STEREO_COUNT>
0

>  <PUBCHEM_ATOM_UDEF_STEREO_COUNT>
3

>  <PUBCHEM_BOND_DEF_STEREO_COUNT>
0

>  <PUBCHEM_BOND_UDEF_STEREO_COUNT>
0

>  <PUBCHEM_ISOTOPIC_ATOM_COUNT>
0

>  <PUBCHEM_COMPONENT_COUNT>
1

>  <PUBCHEM_CACTVS_TAUTO_COUNT>
1

>  <PUBCHEM_COORDINATE_TYPE>
1
5
255

>  <PUBCHEM_BONDANNOTATIONS>
8  1  3
3  12  3
4  10  3

$$$$
