14160523
 OpenBabel06101807152D

 53 56  0  0  1  0  0  0  0  0999 V2000
    6.8536    0.2140    0.0000 O   0  0  0  0  0  0  0  0  0  0  0  0
    5.8934    3.5692    0.0000 O   0  0  0  0  0  0  0  0  0  0  0  0
    5.5177   -2.2445    0.0000 O   0  0  0  0  0  0  0  0  0  0  0  0
    2.1106    1.0264    0.0000 O   0  0  0  0  0  0  0  0  0  0  0  0
    6.7168   -0.9947    0.0000 O   0  0  0  0  0  0  0  0  0  0  0  0
    2.6346   -3.1320    0.0000 O   0  0  0  0  0  0  0  0  0  0  0  0
    4.3664   -3.1623    0.0000 O   0  0  0  0  0  0  0  0  0  0  0  0
    5.1708    0.4036    0.0000 C   0  0  3  0  0  0  0  0  0  0  0  0
    4.2699    0.8375    0.0000 C   0  0  3  0  0  0  0  0  0  0  0  0
    3.5848    0.1172    0.0000 C   0  0  3  0  0  0  0  0  0  0  0  0
    4.0566   -0.7578    0.0000 C   0  0  3  0  0  0  0  0  0  0  0  0
    5.0349   -0.5811    0.0000 C   0  0  3  0  0  0  0  0  0  0  0  0
    5.0640    1.5804    0.0000 C   0  0  0  0  0  0  0  0  0  0  0  0
    6.0718    0.8375    0.0000 C   0  0  3  0  0  0  0  0  0  0  0  0
    5.6708    2.5942    0.0000 C   0  0  3  0  0  0  0  0  0  0  0  0
    4.0474    1.8124    0.0000 C   0  0  0  0  0  0  0  0  0  0  0  0
    3.5267   -1.6474    0.0000 C   0  0  3  0  0  0  0  0  0  0  0  0
    2.5503    0.1632    0.0000 C   0  0  0  0  0  0  0  0  0  0  0  0
    4.6708    2.5942    0.0000 C   0  0  0  0  0  0  0  0  0  0  0  0
    6.2943    1.8124    0.0000 C   0  0  0  0  0  0  0  0  0  0  0  0
    2.4915   -1.6253    0.0000 C   0  0  0  0  0  0  0  0  0  0  0  0
    2.0000   -0.7139    0.0000 C   0  0  0  0  0  0  0  0  0  0  0  0
    3.1102    0.9974    0.0000 C   0  0  0  0  0  0  0  0  0  0  0  0
    5.7565   -1.2734    0.0000 C   0  0  0  0  0  0  0  0  0  0  0  0
    4.3838   -2.1625    0.0000 C   0  0  0  0  0  0  0  0  0  0  0  0
    3.5092   -2.6472    0.0000 C   0  0  0  0  0  0  0  0  0  0  0  0
    7.2693    2.0349    0.0000 C   0  0  0  0  0  0  0  0  0  0  0  0
    3.6720    1.0016    0.0000 H   0  0  0  0  0  0  0  0  0  0  0  0
    4.4098   -1.2674    0.0000 H   0  0  0  0  0  0  0  0  0  0  0  0
    4.8558   -1.1747    0.0000 H   0  0  0  0  0  0  0  0  0  0  0  0
    4.6562    2.0474    0.0000 H   0  0  0  0  0  0  0  0  0  0  0  0
    4.4940    1.3365    0.0000 H   0  0  0  0  0  0  0  0  0  0  0  0
    6.0024    0.2214    0.0000 H   0  0  0  0  0  0  0  0  0  0  0  0
    3.6608    2.2971    0.0000 H   0  0  0  0  0  0  0  0  0  0  0  0
    3.4888    1.5434    0.0000 H   0  0  0  0  0  0  0  0  0  0  0  0
    2.6835    0.7688    0.0000 H   0  0  0  0  0  0  0  0  0  0  0  0
    1.9765    0.3980    0.0000 H   0  0  0  0  0  0  0  0  0  0  0  0
    4.8088    3.1987    0.0000 H   0  0  0  0  0  0  0  0  0  0  0  0
    4.1123    2.8632    0.0000 H   0  0  0  0  0  0  0  0  0  0  0  0
    1.9034   -1.8218    0.0000 H   0  0  0  0  0  0  0  0  0  0  0  0
    2.5845   -2.2383    0.0000 H   0  0  0  0  0  0  0  0  0  0  0  0
    1.5390   -0.2994    0.0000 H   0  0  0  0  0  0  0  0  0  0  0  0
    1.5127   -1.0972    0.0000 H   0  0  0  0  0  0  0  0  0  0  0  0
    3.4356    1.5251    0.0000 H   0  0  0  0  0  0  0  0  0  0  0  0
    4.0645   -2.6939    0.0000 H   0  0  0  0  0  0  0  0  0  0  0  0
    4.9153   -2.4818    0.0000 H   0  0  0  0  0  0  0  0  0  0  0  0
    4.7032   -1.6310    0.0000 H   0  0  0  0  0  0  0  0  0  0  0  0
    7.4308    0.4405    0.0000 H   0  0  0  0  0  0  0  0  0  0  0  0
    6.4858    3.7519    0.0000 H   0  0  0  0  0  0  0  0  0  0  0  0
    7.6910    1.5804    0.0000 H   0  0  0  0  0  0  0  0  0  0  0  0
    7.4520    2.6274    0.0000 H   0  0  0  0  0  0  0  0  0  0  0  0
    5.9651   -2.6738    0.0000 H   0  0  0  0  0  0  0  0  0  0  0  0
    2.6237   -3.7519    0.0000 H   0  0  0  0  0  0  0  0  0  0  0  0
  1 14  1  0  0  0  0
  1 48  1  0  0  0  0
  2 15  1  0  0  0  0
  2 49  1  0  0  0  0
  3 24  1  0  0  0  0
  3 52  1  0  0  0  0
  4 23  2  0  0  0  0
  5 24  2  0  0  0  0
  6 26  1  0  0  0  0
  6 53  1  0  0  0  0
  7 26  2  0  0  0  0
  8  9  1  0  0  0  0
  8 12  1  0  0  0  0
  8 13  1  0  0  0  0
  8 14  1  0  0  0  0
  9 10  1  0  0  0  0
  9 16  1  0  0  0  0
  9 28  1  0  0  0  0
 10 11  1  0  0  0  0
 10 18  1  0  0  0  0
 10 23  1  0  0  0  0
 11 12  1  0  0  0  0
 11 17  1  0  0  0  0
 11 29  1  0  0  0  0
 12 24  1  0  0  0  0
 12 30  1  0  0  0  0
 13 15  1  0  0  0  0
 13 31  1  0  0  0  0
 13 32  1  0  0  0  0
 14 20  1  0  0  0  0
 14 33  1  0  0  0  0
 15 19  1  0  0  0  0
 15 20  1  0  0  0  0
 16 19  1  0  0  0  0
 16 34  1  0  0  0  0
 16 35  1  0  0  0  0
 17 21  1  0  0  0  0
 17 25  1  0  0  0  0
 17 26  1  0  0  0  0
 18 22  1  0  0  0  0
 18 36  1  0  0  0  0
 18 37  1  0  0  0  0
 19 38  1  0  0  0  0
 19 39  1  0  0  0  0
 20 27  2  0  0  0  0
 21 22  1  0  0  0  0
 21 40  1  0  0  0  0
 21 41  1  0  0  0  0
 22 42  1  0  0  0  0
 22 43  1  0  0  0  0
 23 44  1  0  0  0  0
 25 45  1  0  0  0  0
 25 46  1  0  0  0  0
 25 47  1  0  0  0  0
 27 50  1  0  0  0  0
 27 51  1  0  0  0  0
M  END
>  <PUBCHEM_COMPOUND_CID>
14160523

>  <PUBCHEM_COMPOUND_CANONICALIZED>
1

>  <PUBCHEM_CACTVS_COMPLEXITY>
761

>  <PUBCHEM_CACTVS_HBOND_ACCEPTOR>
7

>  <PUBCHEM_CACTVS_HBOND_DONOR>
4

>  <PUBCHEM_CACTVS_ROTATABLE_BOND>
3

>  <PUBCHEM_CACTVS_SUBSKEYS>
AAADceB4OAAAAAAAAAAAAAAAAAAAAYMAAAAwYAAABgAAAGDAAAAAGgAACAAAD1SggAICCAAAAgCIAgjSiAAAAAAgAAAAAAEAAAgAFBIAAQAAQAAFgAAAEAHK7vTPgAAAAAAAAADAAAYAACAAAYQADAAAAA==

>  <PUBCHEM_IUPAC_INCHI>
InChI=1S/C20H26O7/c1-10-14(22)20-8-19(10,27)7-4-11(20)18(9-21)6-3-5-17(2,16(25)26)13(18)12(20)15(23)24/h9,11-14,22,27H,1,3-8H2,2H3,(H,23,24)(H,25,26)

>  <PUBCHEM_IUPAC_INCHIKEY>
ODFFXPNOCMSXHG-UHFFFAOYSA-N

>  <PUBCHEM_XLOGP3_AA>
-0.4

>  <PUBCHEM_EXACT_MASS>
378.168

>  <PUBCHEM_MOLECULAR_FORMULA>
C20H26O7

>  <PUBCHEM_MOLECULAR_WEIGHT>
378.421

>  <PUBCHEM_OPENEYE_CAN_SMILES>
CC1(CCCC2(C1C(C34C2CCC(C3)(C(=C)C4O)O)C(=O)O)C=O)C(=O)O

>  <PUBCHEM_OPENEYE_ISO_SMILES>
CC1(CCCC2(C1C(C34C2CCC(C3)(C(=C)C4O)O)C(=O)O)C=O)C(=O)O

>  <PUBCHEM_CACTVS_TPSA>
132

>  <PUBCHEM_MONOISOTOPIC_WEIGHT>
378.168

>  <PUBCHEM_TOTAL_CHARGE>
0

>  <PUBCHEM_HEAVY_ATOM_COUNT>
27

>  <PUBCHEM_ATOM_DEF_STEREO_COUNT>
0

>  <PUBCHEM_ATOM_UDEF_STEREO_COUNT>
8

>  <PUBCHEM_BOND_DEF_STEREO_COUNT>
0

>  <PUBCHEM_BOND_UDEF_STEREO_COUNT>
0

>  <PUBCHEM_ISOTOPIC_ATOM_COUNT>
0

>  <PUBCHEM_COMPONENT_COUNT>
1

>  <PUBCHEM_CACTVS_TAUTO_COUNT>
1

>  <PUBCHEM_COORDINATE_TYPE>
1
5
255

>  <PUBCHEM_BONDANNOTATIONS>
14  1  3
10  23  3
11  17  3
12  24  3
17  25  3
15  2  3
8  13  3
9  16  3

$$$$
