14188404
 OpenBabel06101807152D

 45 48  0  0  0  0  0  0  0  0999 V2000
    6.1940   -2.3139    0.0000 O   0  0  0  0  0  0  0  0  0  0  0  0
    8.3380   -0.2454    0.0000 O   0  0  0  0  0  0  0  0  0  0  0  0
    2.7044   -1.4096    0.0000 O   0  0  0  0  0  0  0  0  0  0  0  0
   10.3295   -0.6465    0.0000 O   0  0  0  0  0  0  0  0  0  0  0  0
    7.0508    0.9136    0.0000 O   0  0  0  0  0  0  0  0  0  0  0  0
   10.9775   -2.5896    0.0000 O   0  0  0  0  0  0  0  0  0  0  0  0
    5.6966   -0.7832    0.0000 C   0  0  0  0  0  0  0  0  0  0  0  0
    6.6907   -0.7806    0.0000 C   0  0  0  0  0  0  0  0  0  0  0  0
    6.9997   -1.7317    0.0000 C   0  0  0  0  0  0  0  0  0  0  0  0
    5.3902   -1.7289    0.0000 C   0  0  0  0  0  0  0  0  0  0  0  0
    7.9778   -1.9396    0.0000 C   0  0  0  0  0  0  0  0  0  0  0  0
    4.0007   -0.2121    0.0000 C   0  0  0  0  0  0  0  0  0  0  0  0
    5.0150   -0.0037    0.0000 C   0  0  0  0  0  0  0  0  0  0  0  0
    8.6470   -1.1965    0.0000 C   0  0  0  0  0  0  0  0  0  0  0  0
    4.3810   -1.9606    0.0000 C   0  0  0  0  0  0  0  0  0  0  0  0
    3.6816   -1.1971    0.0000 C   0  0  0  0  0  0  0  0  0  0  0  0
    7.3598   -0.0375    0.0000 C   0  0  0  0  0  0  0  0  0  0  0  0
    3.3338    0.5331    0.0000 C   0  0  0  0  0  0  0  0  0  0  0  0
    8.2844   -2.9351    0.0000 C   0  0  0  0  0  0  0  0  0  0  0  0
    9.6690   -1.3973    0.0000 C   0  0  0  0  0  0  0  0  0  0  0  0
    9.9986   -2.3854    0.0000 C   0  0  0  0  0  0  0  0  0  0  0  0
    9.3016   -3.1595    0.0000 C   0  0  0  0  0  0  0  0  0  0  0  0
    3.6457    1.4832    0.0000 C   0  0  0  0  0  0  0  0  0  0  0  0
    2.9788    2.2284    0.0000 C   0  0  0  0  0  0  0  0  0  0  0  0
    3.2906    3.1785    0.0000 C   0  0  0  0  0  0  0  0  0  0  0  0
    2.0000    2.0234    0.0000 C   0  0  0  0  0  0  0  0  0  0  0  0
   11.3100   -0.8430    0.0000 C   0  0  0  0  0  0  0  0  0  0  0  0
    5.2129    0.5839    0.0000 H   0  0  0  0  0  0  0  0  0  0  0  0
    4.1968   -2.5526    0.0000 H   0  0  0  0  0  0  0  0  0  0  0  0
    2.7873    0.8258    0.0000 H   0  0  0  0  0  0  0  0  0  0  0  0
    2.9506    0.0457    0.0000 H   0  0  0  0  0  0  0  0  0  0  0  0
    7.8642   -3.3910    0.0000 H   0  0  0  0  0  0  0  0  0  0  0  0
    9.4909   -3.7499    0.0000 H   0  0  0  0  0  0  0  0  0  0  0  0
    4.2525    1.6103    0.0000 H   0  0  0  0  0  0  0  0  0  0  0  0
    2.5156   -2.0002    0.0000 H   0  0  0  0  0  0  0  0  0  0  0  0
    3.8797    2.9851    0.0000 H   0  0  0  0  0  0  0  0  0  0  0  0
    1.8729    2.6302    0.0000 H   0  0  0  0  0  0  0  0  0  0  0  0
    1.3932    1.8963    0.0000 H   0  0  0  0  0  0  0  0  0  0  0  0
    2.1271    1.4165    0.0000 H   0  0  0  0  0  0  0  0  0  0  0  0
    3.4840    3.7676    0.0000 H   0  0  0  0  0  0  0  0  0  0  0  0
    2.7015    3.3718    0.0000 H   0  0  0  0  0  0  0  0  0  0  0  0
   11.1714   -3.1785    0.0000 H   0  0  0  0  0  0  0  0  0  0  0  0
   11.1881   -1.4510    0.0000 H   0  0  0  0  0  0  0  0  0  0  0  0
   11.9179   -0.9649    0.0000 H   0  0  0  0  0  0  0  0  0  0  0  0
   11.4319   -0.2351    0.0000 H   0  0  0  0  0  0  0  0  0  0  0  0
  1  9  1  0  0  0  0
  1 10  1  0  0  0  0
  2 14  1  0  0  0  0
  2 17  1  0  0  0  0
  3 16  1  0  0  0  0
  3 35  1  0  0  0  0
  4 20  1  0  0  0  0
  4 27  1  0  0  0  0
  5 17  2  0  0  0  0
  6 21  1  0  0  0  0
  6 42  1  0  0  0  0
  7  8  1  0  0  0  0
  7 10  2  0  0  0  0
  7 13  1  0  0  0  0
  8  9  2  0  0  0  0
  8 17  1  0  0  0  0
  9 11  1  0  0  0  0
 10 15  1  0  0  0  0
 11 14  2  0  0  0  0
 11 19  1  0  0  0  0
 12 13  2  0  0  0  0
 12 16  1  0  0  0  0
 12 18  1  0  0  0  0
 13 28  1  0  0  0  0
 14 20  1  0  0  0  0
 15 16  2  0  0  0  0
 15 29  1  0  0  0  0
 18 23  1  0  0  0  0
 18 30  1  0  0  0  0
 18 31  1  0  0  0  0
 19 22  2  0  0  0  0
 19 32  1  0  0  0  0
 20 21  2  0  0  0  0
 21 22  1  0  0  0  0
 22 33  1  0  0  0  0
 23 24  2  0  0  0  0
 23 34  1  0  0  0  0
 24 25  1  0  0  0  0
 24 26  1  0  0  0  0
 25 36  1  0  0  0  0
 25 40  1  0  0  0  0
 25 41  1  0  0  0  0
 26 37  1  0  0  0  0
 26 38  1  0  0  0  0
 26 39  1  0  0  0  0
 27 43  1  0  0  0  0
 27 44  1  0  0  0  0
 27 45  1  0  0  0  0
M  END
>  <PUBCHEM_COMPOUND_CID>
14188404

>  <PUBCHEM_COMPOUND_CANONICALIZED>
1

>  <PUBCHEM_CACTVS_COMPLEXITY>
600

>  <PUBCHEM_CACTVS_HBOND_ACCEPTOR>
6

>  <PUBCHEM_CACTVS_HBOND_DONOR>
2

>  <PUBCHEM_CACTVS_ROTATABLE_BOND>
3

>  <PUBCHEM_CACTVS_SUBSKEYS>
AAADceB4OAAAAAAAAAAAAAAAAAAAASAAAAA0YIAAAAAAAEiR9AAAGgAACAAADASAmAIyDsAABkCIAqDSCAACCAAkIAAIiAEGiMgNJzaONRqCe2Ol4BULuYfL7PzOoAADCAAIQABAAAYQABCAAAAAAAAAAA==

>  <PUBCHEM_IUPAC_OPENEYE_NAME>
3,9-dihydroxy-4-methoxy-8-(3-methylbut-2-enyl)benzofuro[3,2-c]chromen-6-one

>  <PUBCHEM_IUPAC_CAS_NAME>
3,9-dihydroxy-4-methoxy-8-(3-methylbut-2-enyl)-6-benzofuro[3,2-c][1]benzopyranone

>  <PUBCHEM_IUPAC_NAME>
3,9-dihydroxy-4-methoxy-8-(3-methylbut-2-enyl)-[1]benzofuro[3,2-c]chromen-6-one

>  <PUBCHEM_IUPAC_SYSTEMATIC_NAME>
4-methoxy-8-(3-methylbut-2-enyl)-3,9-bis(oxidanyl)-[1]benzofuro[3,2-c]chromen-6-one

>  <PUBCHEM_IUPAC_TRADITIONAL_NAME>
3,9-dihydroxy-4-methoxy-8-(3-methylbut-2-enyl)benzofuro[3,2-c]chromen-6-one

>  <PUBCHEM_IUPAC_INCHI>
InChI=1S/C21H18O6/c1-10(2)4-5-11-8-13-16(9-15(11)23)26-18-12-6-7-14(22)20(25-3)19(12)27-21(24)17(13)18/h4,6-9,22-23H,5H2,1-3H3

>  <PUBCHEM_IUPAC_INCHIKEY>
HTBLUBGREJMDMP-UHFFFAOYSA-N

>  <PUBCHEM_XLOGP3_AA>
4.7

>  <PUBCHEM_EXACT_MASS>
366.11

>  <PUBCHEM_MOLECULAR_FORMULA>
C21H18O6

>  <PUBCHEM_MOLECULAR_WEIGHT>
366.369

>  <PUBCHEM_OPENEYE_CAN_SMILES>
CC(=CCC1=C(C=C2C(=C1)C3=C(O2)C4=C(C(=C(C=C4)O)OC)OC3=O)O)C

>  <PUBCHEM_OPENEYE_ISO_SMILES>
CC(=CCC1=C(C=C2C(=C1)C3=C(O2)C4=C(C(=C(C=C4)O)OC)OC3=O)O)C

>  <PUBCHEM_CACTVS_TPSA>
89.1

>  <PUBCHEM_MONOISOTOPIC_WEIGHT>
366.11

>  <PUBCHEM_TOTAL_CHARGE>
0

>  <PUBCHEM_HEAVY_ATOM_COUNT>
27

>  <PUBCHEM_ATOM_DEF_STEREO_COUNT>
0

>  <PUBCHEM_ATOM_UDEF_STEREO_COUNT>
0

>  <PUBCHEM_BOND_DEF_STEREO_COUNT>
0

>  <PUBCHEM_BOND_UDEF_STEREO_COUNT>
0

>  <PUBCHEM_ISOTOPIC_ATOM_COUNT>
0

>  <PUBCHEM_COMPONENT_COUNT>
1

>  <PUBCHEM_CACTVS_TAUTO_COUNT>
15

>  <PUBCHEM_COORDINATE_TYPE>
1
5
255

>  <PUBCHEM_BONDANNOTATIONS>
1  10  8
1  9  8
10  15  8
11  14  8
11  19  8
12  13  8
12  16  8
14  20  8
15  16  8
19  22  8
2  14  8
2  17  8
20  21  8
21  22  8
7  10  8
7  13  8
7  8  8
8  17  8
8  9  8
9  11  8

$$$$
