141999
 OpenBabel06101807152D

 29 29  0  0  1  0  0  0  0  0999 V2000
    3.0000   -2.3450    0.0000 O   0  0  0  0  0  0  0  0  0  0  0  0
    3.0000    0.6550    0.0000 C   0  0  3  0  0  0  0  0  0  0  0  0
    3.0000    1.6550    0.0000 C   0  0  0  0  0  0  0  0  0  0  0  0
    2.1340    0.1550    0.0000 C   0  0  0  0  0  0  0  0  0  0  0  0
    2.1340   -0.8450    0.0000 C   0  0  0  0  0  0  0  0  0  0  0  0
    3.8660    0.1550    0.0000 C   0  0  0  0  0  0  0  0  0  0  0  0
    3.0000   -1.3450    0.0000 C   0  0  3  0  0  0  0  0  0  0  0  0
    3.0000    2.6550    0.0000 C   0  0  0  0  0  0  0  0  0  0  0  0
    4.0000    1.6550    0.0000 C   0  0  0  0  0  0  0  0  0  0  0  0
    2.0000    1.6550    0.0000 C   0  0  0  0  0  0  0  0  0  0  0  0
    3.8660   -0.8450    0.0000 C   0  0  0  0  0  0  0  0  0  0  0  0
    3.5369    0.9650    0.0000 H   0  0  0  0  0  0  0  0  0  0  0  0
    1.9219    0.7376    0.0000 H   0  0  0  0  0  0  0  0  0  0  0  0
    1.5234    0.0473    0.0000 H   0  0  0  0  0  0  0  0  0  0  0  0
    1.5234   -0.7373    0.0000 H   0  0  0  0  0  0  0  0  0  0  0  0
    1.9219   -1.4276    0.0000 H   0  0  0  0  0  0  0  0  0  0  0  0
    4.4030    0.4650    0.0000 H   0  0  0  0  0  0  0  0  0  0  0  0
    3.5369   -1.6550    0.0000 H   0  0  0  0  0  0  0  0  0  0  0  0
    4.0000    1.0350    0.0000 H   0  0  0  0  0  0  0  0  0  0  0  0
    4.6200    1.6550    0.0000 H   0  0  0  0  0  0  0  0  0  0  0  0
    4.0000    2.2750    0.0000 H   0  0  0  0  0  0  0  0  0  0  0  0
    2.0000    2.2750    0.0000 H   0  0  0  0  0  0  0  0  0  0  0  0
    1.3800    1.6550    0.0000 H   0  0  0  0  0  0  0  0  0  0  0  0
    2.0000    1.0350    0.0000 H   0  0  0  0  0  0  0  0  0  0  0  0
    3.6200    2.6550    0.0000 H   0  0  0  0  0  0  0  0  0  0  0  0
    3.0000    3.2750    0.0000 H   0  0  0  0  0  0  0  0  0  0  0  0
    2.3800    2.6550    0.0000 H   0  0  0  0  0  0  0  0  0  0  0  0
    4.4030   -1.1550    0.0000 H   0  0  0  0  0  0  0  0  0  0  0  0
    2.4631   -2.6550    0.0000 H   0  0  0  0  0  0  0  0  0  0  0  0
  1  7  1  0  0  0  0
  1 29  1  0  0  0  0
  2  3  1  0  0  0  0
  2  4  1  0  0  0  0
  2  6  1  0  0  0  0
  2 12  1  0  0  0  0
  3  8  1  0  0  0  0
  3  9  1  0  0  0  0
  3 10  1  0  0  0  0
  4  5  1  0  0  0  0
  4 13  1  0  0  0  0
  4 14  1  0  0  0  0
  5  7  1  0  0  0  0
  5 15  1  0  0  0  0
  5 16  1  0  0  0  0
  6 11  2  0  0  0  0
  6 17  1  0  0  0  0
  7 11  1  0  0  0  0
  7 18  1  0  0  0  0
  8 25  1  0  0  0  0
  8 26  1  0  0  0  0
  8 27  1  0  0  0  0
  9 19  1  0  0  0  0
  9 20  1  0  0  0  0
  9 21  1  0  0  0  0
 10 22  1  0  0  0  0
 10 23  1  0  0  0  0
 10 24  1  0  0  0  0
 11 28  1  0  0  0  0
M  END
>  <PUBCHEM_COMPOUND_CID>
141999

>  <PUBCHEM_COMPOUND_CANONICALIZED>
1

>  <PUBCHEM_CACTVS_COMPLEXITY>
153

>  <PUBCHEM_CACTVS_HBOND_ACCEPTOR>
1

>  <PUBCHEM_CACTVS_HBOND_DONOR>
1

>  <PUBCHEM_CACTVS_ROTATABLE_BOND>
1

>  <PUBCHEM_CACTVS_SUBSKEYS>
AAADceBwIAAAAAAAAAAAAAAAAAAAAAAAAAAgAAAAAAAAAAAAAAAAGgAACAAADxSggAICAAAAAgCAACBCAAAAAAAgAAAICAAAAAgAFAIAAQAAUAAEgAAIEAOAwFAPgAAAAAAAAAAAAAAAAAAAAAAAAAAAAA==

>  <PUBCHEM_IUPAC_OPENEYE_NAME>
4-tert-butylcyclohex-2-en-1-ol

>  <PUBCHEM_IUPAC_CAS_NAME>
4-tert-butyl-1-cyclohex-2-enol

>  <PUBCHEM_IUPAC_NAME>
4-tert-butylcyclohex-2-en-1-ol

>  <PUBCHEM_IUPAC_SYSTEMATIC_NAME>
4-tert-butylcyclohex-2-en-1-ol

>  <PUBCHEM_IUPAC_TRADITIONAL_NAME>
4-tert-butylcyclohex-2-en-1-ol

>  <PUBCHEM_IUPAC_INCHI>
InChI=1S/C10H18O/c1-10(2,3)8-4-6-9(11)7-5-8/h4,6,8-9,11H,5,7H2,1-3H3

>  <PUBCHEM_IUPAC_INCHIKEY>
NGXNAIZTJAUMGV-UHFFFAOYSA-N

>  <PUBCHEM_XLOGP3_AA>
2.5

>  <PUBCHEM_EXACT_MASS>
154.136

>  <PUBCHEM_MOLECULAR_FORMULA>
C10H18O

>  <PUBCHEM_MOLECULAR_WEIGHT>
154.253

>  <PUBCHEM_OPENEYE_CAN_SMILES>
CC(C)(C)C1CCC(C=C1)O

>  <PUBCHEM_OPENEYE_ISO_SMILES>
CC(C)(C)C1CCC(C=C1)O

>  <PUBCHEM_CACTVS_TPSA>
20.2

>  <PUBCHEM_MONOISOTOPIC_WEIGHT>
154.136

>  <PUBCHEM_TOTAL_CHARGE>
0

>  <PUBCHEM_HEAVY_ATOM_COUNT>
11

>  <PUBCHEM_ATOM_DEF_STEREO_COUNT>
0

>  <PUBCHEM_ATOM_UDEF_STEREO_COUNT>
2

>  <PUBCHEM_BOND_DEF_STEREO_COUNT>
0

>  <PUBCHEM_BOND_UDEF_STEREO_COUNT>
0

>  <PUBCHEM_ISOTOPIC_ATOM_COUNT>
0

>  <PUBCHEM_COMPONENT_COUNT>
1

>  <PUBCHEM_CACTVS_TAUTO_COUNT>
1

>  <PUBCHEM_COORDINATE_TYPE>
1
5
255

>  <PUBCHEM_BONDANNOTATIONS>
7  1  3
2  3  3

$$$$
