14228836
 OpenBabel06101807152D

 64 66  0  0  1  0  0  0  0  0999 V2000
    4.6356    8.1579    0.0000 P   0  0  3  0  0  0  0  0  0  0  0  0
    6.1256   10.8315    0.0000 O   0  0  0  0  0  0  0  0  0  0  0  0
    4.3613    4.6557    0.0000 O   0  0  0  0  0  0  0  0  0  0  0  0
    4.2289    9.0714    0.0000 O   0  0  0  0  0  0  0  0  0  0  0  0
    3.5566   11.1405    0.0000 O   0  0  0  0  0  0  0  0  0  0  0  0
    5.0423    7.2443    0.0000 O   0  0  0  0  0  0  0  0  0  0  0  0
    6.5826    5.9830    0.0000 O   0  0  0  0  0  0  0  0  0  0  0  0
    6.8100    3.8193    0.0000 O   0  0  0  0  0  0  0  0  0  0  0  0
    7.3989    9.1759    0.0000 O   0  0  0  0  0  0  0  0  0  0  0  0
    3.7220    7.7511    0.0000 O   0  0  0  0  0  0  0  0  0  0  0  0
    5.5491    8.5646    0.0000 O   0  0  0  0  0  0  0  0  0  0  0  0
    7.0487   12.4193    0.0000 O   0  0  0  0  0  0  0  0  0  0  0  0
    3.1283    3.2946    0.0000 O   0  0  0  0  0  0  0  0  0  0  0  0
    5.3166   15.4193    0.0000 O   0  0  0  0  0  0  0  0  0  0  0  0
    4.1988    0.0000    0.0000 O   0  0  0  0  0  0  0  0  0  0  0  0
    5.3166   12.4193    0.0000 N   0  0  0  0  0  0  0  0  0  0  0  0
    4.8225    2.9344    0.0000 N   0  0  0  0  0  0  0  0  0  0  0  0
    6.1827   13.9193    0.0000 N   0  0  0  0  0  0  0  0  0  0  0  0
    3.6635    1.6473    0.0000 N   0  0  0  0  0  0  0  0  0  0  0  0
    0.5369    7.8646    0.0000 N   0  0  0  0  0  0  0  0  0  0  0  0
    4.8166    9.8804    0.0000 C   0  0  3  0  0  0  0  0  0  0  0  0
    4.5076   10.8315    0.0000 C   0  0  3  0  0  0  0  0  0  0  0  0
    5.8166    9.8804    0.0000 C   0  0  3  0  0  0  0  0  0  0  0  0
    5.3166   11.4193    0.0000 C   0  0  3  0  0  0  0  0  0  0  0  0
    4.8613    5.5218    0.0000 C   0  0  3  0  0  0  0  0  0  0  0  0
    5.8394    5.3139    0.0000 C   0  0  3  0  0  0  0  0  0  0  0  0
    5.9440    4.3193    0.0000 C   0  0  3  0  0  0  0  0  0  0  0  0
    5.0304    3.9126    0.0000 C   0  0  3  0  0  0  0  0  0  0  0  0
    4.4545    6.4353    0.0000 C   0  0  0  0  0  0  0  0  0  0  0  0
    6.4044    9.0714    0.0000 C   0  0  0  0  0  0  0  0  0  0  0  0
    6.1827   12.9193    0.0000 C   0  0  0  0  0  0  0  0  0  0  0  0
    4.4506   12.9193    0.0000 C   0  0  0  0  0  0  0  0  0  0  0  0
    3.8714    2.6254    0.0000 C   0  0  0  0  0  0  0  0  0  0  0  0
    5.5656    2.2653    0.0000 C   0  0  0  0  0  0  0  0  0  0  0  0
    4.4506   13.9193    0.0000 C   0  0  0  0  0  0  0  0  0  0  0  0
    5.3577    1.2872    0.0000 C   0  0  0  0  0  0  0  0  0  0  0  0
    5.3166   14.4193    0.0000 C   0  0  0  0  0  0  0  0  0  0  0  0
    4.4067    0.9781    0.0000 C   0  0  0  0  0  0  0  0  0  0  0  0
    4.2043    9.9774    0.0000 H   0  0  0  0  0  0  0  0  0  0  0  0
    4.4106   11.4439    0.0000 H   0  0  0  0  0  0  0  0  0  0  0  0
    6.4290    9.9774    0.0000 H   0  0  0  0  0  0  0  0  0  0  0  0
    4.7642   11.7007    0.0000 H   0  0  0  0  0  0  0  0  0  0  0  0
    4.2421    5.5542    0.0000 H   0  0  0  0  0  0  0  0  0  0  0  0
    6.4182    5.0917    0.0000 H   0  0  0  0  0  0  0  0  0  0  0  0
    5.9115    3.7002    0.0000 H   0  0  0  0  0  0  0  0  0  0  0  0
    4.4315    3.7521    0.0000 H   0  0  0  0  0  0  0  0  0  0  0  0
    4.0239    6.8813    0.0000 H   0  0  0  0  0  0  0  0  0  0  0  0
    3.9405    6.0886    0.0000 H   0  0  0  0  0  0  0  0  0  0  0  0
    5.8472    8.7996    0.0000 H   0  0  0  0  0  0  0  0  0  0  0  0
    6.5753    8.4754    0.0000 H   0  0  0  0  0  0  0  0  0  0  0  0
    3.0958   10.7256    0.0000 H   0  0  0  0  0  0  0  0  0  0  0  0
    7.1722    5.7914    0.0000 H   0  0  0  0  0  0  0  0  0  0  0  0
    7.3469    4.1293    0.0000 H   0  0  0  0  0  0  0  0  0  0  0  0
    3.9137   12.6093    0.0000 H   0  0  0  0  0  0  0  0  0  0  0  0
    6.1553    2.4569    0.0000 H   0  0  0  0  0  0  0  0  0  0  0  0
    7.7634    8.6744    0.0000 H   0  0  0  0  0  0  0  0  0  0  0  0
    6.7196   14.2293    0.0000 H   0  0  0  0  0  0  0  0  0  0  0  0
    3.9137   14.2293    0.0000 H   0  0  0  0  0  0  0  0  0  0  0  0
    3.2204    8.1156    0.0000 H   0  0  0  0  0  0  0  0  0  0  0  0
    3.0739    1.4557    0.0000 H   0  0  0  0  0  0  0  0  0  0  0  0
    5.8185    0.8723    0.0000 H   0  0  0  0  0  0  0  0  0  0  0  0
    1.0739    8.1746    0.0000 H   0  0  0  0  0  0  0  0  0  0  0  0
    0.0000    8.1746    0.0000 H   0  0  0  0  0  0  0  0  0  0  0  0
    0.5369    7.2446    0.0000 H   0  0  0  0  0  0  0  0  0  0  0  0
  1  4  1  0  0  0  0
  1  6  1  0  0  0  0
  1 10  1  0  0  0  0
  1 11  2  0  0  0  0
  2 23  1  0  0  0  0
  2 24  1  0  0  0  0
  3 25  1  0  0  0  0
  3 28  1  0  0  0  0
  4 21  1  0  0  0  0
  5 22  1  0  0  0  0
  5 51  1  0  0  0  0
  6 29  1  0  0  0  0
  7 26  1  0  0  0  0
  7 52  1  0  0  0  0
  8 27  1  0  0  0  0
  8 53  1  0  0  0  0
  9 30  1  0  0  0  0
  9 56  1  0  0  0  0
 10 59  1  0  0  0  0
 12 31  2  0  0  0  0
 13 33  2  0  0  0  0
 14 37  2  0  0  0  0
 15 38  2  0  0  0  0
 16 24  1  0  0  0  0
 16 31  1  0  0  0  0
 16 32  1  0  0  0  0
 17 28  1  0  0  0  0
 17 33  1  0  0  0  0
 17 34  1  0  0  0  0
 18 31  1  0  0  0  0
 18 37  1  0  0  0  0
 18 57  1  0  0  0  0
 19 33  1  0  0  0  0
 19 38  1  0  0  0  0
 19 60  1  0  0  0  0
 20 62  1  0  0  0  0
 20 63  1  0  0  0  0
 20 64  1  0  0  0  0
 21 22  1  0  0  0  0
 21 23  1  0  0  0  0
 21 39  1  0  0  0  0
 22 24  1  0  0  0  0
 22 40  1  0  0  0  0
 23 30  1  0  0  0  0
 23 41  1  0  0  0  0
 24 42  1  0  0  0  0
 25 26  1  0  0  0  0
 25 29  1  0  0  0  0
 25 43  1  0  0  0  0
 26 27  1  0  0  0  0
 26 44  1  0  0  0  0
 27 28  1  0  0  0  0
 27 45  1  0  0  0  0
 28 46  1  0  0  0  0
 29 47  1  0  0  0  0
 29 48  1  0  0  0  0
 30 49  1  0  0  0  0
 30 50  1  0  0  0  0
 32 35  2  0  0  0  0
 32 54  1  0  0  0  0
 34 36  2  0  0  0  0
 34 55  1  0  0  0  0
 35 37  1  0  0  0  0
 35 58  1  0  0  0  0
 36 38  1  0  0  0  0
 36 61  1  0  0  0  0
M  END
>  <PUBCHEM_COMPOUND_CID>
14228836

>  <PUBCHEM_COMPOUND_CANONICALIZED>
1

>  <PUBCHEM_CACTVS_COMPLEXITY>
1070

>  <PUBCHEM_CACTVS_HBOND_ACCEPTOR>
15

>  <PUBCHEM_CACTVS_HBOND_DONOR>
8

>  <PUBCHEM_CACTVS_ROTATABLE_BOND>
8

>  <PUBCHEM_CACTVS_SUBSKEYS>
AAADceB7vAIAAAAAAAAAAAAAAAAAASJAAAAgQAAAAAAAAAAAAAAAHgAQCCAACBThgAYBAAPABxCIQCFWUICAAAAAAgAIAAAIAECDEAIAgAAOQAAPFyITAMDwMAIAAAAAAAAAAAAAAAAAAAAAAAAAAAAAAA==

>  <PUBCHEM_IUPAC_OPENEYE_NAME>
ammonia;[5-(2,4-dioxopyrimidin-1-yl)-3,4-dihydroxy-tetrahydrofuran-2-yl]methyl [5-(2,4-dioxopyrimidin-1-yl)-4-hydroxy-2-(hydroxymethyl)tetrahydrofuran-3-yl] hydrogen phosphate

>  <PUBCHEM_IUPAC_CAS_NAME>
ammonia;[5-(2,4-dioxo-1-pyrimidinyl)-3,4-dihydroxy-2-oxolanyl]methyl [5-(2,4-dioxo-1-pyrimidinyl)-4-hydroxy-2-(hydroxymethyl)-3-oxolanyl] hydrogen phosphate

>  <PUBCHEM_IUPAC_NAME>
azane;[5-(2,4-dioxopyrimidin-1-yl)-3,4-dihydroxyoxolan-2-yl]methyl [5-(2,4-dioxopyrimidin-1-yl)-4-hydroxy-2-(hydroxymethyl)oxolan-3-yl] hydrogen phosphate

>  <PUBCHEM_IUPAC_SYSTEMATIC_NAME>
azane;[5-[2,4-bis(oxidanylidene)pyrimidin-1-yl]-3,4-bis(oxidanyl)oxolan-2-yl]methyl [5-[2,4-bis(oxidanylidene)pyrimidin-1-yl]-2-(hydroxymethyl)-4-oxidanyl-oxolan-3-yl] hydrogen phosphate

>  <PUBCHEM_IUPAC_TRADITIONAL_NAME>
ammonia;[5-(2,4-diketopyrimidin-1-yl)-3,4-dihydroxy-tetrahydrofuran-2-yl]methyl [5-(2,4-diketopyrimidin-1-yl)-4-hydroxy-2-methylol-tetrahydrofuran-3-yl] hydrogen phosphate

>  <PUBCHEM_IUPAC_INCHI>
InChI=1S/C18H23N4O14P.H3N/c23-5-7-14(13(28)16(34-7)22-4-2-10(25)20-18(22)30)36-37(31,32)33-6-8-11(26)12(27)15(35-8)21-3-1-9(24)19-17(21)29;/h1-4,7-8,11-16,23,26-28H,5-6H2,(H,31,32)(H,19,24,29)(H,20,25,30);1H3

>  <PUBCHEM_IUPAC_INCHIKEY>
VPXDHZMLJOJKOX-UHFFFAOYSA-N

>  <PUBCHEM_EXACT_MASS>
567.121

>  <PUBCHEM_MOLECULAR_FORMULA>
C18H26N5O14P

>  <PUBCHEM_MOLECULAR_WEIGHT>
567.401

>  <PUBCHEM_OPENEYE_CAN_SMILES>
C1=CN(C(=O)NC1=O)C2C(C(C(O2)COP(=O)(O)OC3C(OC(C3O)N4C=CC(=O)NC4=O)CO)O)O.N

>  <PUBCHEM_OPENEYE_ISO_SMILES>
C1=CN(C(=O)NC1=O)C2C(C(C(O2)COP(=O)(O)OC3C(OC(C3O)N4C=CC(=O)NC4=O)CO)O)O.N

>  <PUBCHEM_CACTVS_TPSA>
255

>  <PUBCHEM_MONOISOTOPIC_WEIGHT>
567.121

>  <PUBCHEM_TOTAL_CHARGE>
0

>  <PUBCHEM_HEAVY_ATOM_COUNT>
38

>  <PUBCHEM_ATOM_DEF_STEREO_COUNT>
0

>  <PUBCHEM_ATOM_UDEF_STEREO_COUNT>
8

>  <PUBCHEM_BOND_DEF_STEREO_COUNT>
0

>  <PUBCHEM_BOND_UDEF_STEREO_COUNT>
0

>  <PUBCHEM_ISOTOPIC_ATOM_COUNT>
0

>  <PUBCHEM_COMPONENT_COUNT>
2

>  <PUBCHEM_CACTVS_TAUTO_COUNT>
9

>  <PUBCHEM_COORDINATE_TYPE>
1
5
255

>  <PUBCHEM_BONDANNOTATIONS>
24  16  3
16  31  8
16  32  8
28  17  3
17  33  8
17  34  8
18  31  8
18  37  8
19  33  8
19  38  8
23  30  3
25  29  3
32  35  8
34  36  8
35  37  8
36  38  8
21  4  3
22  5  3
26  7  3
27  8  3

$$$$
