14235910
 OpenBabel06101807152D

 63 63  0  0  0  0  0  0  0  0999 V2000
    5.4641   -7.1900    0.0000 O   0  0  0  0  0  0  0  0  0  0  0  0
    2.0000   -7.1900    0.0000 O   0  0  0  0  0  0  0  0  0  0  0  0
    5.4641   -2.1900    0.0000 C   0  0  0  0  0  0  0  0  0  0  0  0
    5.4641   -1.1900    0.0000 C   0  0  0  0  0  0  0  0  0  0  0  0
    4.5981   -2.6900    0.0000 C   0  0  0  0  0  0  0  0  0  0  0  0
    5.4641    4.8100    0.0000 C   0  0  0  0  0  0  0  0  0  0  0  0
    5.4641    3.8100    0.0000 C   0  0  0  0  0  0  0  0  0  0  0  0
    6.3301   -0.6900    0.0000 C   0  0  0  0  0  0  0  0  0  0  0  0
    4.5981    5.3100    0.0000 C   0  0  0  0  0  0  0  0  0  0  0  0
    4.5981   -3.6900    0.0000 C   0  0  0  0  0  0  0  0  0  0  0  0
    6.3301    3.3100    0.0000 C   0  0  0  0  0  0  0  0  0  0  0  0
    6.3301    0.3100    0.0000 C   0  0  0  0  0  0  0  0  0  0  0  0
    4.5981    6.3100    0.0000 C   0  0  0  0  0  0  0  0  0  0  0  0
    6.3301    2.3100    0.0000 C   0  0  0  0  0  0  0  0  0  0  0  0
    3.7320   -4.1900    0.0000 C   0  0  0  0  0  0  0  0  0  0  0  0
    3.7320    6.8100    0.0000 C   0  0  0  0  0  0  0  0  0  0  0  0
    7.1962    0.8100    0.0000 C   0  0  0  0  0  0  0  0  0  0  0  0
    7.1962    1.8100    0.0000 C   0  0  0  0  0  0  0  0  0  0  0  0
    3.7320   -5.1900    0.0000 C   0  0  0  0  0  0  0  0  0  0  0  0
    3.7320    7.8100    0.0000 C   0  0  0  0  0  0  0  0  0  0  0  0
    2.8660   -5.6900    0.0000 C   0  0  0  0  0  0  0  0  0  0  0  0
    4.5981   -5.6900    0.0000 C   0  0  0  0  0  0  0  0  0  0  0  0
    4.5981   -6.6900    0.0000 C   0  0  0  0  0  0  0  0  0  0  0  0
    2.8660   -6.6900    0.0000 C   0  0  0  0  0  0  0  0  0  0  0  0
    3.7320   -7.1900    0.0000 C   0  0  0  0  0  0  0  0  0  0  0  0
    5.6762   -2.7726    0.0000 H   0  0  0  0  0  0  0  0  0  0  0  0
    6.0747   -2.0823    0.0000 H   0  0  0  0  0  0  0  0  0  0  0  0
    5.2520   -0.6074    0.0000 H   0  0  0  0  0  0  0  0  0  0  0  0
    4.8535   -1.2977    0.0000 H   0  0  0  0  0  0  0  0  0  0  0  0
    4.3860   -2.1074    0.0000 H   0  0  0  0  0  0  0  0  0  0  0  0
    3.9875   -2.7977    0.0000 H   0  0  0  0  0  0  0  0  0  0  0  0
    6.0747    4.7023    0.0000 H   0  0  0  0  0  0  0  0  0  0  0  0
    5.6762    5.3926    0.0000 H   0  0  0  0  0  0  0  0  0  0  0  0
    4.8535    3.9177    0.0000 H   0  0  0  0  0  0  0  0  0  0  0  0
    5.2520    3.2274    0.0000 H   0  0  0  0  0  0  0  0  0  0  0  0
    6.5422   -1.2726    0.0000 H   0  0  0  0  0  0  0  0  0  0  0  0
    6.9407   -0.5823    0.0000 H   0  0  0  0  0  0  0  0  0  0  0  0
    3.9875    5.4177    0.0000 H   0  0  0  0  0  0  0  0  0  0  0  0
    4.3860    4.7274    0.0000 H   0  0  0  0  0  0  0  0  0  0  0  0
    4.8101   -4.2726    0.0000 H   0  0  0  0  0  0  0  0  0  0  0  0
    5.2087   -3.5823    0.0000 H   0  0  0  0  0  0  0  0  0  0  0  0
    6.9407    3.2023    0.0000 H   0  0  0  0  0  0  0  0  0  0  0  0
    6.5422    3.8926    0.0000 H   0  0  0  0  0  0  0  0  0  0  0  0
    5.2087    6.2023    0.0000 H   0  0  0  0  0  0  0  0  0  0  0  0
    4.8101    6.8926    0.0000 H   0  0  0  0  0  0  0  0  0  0  0  0
    6.1181    0.8926    0.0000 H   0  0  0  0  0  0  0  0  0  0  0  0
    5.7196    0.2023    0.0000 H   0  0  0  0  0  0  0  0  0  0  0  0
    5.7196    2.4177    0.0000 H   0  0  0  0  0  0  0  0  0  0  0  0
    6.1181    1.7274    0.0000 H   0  0  0  0  0  0  0  0  0  0  0  0
    3.5200   -3.6074    0.0000 H   0  0  0  0  0  0  0  0  0  0  0  0
    3.1215   -4.2977    0.0000 H   0  0  0  0  0  0  0  0  0  0  0  0
    3.1215    6.9177    0.0000 H   0  0  0  0  0  0  0  0  0  0  0  0
    3.5200    6.2274    0.0000 H   0  0  0  0  0  0  0  0  0  0  0  0
    7.7331    0.5000    0.0000 H   0  0  0  0  0  0  0  0  0  0  0  0
    7.7331    2.1200    0.0000 H   0  0  0  0  0  0  0  0  0  0  0  0
    4.3520    7.8100    0.0000 H   0  0  0  0  0  0  0  0  0  0  0  0
    3.7320    8.4300    0.0000 H   0  0  0  0  0  0  0  0  0  0  0  0
    3.1120    7.8100    0.0000 H   0  0  0  0  0  0  0  0  0  0  0  0
    2.3291   -5.3800    0.0000 H   0  0  0  0  0  0  0  0  0  0  0  0
    5.1350   -5.3800    0.0000 H   0  0  0  0  0  0  0  0  0  0  0  0
    3.7320   -7.8100    0.0000 H   0  0  0  0  0  0  0  0  0  0  0  0
    5.4641   -7.8100    0.0000 H   0  0  0  0  0  0  0  0  0  0  0  0
    2.0000   -7.8100    0.0000 H   0  0  0  0  0  0  0  0  0  0  0  0
  1 23  1  0  0  0  0
  1 62  1  0  0  0  0
  2 24  1  0  0  0  0
  2 63  1  0  0  0  0
  3  4  1  0  0  0  0
  3  5  1  0  0  0  0
  3 26  1  0  0  0  0
  3 27  1  0  0  0  0
  4  8  1  0  0  0  0
  4 28  1  0  0  0  0
  4 29  1  0  0  0  0
  5 10  1  0  0  0  0
  5 30  1  0  0  0  0
  5 31  1  0  0  0  0
  6  7  1  0  0  0  0
  6  9  1  0  0  0  0
  6 32  1  0  0  0  0
  6 33  1  0  0  0  0
  7 11  1  0  0  0  0
  7 34  1  0  0  0  0
  7 35  1  0  0  0  0
  8 12  1  0  0  0  0
  8 36  1  0  0  0  0
  8 37  1  0  0  0  0
  9 13  1  0  0  0  0
  9 38  1  0  0  0  0
  9 39  1  0  0  0  0
 10 15  1  0  0  0  0
 10 40  1  0  0  0  0
 10 41  1  0  0  0  0
 11 14  1  0  0  0  0
 11 42  1  0  0  0  0
 11 43  1  0  0  0  0
 12 17  1  0  0  0  0
 12 46  1  0  0  0  0
 12 47  1  0  0  0  0
 13 16  1  0  0  0  0
 13 44  1  0  0  0  0
 13 45  1  0  0  0  0
 14 18  1  0  0  0  0
 14 48  1  0  0  0  0
 14 49  1  0  0  0  0
 15 19  1  0  0  0  0
 15 50  1  0  0  0  0
 15 51  1  0  0  0  0
 16 20  1  0  0  0  0
 16 52  1  0  0  0  0
 16 53  1  0  0  0  0
 17 18  2  0  0  0  0
 17 54  1  0  0  0  0
 18 55  1  0  0  0  0
 19 21  2  0  0  0  0
 19 22  1  0  0  0  0
 20 56  1  0  0  0  0
 20 57  1  0  0  0  0
 20 58  1  0  0  0  0
 21 24  1  0  0  0  0
 21 59  1  0  0  0  0
 22 23  2  0  0  0  0
 22 60  1  0  0  0  0
 23 25  1  0  0  0  0
 24 25  2  0  0  0  0
 25 61  1  0  0  0  0
M  END
>  <PUBCHEM_COMPOUND_CID>
14235910

>  <PUBCHEM_COMPOUND_CANONICALIZED>
1

>  <PUBCHEM_CACTVS_COMPLEXITY>
303

>  <PUBCHEM_CACTVS_HBOND_ACCEPTOR>
2

>  <PUBCHEM_CACTVS_HBOND_DONOR>
2

>  <PUBCHEM_CACTVS_ROTATABLE_BOND>
15

>  <PUBCHEM_CACTVS_SUBSKEYS>
AAADcfB4MAAAAAAAAAAAAAAAAAAAAAAAAAAwAAAAAAAAAAABAAAAGgAACAAADASAmAAyBoAAAgCAAiBCAAACAAAgIAAIiAAGCIgIJyKCERKAcAAlwBUImAeA4PQOAAABCAAAAAAAAAIQAAAAAAAAAAAAAA==

>  <PUBCHEM_IUPAC_OPENEYE_NAME>
5-[(Z)-heptadec-8-enyl]benzene-1,3-diol

>  <PUBCHEM_IUPAC_CAS_NAME>
5-[(Z)-heptadec-8-enyl]benzene-1,3-diol

>  <PUBCHEM_IUPAC_NAME>
5-[(Z)-heptadec-8-enyl]benzene-1,3-diol

>  <PUBCHEM_IUPAC_SYSTEMATIC_NAME>
5-[(Z)-heptadec-8-enyl]benzene-1,3-diol

>  <PUBCHEM_IUPAC_TRADITIONAL_NAME>
5-[(Z)-heptadec-8-enyl]resorcinol

>  <PUBCHEM_IUPAC_INCHI>
InChI=1S/C23H38O2/c1-2-3-4-5-6-7-8-9-10-11-12-13-14-15-16-17-21-18-22(24)20-23(25)19-21/h9-10,18-20,24-25H,2-8,11-17H2,1H3/b10-9-

>  <PUBCHEM_IUPAC_INCHIKEY>
DQSWQRFGZIJUCI-KTKRTIGZSA-N

>  <PUBCHEM_XLOGP3_AA>
9.2

>  <PUBCHEM_EXACT_MASS>
346.287

>  <PUBCHEM_MOLECULAR_FORMULA>
C23H38O2

>  <PUBCHEM_MOLECULAR_WEIGHT>
346.555

>  <PUBCHEM_OPENEYE_CAN_SMILES>
CCCCCCCCC=CCCCCCCCC1=CC(=CC(=C1)O)O

>  <PUBCHEM_OPENEYE_ISO_SMILES>
CCCCCCCC/C=C\CCCCCCCC1=CC(=CC(=C1)O)O

>  <PUBCHEM_CACTVS_TPSA>
40.5

>  <PUBCHEM_MONOISOTOPIC_WEIGHT>
346.287

>  <PUBCHEM_TOTAL_CHARGE>
0

>  <PUBCHEM_HEAVY_ATOM_COUNT>
25

>  <PUBCHEM_ATOM_DEF_STEREO_COUNT>
0

>  <PUBCHEM_ATOM_UDEF_STEREO_COUNT>
0

>  <PUBCHEM_BOND_DEF_STEREO_COUNT>
1

>  <PUBCHEM_BOND_UDEF_STEREO_COUNT>
0

>  <PUBCHEM_ISOTOPIC_ATOM_COUNT>
0

>  <PUBCHEM_COMPONENT_COUNT>
1

>  <PUBCHEM_CACTVS_TAUTO_COUNT>
10

>  <PUBCHEM_COORDINATE_TYPE>
1
5
255

>  <PUBCHEM_BONDANNOTATIONS>
19  21  8
19  22  8
21  24  8
22  23  8
23  25  8
24  25  8

$$$$
