14251657
 OpenBabel06101807152D

 98100  0  0  1  0  0  0  0  0999 V2000
    5.4646   -4.6362    0.0000 O   0  0  0  0  0  0  0  0  0  0  0  0
    2.0000   -5.6362    0.0000 O   0  0  0  0  0  0  0  0  0  0  0  0
    4.5981   -4.1362    0.0000 C   0  0  3  0  0  0  0  0  0  0  0  0
    4.5981   -5.1362    0.0000 C   0  0  3  0  0  0  0  0  0  0  0  0
    3.7320   -3.6362    0.0000 C   0  0  0  0  0  0  0  0  0  0  0  0
    3.7320   -5.6362    0.0000 C   0  0  0  0  0  0  0  0  0  0  0  0
    2.8660   -4.1362    0.0000 C   0  0  0  0  0  0  0  0  0  0  0  0
    2.8660   -5.1362    0.0000 C   0  0  3  0  0  0  0  0  0  0  0  0
    4.5981   -6.1362    0.0000 C   0  0  0  0  0  0  0  0  0  0  0  0
    5.0981   -3.2701    0.0000 C   0  0  0  0  0  0  0  0  0  0  0  0
    2.8660   -3.1362    0.0000 C   0  0  0  0  0  0  0  0  0  0  0  0
    3.7320   -2.6362    0.0000 C   0  0  0  0  0  0  0  0  0  0  0  0
    6.0981   -3.2701    0.0000 C   0  0  0  0  0  0  0  0  0  0  0  0
    6.5981   -2.4041    0.0000 C   0  0  0  0  0  0  0  0  0  0  0  0
    6.0981   -1.5381    0.0000 C   0  0  0  0  0  0  0  0  0  0  0  0
    7.5981   -2.4041    0.0000 C   0  0  0  0  0  0  0  0  0  0  0  0
    8.0981   -1.5381    0.0000 C   0  0  0  0  0  0  0  0  0  0  0  0
    9.0981   -1.5381    0.0000 C   0  0  0  0  0  0  0  0  0  0  0  0
   19.5981    4.5241    0.0000 C   0  0  0  0  0  0  0  0  0  0  0  0
   20.0981    5.3901    0.0000 C   0  0  0  0  0  0  0  0  0  0  0  0
   19.5981    6.2562    0.0000 C   0  0  0  0  0  0  0  0  0  0  0  0
   18.5981    4.5241    0.0000 C   0  0  0  0  0  0  0  0  0  0  0  0
   18.5981    6.2562    0.0000 C   0  0  0  0  0  0  0  0  0  0  0  0
   18.0981    5.3901    0.0000 C   0  0  0  0  0  0  0  0  0  0  0  0
   20.4641    4.0241    0.0000 C   0  0  0  0  0  0  0  0  0  0  0  0
   19.5981    3.5241    0.0000 C   0  0  0  0  0  0  0  0  0  0  0  0
    9.5981   -0.6721    0.0000 C   0  0  0  0  0  0  0  0  0  0  0  0
   18.0981    3.6581    0.0000 C   0  0  0  0  0  0  0  0  0  0  0  0
   17.0981    5.3901    0.0000 C   0  0  0  0  0  0  0  0  0  0  0  0
    9.0981    0.1940    0.0000 C   0  0  0  0  0  0  0  0  0  0  0  0
   10.5981   -0.6721    0.0000 C   0  0  0  0  0  0  0  0  0  0  0  0
   17.0981    3.6581    0.0000 C   0  0  0  0  0  0  0  0  0  0  0  0
   16.5981    2.7920    0.0000 C   0  0  0  0  0  0  0  0  0  0  0  0
   11.0981    0.1940    0.0000 C   0  0  0  0  0  0  0  0  0  0  0  0
   17.0981    1.9260    0.0000 C   0  0  0  0  0  0  0  0  0  0  0  0
   15.5981    2.7920    0.0000 C   0  0  0  0  0  0  0  0  0  0  0  0
   12.0981    0.1940    0.0000 C   0  0  0  0  0  0  0  0  0  0  0  0
   15.0981    1.9260    0.0000 C   0  0  0  0  0  0  0  0  0  0  0  0
   12.5981    1.0600    0.0000 C   0  0  0  0  0  0  0  0  0  0  0  0
   14.0981    1.9260    0.0000 C   0  0  0  0  0  0  0  0  0  0  0  0
   13.5981    1.0600    0.0000 C   0  0  0  0  0  0  0  0  0  0  0  0
   14.0981    0.1940    0.0000 C   0  0  0  0  0  0  0  0  0  0  0  0
    3.3335   -6.1111    0.0000 H   0  0  0  0  0  0  0  0  0  0  0  0
    4.1306   -6.1111    0.0000 H   0  0  0  0  0  0  0  0  0  0  0  0
    2.6540   -3.5535    0.0000 H   0  0  0  0  0  0  0  0  0  0  0  0
    2.2554   -4.2438    0.0000 H   0  0  0  0  0  0  0  0  0  0  0  0
    2.8660   -5.7562    0.0000 H   0  0  0  0  0  0  0  0  0  0  0  0
    3.9781   -6.1362    0.0000 H   0  0  0  0  0  0  0  0  0  0  0  0
    4.5981   -6.7562    0.0000 H   0  0  0  0  0  0  0  0  0  0  0  0
    5.2181   -6.1362    0.0000 H   0  0  0  0  0  0  0  0  0  0  0  0
    4.7881   -2.7332    0.0000 H   0  0  0  0  0  0  0  0  0  0  0  0
    4.3520   -2.6362    0.0000 H   0  0  0  0  0  0  0  0  0  0  0  0
    3.7320   -2.0162    0.0000 H   0  0  0  0  0  0  0  0  0  0  0  0
    3.1120   -2.6362    0.0000 H   0  0  0  0  0  0  0  0  0  0  0  0
    3.1760   -2.5992    0.0000 H   0  0  0  0  0  0  0  0  0  0  0  0
    2.3291   -2.8262    0.0000 H   0  0  0  0  0  0  0  0  0  0  0  0
    2.5560   -3.6731    0.0000 H   0  0  0  0  0  0  0  0  0  0  0  0
    2.0000   -6.2562    0.0000 H   0  0  0  0  0  0  0  0  0  0  0  0
    6.4081   -3.8071    0.0000 H   0  0  0  0  0  0  0  0  0  0  0  0
    6.6350   -1.2281    0.0000 H   0  0  0  0  0  0  0  0  0  0  0  0
    5.7881   -1.0011    0.0000 H   0  0  0  0  0  0  0  0  0  0  0  0
    5.5611   -1.8481    0.0000 H   0  0  0  0  0  0  0  0  0  0  0  0
    7.9081   -2.9410    0.0000 H   0  0  0  0  0  0  0  0  0  0  0  0
    7.7881   -1.0011    0.0000 H   0  0  0  0  0  0  0  0  0  0  0  0
    9.4081   -2.0750    0.0000 H   0  0  0  0  0  0  0  0  0  0  0  0
   20.5730    4.9916    0.0000 H   0  0  0  0  0  0  0  0  0  0  0  0
   20.5730    5.7887    0.0000 H   0  0  0  0  0  0  0  0  0  0  0  0
   20.1807    6.4682    0.0000 H   0  0  0  0  0  0  0  0  0  0  0  0
   19.4904    6.8667    0.0000 H   0  0  0  0  0  0  0  0  0  0  0  0
   18.7057    6.8667    0.0000 H   0  0  0  0  0  0  0  0  0  0  0  0
   18.0155    6.4682    0.0000 H   0  0  0  0  0  0  0  0  0  0  0  0
   20.1541    3.4872    0.0000 H   0  0  0  0  0  0  0  0  0  0  0  0
   21.0010    3.7141    0.0000 H   0  0  0  0  0  0  0  0  0  0  0  0
   20.7741    4.5610    0.0000 H   0  0  0  0  0  0  0  0  0  0  0  0
   18.9781    3.5241    0.0000 H   0  0  0  0  0  0  0  0  0  0  0  0
   19.5981    2.9041    0.0000 H   0  0  0  0  0  0  0  0  0  0  0  0
   20.2181    3.5241    0.0000 H   0  0  0  0  0  0  0  0  0  0  0  0
   18.4081    3.1211    0.0000 H   0  0  0  0  0  0  0  0  0  0  0  0
   17.0981    6.0101    0.0000 H   0  0  0  0  0  0  0  0  0  0  0  0
   16.4781    5.3901    0.0000 H   0  0  0  0  0  0  0  0  0  0  0  0
   17.0981    4.7701    0.0000 H   0  0  0  0  0  0  0  0  0  0  0  0
    9.6350    0.5040    0.0000 H   0  0  0  0  0  0  0  0  0  0  0  0
    8.7881    0.7309    0.0000 H   0  0  0  0  0  0  0  0  0  0  0  0
    8.5611   -0.1160    0.0000 H   0  0  0  0  0  0  0  0  0  0  0  0
   10.9081   -1.2090    0.0000 H   0  0  0  0  0  0  0  0  0  0  0  0
   16.7881    4.1950    0.0000 H   0  0  0  0  0  0  0  0  0  0  0  0
   10.7881    0.7309    0.0000 H   0  0  0  0  0  0  0  0  0  0  0  0
   16.5611    1.6160    0.0000 H   0  0  0  0  0  0  0  0  0  0  0  0
   17.4081    1.3891    0.0000 H   0  0  0  0  0  0  0  0  0  0  0  0
   17.6350    2.2360    0.0000 H   0  0  0  0  0  0  0  0  0  0  0  0
   15.2881    3.3290    0.0000 H   0  0  0  0  0  0  0  0  0  0  0  0
   12.4081   -0.3430    0.0000 H   0  0  0  0  0  0  0  0  0  0  0  0
   15.4081    1.3891    0.0000 H   0  0  0  0  0  0  0  0  0  0  0  0
   12.2881    1.5969    0.0000 H   0  0  0  0  0  0  0  0  0  0  0  0
   13.7881    2.4630    0.0000 H   0  0  0  0  0  0  0  0  0  0  0  0
   13.5611   -0.1160    0.0000 H   0  0  0  0  0  0  0  0  0  0  0  0
   14.4081   -0.3430    0.0000 H   0  0  0  0  0  0  0  0  0  0  0  0
   14.6350    0.5040    0.0000 H   0  0  0  0  0  0  0  0  0  0  0  0
  1  3  1  0  0  0  0
  1  4  1  0  0  0  0
  2  8  1  0  0  0  0
  2 58  1  0  0  0  0
  3  4  1  0  0  0  0
  3  5  1  0  0  0  0
  3 10  1  0  0  0  0
  4  6  1  0  0  0  0
  4  9  1  0  0  0  0
  5  7  1  0  0  0  0
  5 11  1  0  0  0  0
  5 12  1  0  0  0  0
  6  8  1  0  0  0  0
  6 43  1  0  0  0  0
  6 44  1  0  0  0  0
  7  8  1  0  0  0  0
  7 45  1  0  0  0  0
  7 46  1  0  0  0  0
  8 47  1  0  0  0  0
  9 48  1  0  0  0  0
  9 49  1  0  0  0  0
  9 50  1  0  0  0  0
 10 13  2  0  0  0  0
 10 51  1  0  0  0  0
 11 55  1  0  0  0  0
 11 56  1  0  0  0  0
 11 57  1  0  0  0  0
 12 52  1  0  0  0  0
 12 53  1  0  0  0  0
 12 54  1  0  0  0  0
 13 14  1  0  0  0  0
 13 59  1  0  0  0  0
 14 15  1  0  0  0  0
 14 16  2  0  0  0  0
 15 60  1  0  0  0  0
 15 61  1  0  0  0  0
 15 62  1  0  0  0  0
 16 17  1  0  0  0  0
 16 63  1  0  0  0  0
 17 18  2  0  0  0  0
 17 64  1  0  0  0  0
 18 27  1  0  0  0  0
 18 65  1  0  0  0  0
 19 20  1  0  0  0  0
 19 22  1  0  0  0  0
 19 25  1  0  0  0  0
 19 26  1  0  0  0  0
 20 21  1  0  0  0  0
 20 66  1  0  0  0  0
 20 67  1  0  0  0  0
 21 23  1  0  0  0  0
 21 68  1  0  0  0  0
 21 69  1  0  0  0  0
 22 24  2  0  0  0  0
 22 28  1  0  0  0  0
 23 24  1  0  0  0  0
 23 70  1  0  0  0  0
 23 71  1  0  0  0  0
 24 29  1  0  0  0  0
 25 72  1  0  0  0  0
 25 73  1  0  0  0  0
 25 74  1  0  0  0  0
 26 75  1  0  0  0  0
 26 76  1  0  0  0  0
 26 77  1  0  0  0  0
 27 30  1  0  0  0  0
 27 31  2  0  0  0  0
 28 32  2  0  0  0  0
 28 78  1  0  0  0  0
 29 79  1  0  0  0  0
 29 80  1  0  0  0  0
 29 81  1  0  0  0  0
 30 82  1  0  0  0  0
 30 83  1  0  0  0  0
 30 84  1  0  0  0  0
 31 34  1  0  0  0  0
 31 85  1  0  0  0  0
 32 33  1  0  0  0  0
 32 86  1  0  0  0  0
 33 35  1  0  0  0  0
 33 36  2  0  0  0  0
 34 37  2  0  0  0  0
 34 87  1  0  0  0  0
 35 88  1  0  0  0  0
 35 89  1  0  0  0  0
 35 90  1  0  0  0  0
 36 38  1  0  0  0  0
 36 91  1  0  0  0  0
 37 39  1  0  0  0  0
 37 92  1  0  0  0  0
 38 40  2  0  0  0  0
 38 93  1  0  0  0  0
 39 41  2  0  0  0  0
 39 94  1  0  0  0  0
 40 41  1  0  0  0  0
 40 95  1  0  0  0  0
 41 42  1  0  0  0  0
 42 96  1  0  0  0  0
 42 97  1  0  0  0  0
 42 98  1  0  0  0  0
M  END
>  <PUBCHEM_COMPOUND_CID>
14251657

>  <PUBCHEM_COMPOUND_CANONICALIZED>
1

>  <PUBCHEM_CACTVS_COMPLEXITY>
1300

>  <PUBCHEM_CACTVS_HBOND_ACCEPTOR>
2

>  <PUBCHEM_CACTVS_HBOND_DONOR>
1

>  <PUBCHEM_CACTVS_ROTATABLE_BOND>
10

>  <PUBCHEM_CACTVS_SUBSKEYS>
AAADcfB8MAAAAAAAAAAAAAAAEgAAAAAAAAAwQAAABIAAAAAAAAAAGgAACAAADlSggAICAAAABgCAAiBCAAAAAAAgAAAICAAAAAgIFAIAIQACUAAFwAAIoAPA4PQPgAAAAAAAAABCAAYQADAAAAAAAAAAAA==

>  <PUBCHEM_IUPAC_OPENEYE_NAME>
1,5,5-trimethyl-6-[(1E,3E,5E,7E,9E,11E,13E,15E,17E)-3,7,12,16-tetramethyl-18-(2,6,6-trimethylcyclohexen-1-yl)octadeca-1,3,5,7,9,11,13,15,17-nonaenyl]-7-oxabicyclo[4.1.0]heptan-3-ol

>  <PUBCHEM_IUPAC_CAS_NAME>
1,5,5-trimethyl-6-[(1E,3E,5E,7E,9E,11E,13E,15E,17E)-3,7,12,16-tetramethyl-18-(2,6,6-trimethyl-1-cyclohexenyl)octadeca-1,3,5,7,9,11,13,15,17-nonaenyl]-7-oxabicyclo[4.1.0]heptan-3-ol

>  <PUBCHEM_IUPAC_NAME>
1,5,5-trimethyl-6-[(1E,3E,5E,7E,9E,11E,13E,15E,17E)-3,7,12,16-tetramethyl-18-(2,6,6-trimethylcyclohexen-1-yl)octadeca-1,3,5,7,9,11,13,15,17-nonaenyl]-7-oxabicyclo[4.1.0]heptan-3-ol

>  <PUBCHEM_IUPAC_SYSTEMATIC_NAME>
1,5,5-trimethyl-6-[(1E,3E,5E,7E,9E,11E,13E,15E,17E)-3,7,12,16-tetramethyl-18-(2,6,6-trimethylcyclohexen-1-yl)octadeca-1,3,5,7,9,11,13,15,17-nonaenyl]-7-oxabicyclo[4.1.0]heptan-3-ol

>  <PUBCHEM_IUPAC_TRADITIONAL_NAME>
1,5,5-trimethyl-6-[(1E,3E,5E,7E,9E,11E,13E,15E,17E)-3,7,12,16-tetramethyl-18-(2,6,6-trimethylcyclohexen-1-yl)octadeca-1,3,5,7,9,11,13,15,17-nonaenyl]-7-oxabicyclo[4.1.0]heptan-3-ol

>  <PUBCHEM_IUPAC_INCHI>
InChI=1S/C40H56O2/c1-30(18-13-20-32(3)23-24-36-34(5)22-15-26-37(36,6)7)16-11-12-17-31(2)19-14-21-33(4)25-27-40-38(8,9)28-35(41)29-39(40,10)42-40/h11-14,16-21,23-25,27,35,41H,15,22,26,28-29H2,1-10H3/b12-11+,18-13+,19-14+,24-23+,27-25+,30-16+,31-17+,32-20+,33-21+

>  <PUBCHEM_IUPAC_INCHIKEY>
CMOLUFWHADIFGS-JEFJXCMXSA-N

>  <PUBCHEM_XLOGP3_AA>
11.7

>  <PUBCHEM_EXACT_MASS>
568.428

>  <PUBCHEM_MOLECULAR_FORMULA>
C40H56O2

>  <PUBCHEM_MOLECULAR_WEIGHT>
568.886

>  <PUBCHEM_OPENEYE_CAN_SMILES>
CC1=C(C(CCC1)(C)C)C=CC(=CC=CC(=CC=CC=C(C)C=CC=C(C)C=CC23C(CC(CC2(O3)C)O)(C)C)C)C

>  <PUBCHEM_OPENEYE_ISO_SMILES>
CC1=C(C(CCC1)(C)C)/C=C/C(=C/C=C/C(=C/C=C/C=C(\C)/C=C/C=C(\C)/C=C/C23C(CC(CC2(O3)C)O)(C)C)/C)/C

>  <PUBCHEM_CACTVS_TPSA>
32.8

>  <PUBCHEM_MONOISOTOPIC_WEIGHT>
568.428

>  <PUBCHEM_TOTAL_CHARGE>
0

>  <PUBCHEM_HEAVY_ATOM_COUNT>
42

>  <PUBCHEM_ATOM_DEF_STEREO_COUNT>
0

>  <PUBCHEM_ATOM_UDEF_STEREO_COUNT>
3

>  <PUBCHEM_BOND_DEF_STEREO_COUNT>
9

>  <PUBCHEM_BOND_UDEF_STEREO_COUNT>
0

>  <PUBCHEM_ISOTOPIC_ATOM_COUNT>
0

>  <PUBCHEM_COMPONENT_COUNT>
1

>  <PUBCHEM_CACTVS_TAUTO_COUNT>
1

>  <PUBCHEM_COORDINATE_TYPE>
1
5
255

>  <PUBCHEM_BONDANNOTATIONS>
8  2  3
3  10  3
4  9  3

$$$$
