14258997
 OpenBabel06101807152D

 42 44  0  0  0  0  0  0  0  0999 V2000
    6.3580   -0.6126    0.0000 O   0  0  0  0  0  0  0  0  0  0  0  0
    8.1282    1.4462    0.0000 O   0  0  0  0  0  0  0  0  0  0  0  0
    2.8660    1.4221    0.0000 O   0  0  0  0  0  0  0  0  0  0  0  0
    2.8660   -0.5779    0.0000 O   0  0  0  0  0  0  0  0  0  0  0  0
    4.5981    2.4221    0.0000 O   0  0  0  0  0  0  0  0  0  0  0  0
    4.5981   -1.5779    0.0000 O   0  0  0  0  0  0  0  0  0  0  0  0
    6.3465    2.4567    0.0000 O   0  0  0  0  0  0  0  0  0  0  0  0
   10.7205   -2.1121    0.0000 O   0  0  0  0  0  0  0  0  0  0  0  0
    5.4641    0.9221    0.0000 C   0  0  0  0  0  0  0  0  0  0  0  0
    5.4641   -0.0779    0.0000 C   0  0  0  0  0  0  0  0  0  0  0  0
    7.2641   -0.0987    0.0000 C   0  0  0  0  0  0  0  0  0  0  0  0
    4.5981    1.4221    0.0000 C   0  0  0  0  0  0  0  0  0  0  0  0
    6.3580    1.4567    0.0000 C   0  0  0  0  0  0  0  0  0  0  0  0
    7.2641    0.9429    0.0000 C   0  0  0  0  0  0  0  0  0  0  0  0
    4.5981   -0.5779    0.0000 C   0  0  0  0  0  0  0  0  0  0  0  0
    3.7320    0.9221    0.0000 C   0  0  0  0  0  0  0  0  0  0  0  0
    3.7320   -0.0779    0.0000 C   0  0  0  0  0  0  0  0  0  0  0  0
    8.1282   -0.6021    0.0000 C   0  0  0  0  0  0  0  0  0  0  0  0
    8.1244   -1.6021    0.0000 C   0  0  0  0  0  0  0  0  0  0  0  0
    8.9962   -0.1054    0.0000 C   0  0  0  0  0  0  0  0  0  0  0  0
    8.9884   -2.1054    0.0000 C   0  0  0  0  0  0  0  0  0  0  0  0
    9.8602   -0.6088    0.0000 C   0  0  0  0  0  0  0  0  0  0  0  0
    9.8564   -1.6087    0.0000 C   0  0  0  0  0  0  0  0  0  0  0  0
    8.1244    2.4462    0.0000 C   0  0  0  0  0  0  0  0  0  0  0  0
    2.0000    0.9221    0.0000 C   0  0  0  0  0  0  0  0  0  0  0  0
    2.8660   -1.5779    0.0000 C   0  0  0  0  0  0  0  0  0  0  0  0
    7.5862   -1.9100    0.0000 H   0  0  0  0  0  0  0  0  0  0  0  0
    8.9985    0.5146    0.0000 H   0  0  0  0  0  0  0  0  0  0  0  0
    8.9860   -2.7254    0.0000 H   0  0  0  0  0  0  0  0  0  0  0  0
   10.3984   -0.3008    0.0000 H   0  0  0  0  0  0  0  0  0  0  0  0
    4.0611    2.7321    0.0000 H   0  0  0  0  0  0  0  0  0  0  0  0
    4.0611   -1.8879    0.0000 H   0  0  0  0  0  0  0  0  0  0  0  0
    8.7443    2.4486    0.0000 H   0  0  0  0  0  0  0  0  0  0  0  0
    8.1220    3.0662    0.0000 H   0  0  0  0  0  0  0  0  0  0  0  0
    7.5044    2.4438    0.0000 H   0  0  0  0  0  0  0  0  0  0  0  0
    1.6900    1.4590    0.0000 H   0  0  0  0  0  0  0  0  0  0  0  0
    1.4631    0.6121    0.0000 H   0  0  0  0  0  0  0  0  0  0  0  0
    2.3100    0.3851    0.0000 H   0  0  0  0  0  0  0  0  0  0  0  0
    2.2460   -1.5779    0.0000 H   0  0  0  0  0  0  0  0  0  0  0  0
    2.8660   -2.1979    0.0000 H   0  0  0  0  0  0  0  0  0  0  0  0
    3.4860   -1.5779    0.0000 H   0  0  0  0  0  0  0  0  0  0  0  0
   10.7181   -2.7321    0.0000 H   0  0  0  0  0  0  0  0  0  0  0  0
  1 10  1  0  0  0  0
  1 11  1  0  0  0  0
  2 14  1  0  0  0  0
  2 24  1  0  0  0  0
  3 16  1  0  0  0  0
  3 25  1  0  0  0  0
  4 17  1  0  0  0  0
  4 26  1  0  0  0  0
  5 12  1  0  0  0  0
  5 31  1  0  0  0  0
  6 15  1  0  0  0  0
  6 32  1  0  0  0  0
  7 13  2  0  0  0  0
  8 23  1  0  0  0  0
  8 42  1  0  0  0  0
  9 10  1  0  0  0  0
  9 12  2  0  0  0  0
  9 13  1  0  0  0  0
 10 15  2  0  0  0  0
 11 14  2  0  0  0  0
 11 18  1  0  0  0  0
 12 16  1  0  0  0  0
 13 14  1  0  0  0  0
 15 17  1  0  0  0  0
 16 17  2  0  0  0  0
 18 19  2  0  0  0  0
 18 20  1  0  0  0  0
 19 21  1  0  0  0  0
 19 27  1  0  0  0  0
 20 22  2  0  0  0  0
 20 28  1  0  0  0  0
 21 23  2  0  0  0  0
 21 29  1  0  0  0  0
 22 23  1  0  0  0  0
 22 30  1  0  0  0  0
 24 33  1  0  0  0  0
 24 34  1  0  0  0  0
 24 35  1  0  0  0  0
 25 36  1  0  0  0  0
 25 37  1  0  0  0  0
 25 38  1  0  0  0  0
 26 39  1  0  0  0  0
 26 40  1  0  0  0  0
 26 41  1  0  0  0  0
M  END
>  <PUBCHEM_COMPOUND_CID>
14258997

>  <PUBCHEM_COMPOUND_CANONICALIZED>
1

>  <PUBCHEM_CACTVS_COMPLEXITY>
553

>  <PUBCHEM_CACTVS_HBOND_ACCEPTOR>
8

>  <PUBCHEM_CACTVS_HBOND_DONOR>
3

>  <PUBCHEM_CACTVS_ROTATABLE_BOND>
4

>  <PUBCHEM_CACTVS_SUBSKEYS>
AAADceB4PAAAAAAAAAAAAAAAAAAAAAAAAAAwYIAAAAAAAACBQAAAGgAACAAADASAmAIyBoAABgCIAqBSAAICCAAkIAAIiAFGiMgNJzaGNR6CeWOl4BULuQfK7LzOIQABCAAIQABCAAIQABCAAAAAAAAAAA==

>  <PUBCHEM_IUPAC_OPENEYE_NAME>
5,8-dihydroxy-2-(4-hydroxyphenyl)-3,6,7-trimethoxy-chromen-4-one

>  <PUBCHEM_IUPAC_CAS_NAME>
5,8-dihydroxy-2-(4-hydroxyphenyl)-3,6,7-trimethoxy-1-benzopyran-4-one

>  <PUBCHEM_IUPAC_NAME>
5,8-dihydroxy-2-(4-hydroxyphenyl)-3,6,7-trimethoxychromen-4-one

>  <PUBCHEM_IUPAC_SYSTEMATIC_NAME>
2-(4-hydroxyphenyl)-3,6,7-trimethoxy-5,8-bis(oxidanyl)chromen-4-one

>  <PUBCHEM_IUPAC_TRADITIONAL_NAME>
5,8-dihydroxy-2-(4-hydroxyphenyl)-3,6,7-trimethoxy-chromone

>  <PUBCHEM_IUPAC_INCHI>
InChI=1S/C18H16O8/c1-23-16-11(20)10-12(21)17(24-2)18(25-3)13(22)15(10)26-14(16)8-4-6-9(19)7-5-8/h4-7,19,21-22H,1-3H3

>  <PUBCHEM_IUPAC_INCHIKEY>
PQOFRNYPEFLMSD-UHFFFAOYSA-N

>  <PUBCHEM_XLOGP3_AA>
2.8

>  <PUBCHEM_EXACT_MASS>
360.085

>  <PUBCHEM_MOLECULAR_FORMULA>
C18H16O8

>  <PUBCHEM_MOLECULAR_WEIGHT>
360.318

>  <PUBCHEM_OPENEYE_CAN_SMILES>
COC1=C(C2=C(C(=C1OC)O)OC(=C(C2=O)OC)C3=CC=C(C=C3)O)O

>  <PUBCHEM_OPENEYE_ISO_SMILES>
COC1=C(C2=C(C(=C1OC)O)OC(=C(C2=O)OC)C3=CC=C(C=C3)O)O

>  <PUBCHEM_CACTVS_TPSA>
115

>  <PUBCHEM_MONOISOTOPIC_WEIGHT>
360.085

>  <PUBCHEM_TOTAL_CHARGE>
0

>  <PUBCHEM_HEAVY_ATOM_COUNT>
26

>  <PUBCHEM_ATOM_DEF_STEREO_COUNT>
0

>  <PUBCHEM_ATOM_UDEF_STEREO_COUNT>
0

>  <PUBCHEM_BOND_DEF_STEREO_COUNT>
0

>  <PUBCHEM_BOND_UDEF_STEREO_COUNT>
0

>  <PUBCHEM_ISOTOPIC_ATOM_COUNT>
0

>  <PUBCHEM_COMPONENT_COUNT>
1

>  <PUBCHEM_CACTVS_TAUTO_COUNT>
43

>  <PUBCHEM_COORDINATE_TYPE>
1
5
255

>  <PUBCHEM_BONDANNOTATIONS>
1  10  8
1  11  8
10  15  8
11  14  8
12  16  8
13  14  8
15  17  8
16  17  8
18  19  8
18  20  8
19  21  8
20  22  8
21  23  8
22  23  8
9  10  8
9  12  8
9  13  8

$$$$
