14262763
 OpenBabel06101807152D

 52 56  0  0  1  0  0  0  0  0999 V2000
    3.8201    3.3228    0.0000 O   0  0  0  0  0  0  0  0  0  0  0  0
    5.3100    2.4394    0.0000 O   0  0  0  0  0  0  0  0  0  0  0  0
    4.2841   -2.9895    0.0000 C   0  0  3  0  0  0  0  0  0  0  0  0
    3.2841   -2.9895    0.0000 C   0  0  3  0  0  0  0  0  0  0  0  0
    3.7841   -3.8561    0.0000 C   0  0  3  0  0  0  0  0  0  0  0  0
    3.7841   -1.4507    0.0000 C   0  0  3  0  0  0  0  0  0  0  0  0
    2.9180   -0.9507    0.0000 C   0  0  3  0  0  0  0  0  0  0  0  0
    4.5931   -2.0385    0.0000 C   0  0  0  0  0  0  0  0  0  0  0  0
    2.9750   -2.0385    0.0000 C   0  0  0  0  0  0  0  0  0  0  0  0
    2.5123   -2.6534    0.0000 C   0  0  0  0  0  0  0  0  0  0  0  0
    2.9180    0.0493    0.0000 C   0  0  3  0  0  0  0  0  0  0  0  0
    4.6501   -0.9507    0.0000 C   0  0  0  0  0  0  0  0  0  0  0  0
    5.2841   -2.9895    0.0000 C   0  0  0  0  0  0  0  0  0  0  0  0
    3.7841    0.5493    0.0000 C   0  0  3  0  0  0  0  0  0  0  0  0
    4.6501    0.0493    0.0000 C   0  0  0  0  0  0  0  0  0  0  0  0
    2.0080    0.5562    0.0000 C   0  0  0  0  0  0  0  0  0  0  0  0
    3.8001    1.5908    0.0000 C   0  0  3  0  0  0  0  0  0  0  0  0
    2.0520   -0.4507    0.0000 C   0  0  0  0  0  0  0  0  0  0  0  0
    2.0000    1.5978    0.0000 C   0  0  0  0  0  0  0  0  0  0  0  0
    2.9021    2.1186    0.0000 C   0  0  0  0  0  0  0  0  0  0  0  0
    4.8000    1.5792    0.0000 C   0  0  0  0  0  0  0  0  0  0  0  0
    4.3101    2.4510    0.0000 C   0  0  0  0  0  0  0  0  0  0  0  0
    2.7176   -3.2416    0.0000 H   0  0  0  0  0  0  0  0  0  0  0  0
    3.8736   -4.4696    0.0000 H   0  0  0  0  0  0  0  0  0  0  0  0
    2.3023   -0.8783    0.0000 H   0  0  0  0  0  0  0  0  0  0  0  0
    5.1595   -2.2906    0.0000 H   0  0  0  0  0  0  0  0  0  0  0  0
    4.9031   -1.5015    0.0000 H   0  0  0  0  0  0  0  0  0  0  0  0
    2.6650   -1.5015    0.0000 H   0  0  0  0  0  0  0  0  0  0  0  0
    2.4086   -2.2906    0.0000 H   0  0  0  0  0  0  0  0  0  0  0  0
    1.9433   -2.4071    0.0000 H   0  0  0  0  0  0  0  0  0  0  0  0
    2.1710   -3.1710    0.0000 H   0  0  0  0  0  0  0  0  0  0  0  0
    4.8621   -1.5333    0.0000 H   0  0  0  0  0  0  0  0  0  0  0  0
    5.2607   -0.8430    0.0000 H   0  0  0  0  0  0  0  0  0  0  0  0
    5.2841   -3.6095    0.0000 H   0  0  0  0  0  0  0  0  0  0  0  0
    5.9041   -2.9895    0.0000 H   0  0  0  0  0  0  0  0  0  0  0  0
    5.2841   -2.3695    0.0000 H   0  0  0  0  0  0  0  0  0  0  0  0
    4.3234    0.8552    0.0000 H   0  0  0  0  0  0  0  0  0  0  0  0
    5.2607   -0.0584    0.0000 H   0  0  0  0  0  0  0  0  0  0  0  0
    4.8621    0.6319    0.0000 H   0  0  0  0  0  0  0  0  0  0  0  0
    1.3964    0.6575    0.0000 H   0  0  0  0  0  0  0  0  0  0  0  0
    1.8035   -0.0291    0.0000 H   0  0  0  0  0  0  0  0  0  0  0  0
    1.7420    0.0862    0.0000 H   0  0  0  0  0  0  0  0  0  0  0  0
    1.5151   -0.7607    0.0000 H   0  0  0  0  0  0  0  0  0  0  0  0
    2.3620   -0.9876    0.0000 H   0  0  0  0  0  0  0  0  0  0  0  0
    1.7864    2.1798    0.0000 H   0  0  0  0  0  0  0  0  0  0  0  0
    1.3900    1.4870    0.0000 H   0  0  0  0  0  0  0  0  0  0  0  0
    3.3030    2.5915    0.0000 H   0  0  0  0  0  0  0  0  0  0  0  0
    2.5048    2.5945    0.0000 H   0  0  0  0  0  0  0  0  0  0  0  0
    4.7929    0.9593    0.0000 H   0  0  0  0  0  0  0  0  0  0  0  0
    5.4200    1.5721    0.0000 H   0  0  0  0  0  0  0  0  0  0  0  0
    4.8072    2.1992    0.0000 H   0  0  0  0  0  0  0  0  0  0  0  0
    4.1363    3.8561    0.0000 H   0  0  0  0  0  0  0  0  0  0  0  0
  1 22  1  0  0  0  0
  1 52  1  0  0  0  0
  2 22  2  0  0  0  0
  3  4  1  0  0  0  0
  3  5  1  0  0  0  0
  3  8  1  0  0  0  0
  3 13  1  0  0  0  0
  4  5  1  0  0  0  0
  4  9  1  0  0  0  0
  4 23  1  0  0  0  0
  5 10  1  0  0  0  0
  5 24  1  0  0  0  0
  6  7  1  0  0  0  0
  6  8  1  0  0  0  0
  6  9  1  0  0  0  0
  6 12  1  0  0  0  0
  7 10  1  0  0  0  0
  7 11  1  0  0  0  0
  7 25  1  0  0  0  0
  8 26  1  0  0  0  0
  8 27  1  0  0  0  0
  9 28  1  0  0  0  0
  9 29  1  0  0  0  0
 10 30  1  0  0  0  0
 10 31  1  0  0  0  0
 11 14  1  0  0  0  0
 11 16  1  0  0  0  0
 11 18  1  0  0  0  0
 12 15  1  0  0  0  0
 12 32  1  0  0  0  0
 12 33  1  0  0  0  0
 13 34  1  0  0  0  0
 13 35  1  0  0  0  0
 13 36  1  0  0  0  0
 14 15  1  0  0  0  0
 14 17  1  0  0  0  0
 14 37  1  0  0  0  0
 15 38  1  0  0  0  0
 15 39  1  0  0  0  0
 16 19  1  0  0  0  0
 16 40  1  0  0  0  0
 16 41  1  0  0  0  0
 17 20  1  0  0  0  0
 17 21  1  0  0  0  0
 17 22  1  0  0  0  0
 18 42  1  0  0  0  0
 18 43  1  0  0  0  0
 18 44  1  0  0  0  0
 19 20  1  0  0  0  0
 19 45  1  0  0  0  0
 19 46  1  0  0  0  0
 20 47  1  0  0  0  0
 20 48  1  0  0  0  0
 21 49  1  0  0  0  0
 21 50  1  0  0  0  0
 21 51  1  0  0  0  0
M  END
>  <PUBCHEM_COMPOUND_CID>
14262763

>  <PUBCHEM_COMPOUND_CANONICALIZED>
1

>  <PUBCHEM_CACTVS_COMPLEXITY>
570

>  <PUBCHEM_CACTVS_HBOND_ACCEPTOR>
2

>  <PUBCHEM_CACTVS_HBOND_DONOR>
1

>  <PUBCHEM_CACTVS_ROTATABLE_BOND>
1

>  <PUBCHEM_CACTVS_SUBSKEYS>
AAADceB4MAAAAAAAAAAAAAAAGAAAAYAAAAAwYMGAAAAAAADAAAAAGgAACAAADwCAgAACCAAAAgAIAACQCAAAAAAAAAAAAAEAAAAAABIAAAAAQAAEAAAAAAGIyPCPgAAAAAAAAACAAAQAACAAAQAACAAAAA==

>  <PUBCHEM_IUPAC_INCHI>
InChI=1S/C20H30O2/c1-17-6-4-7-18(2,16(21)22)14(17)5-8-20-10-13-12(9-15(17)20)19(13,3)11-20/h12-15H,4-11H2,1-3H3,(H,21,22)

>  <PUBCHEM_IUPAC_INCHIKEY>
FLGAFUAMEXILLB-UHFFFAOYSA-N

>  <PUBCHEM_XLOGP3_AA>
5.6

>  <PUBCHEM_EXACT_MASS>
302.225

>  <PUBCHEM_MOLECULAR_FORMULA>
C20H30O2

>  <PUBCHEM_MOLECULAR_WEIGHT>
302.458

>  <PUBCHEM_OPENEYE_CAN_SMILES>
CC12CCCC(C1CCC34C2CC5C(C3)C5(C4)C)(C)C(=O)O

>  <PUBCHEM_OPENEYE_ISO_SMILES>
CC12CCCC(C1CCC34C2CC5C(C3)C5(C4)C)(C)C(=O)O

>  <PUBCHEM_CACTVS_TPSA>
37.3

>  <PUBCHEM_MONOISOTOPIC_WEIGHT>
302.225

>  <PUBCHEM_TOTAL_CHARGE>
0

>  <PUBCHEM_HEAVY_ATOM_COUNT>
22

>  <PUBCHEM_ATOM_DEF_STEREO_COUNT>
0

>  <PUBCHEM_ATOM_UDEF_STEREO_COUNT>
8

>  <PUBCHEM_BOND_DEF_STEREO_COUNT>
0

>  <PUBCHEM_BOND_UDEF_STEREO_COUNT>
0

>  <PUBCHEM_ISOTOPIC_ATOM_COUNT>
0

>  <PUBCHEM_COMPONENT_COUNT>
1

>  <PUBCHEM_CACTVS_TAUTO_COUNT>
1

>  <PUBCHEM_COORDINATE_TYPE>
1
5
255

>  <PUBCHEM_BONDANNOTATIONS>
11  18  3
14  15  3
17  21  3
3  13  3
4  9  3
5  10  3
6  7  3
7  10  3

$$$$
