14284670
 OpenBabel06101807152D

 52 55  0  0  1  0  0  0  0  0999 V2000
    6.9357   -3.2340    0.0000 O   0  0  0  0  0  0  0  0  0  0  0  0
    8.2960   -0.4704    0.0000 O   0  0  0  0  0  0  0  0  0  0  0  0
    7.5038   -3.1282    0.0000 O   0  0  0  0  0  0  0  0  0  0  0  0
    9.4704   -2.3994    0.0000 O   0  0  0  0  0  0  0  0  0  0  0  0
    8.4445   -4.0736    0.0000 O   0  0  0  0  0  0  0  0  0  0  0  0
    4.6912   -1.4363    0.0000 O   0  0  0  0  0  0  0  0  0  0  0  0
    8.9032    0.9955    0.0000 O   0  0  0  0  0  0  0  0  0  0  0  0
    3.4323   -0.4704    0.0000 O   0  0  0  0  0  0  0  0  0  0  0  0
    5.1680    2.8754    0.0000 O   0  0  0  0  0  0  0  0  0  0  0  0
    5.7272    3.0253    0.0000 O   0  0  0  0  0  0  0  0  0  0  0  0
    8.5259    3.6403    0.0000 O   0  0  0  0  0  0  0  0  0  0  0  0
    6.5474    4.1704    0.0000 O   0  0  0  0  0  0  0  0  0  0  0  0
    3.8851    3.4571    0.0000 O   0  0  0  0  0  0  0  0  0  0  0  0
    2.4367    2.0087    0.0000 O   0  0  0  0  0  0  0  0  0  0  0  0
    8.0372   -1.4363    0.0000 C   0  0  3  0  0  0  0  0  0  0  0  0
    7.3301   -2.1434    0.0000 C   0  0  3  0  0  0  0  0  0  0  0  0
    6.3642   -2.4022    0.0000 C   0  0  3  0  0  0  0  0  0  0  0  0
    8.4718   -2.3471    0.0000 C   0  0  3  0  0  0  0  0  0  0  0  0
    7.9445   -3.2076    0.0000 C   0  0  3  0  0  0  0  0  0  0  0  0
    5.3982   -2.1434    0.0000 C   0  0  0  0  0  0  0  0  0  0  0  0
    8.0372    0.4955    0.0000 C   0  0  0  0  0  0  0  0  0  0  0  0
    7.3301    1.2026    0.0000 C   0  0  0  0  0  0  0  0  0  0  0  0
    6.3642    1.4615    0.0000 C   0  0  0  0  0  0  0  0  0  0  0  0
    5.3982    1.2026    0.0000 C   0  0  0  0  0  0  0  0  0  0  0  0
    4.4323   -0.4704    0.0000 C   0  0  0  0  0  0  0  0  0  0  0  0
    4.6912    0.4955    0.0000 C   0  0  0  0  0  0  0  0  0  0  0  0
    8.0779    1.9278    0.0000 C   0  0  0  0  0  0  0  0  0  0  0  0
    6.0791    2.4633    0.0000 C   0  0  0  0  0  0  0  0  0  0  0  0
    5.1442    2.2128    0.0000 C   0  0  0  0  0  0  0  0  0  0  0  0
    3.6810    0.7496    0.0000 C   0  0  0  0  0  0  0  0  0  0  0  0
    7.8161    2.9359    0.0000 C   0  0  0  0  0  0  0  0  0  0  0  0
    6.8100    3.2055    0.0000 C   0  0  0  0  0  0  0  0  0  0  0  0
    4.1402    2.4902    0.0000 C   0  0  0  0  0  0  0  0  0  0  0  0
    3.4036    1.7536    0.0000 C   0  0  0  0  0  0  0  0  0  0  0  0
    8.6546   -1.3795    0.0000 H   0  0  0  0  0  0  0  0  0  0  0  0
    7.9214   -2.3298    0.0000 H   0  0  0  0  0  0  0  0  0  0  0  0
    6.0063   -2.9085    0.0000 H   0  0  0  0  0  0  0  0  0  0  0  0
    8.8162   -1.8316    0.0000 H   0  0  0  0  0  0  0  0  0  0  0  0
    7.6416   -3.7485    0.0000 H   0  0  0  0  0  0  0  0  0  0  0  0
    4.8363   -2.4054    0.0000 H   0  0  0  0  0  0  0  0  0  0  0  0
    5.7082   -1.6065    0.0000 H   0  0  0  0  0  0  0  0  0  0  0  0
    7.3961   -3.7388    0.0000 H   0  0  0  0  0  0  0  0  0  0  0  0
    9.7519   -2.9518    0.0000 H   0  0  0  0  0  0  0  0  0  0  0  0
    8.1345   -4.6106    0.0000 H   0  0  0  0  0  0  0  0  0  0  0  0
    8.6749    1.7604    0.0000 H   0  0  0  0  0  0  0  0  0  0  0  0
    3.2477    0.3061    0.0000 H   0  0  0  0  0  0  0  0  0  0  0  0
    4.8995    3.4343    0.0000 H   0  0  0  0  0  0  0  0  0  0  0  0
    5.6803    3.6435    0.0000 H   0  0  0  0  0  0  0  0  0  0  0  0
    9.1242    3.4775    0.0000 H   0  0  0  0  0  0  0  0  0  0  0  0
    6.9841    4.6106    0.0000 H   0  0  0  0  0  0  0  0  0  0  0  0
    3.2868    3.6199    0.0000 H   0  0  0  0  0  0  0  0  0  0  0  0
    2.0000    1.5686    0.0000 H   0  0  0  0  0  0  0  0  0  0  0  0
  1 17  1  0  0  0  0
  1 19  1  0  0  0  0
  2 15  1  0  0  0  0
  2 21  1  0  0  0  0
  3 16  1  0  0  0  0
  3 42  1  0  0  0  0
  4 18  1  0  0  0  0
  4 43  1  0  0  0  0
  5 19  1  0  0  0  0
  5 44  1  0  0  0  0
  6 20  1  0  0  0  0
  6 25  1  0  0  0  0
  7 21  2  0  0  0  0
  8 25  2  0  0  0  0
  9 28  1  0  0  0  0
  9 47  1  0  0  0  0
 10 29  1  0  0  0  0
 10 48  1  0  0  0  0
 11 31  1  0  0  0  0
 11 49  1  0  0  0  0
 12 32  1  0  0  0  0
 12 50  1  0  0  0  0
 13 33  1  0  0  0  0
 13 51  1  0  0  0  0
 14 34  1  0  0  0  0
 14 52  1  0  0  0  0
 15 16  1  0  0  0  0
 15 18  1  0  0  0  0
 15 35  1  0  0  0  0
 16 17  1  0  0  0  0
 16 36  1  0  0  0  0
 17 20  1  0  0  0  0
 17 37  1  0  0  0  0
 18 19  1  0  0  0  0
 18 38  1  0  0  0  0
 19 39  1  0  0  0  0
 20 40  1  0  0  0  0
 20 41  1  0  0  0  0
 21 22  1  0  0  0  0
 22 23  1  0  0  0  0
 22 27  2  0  0  0  0
 23 24  1  0  0  0  0
 23 28  2  0  0  0  0
 24 26  1  0  0  0  0
 24 29  2  0  0  0  0
 25 26  1  0  0  0  0
 26 30  2  0  0  0  0
 27 31  1  0  0  0  0
 27 45  1  0  0  0  0
 28 32  1  0  0  0  0
 29 33  1  0  0  0  0
 30 34  1  0  0  0  0
 30 46  1  0  0  0  0
 31 32  2  0  0  0  0
 33 34  2  0  0  0  0
M  END
>  <PUBCHEM_COMPOUND_CID>
14284670

>  <PUBCHEM_COMPOUND_CANONICALIZED>
1

>  <PUBCHEM_CACTVS_COMPLEXITY>
778

>  <PUBCHEM_CACTVS_HBOND_ACCEPTOR>
14

>  <PUBCHEM_CACTVS_HBOND_DONOR>
9

>  <PUBCHEM_CACTVS_ROTATABLE_BOND>
0

>  <PUBCHEM_CACTVS_SUBSKEYS>
AAADceB4PAAAAAAAAAAAAAAAAAAAAAAAAAA0YIAAAAAAAAABQAAAGgAACAAADBSwmAMwDoAABgCIAiDSCAACAAAkIAAAiAEGiMgZNzKCNBqCcQElwBUPuYfK7PzOoAABCAAYQABAAAIQADCAAAAAAAAAAA==

>  <PUBCHEM_IUPAC_INCHI>
InChI=1S/C20H18O14/c21-6-1-4-9(14(26)11(6)23)10-5(2-7(22)12(24)15(10)27)19(30)34-17-13(25)8(3-32-18(4)29)33-20(31)16(17)28/h1-2,8,13,16-17,20-28,31H,3H2

>  <PUBCHEM_IUPAC_INCHIKEY>
ZPGCONCPIPNNOE-UHFFFAOYSA-N

>  <PUBCHEM_XLOGP3_AA>
-1.1

>  <PUBCHEM_EXACT_MASS>
482.07

>  <PUBCHEM_MOLECULAR_FORMULA>
C20H18O14

>  <PUBCHEM_MOLECULAR_WEIGHT>
482.35

>  <PUBCHEM_OPENEYE_CAN_SMILES>
C1C2C(C(C(C(O2)O)O)OC(=O)C3=CC(=C(C(=C3C4=C(C(=C(C=C4C(=O)O1)O)O)O)O)O)O)O

>  <PUBCHEM_OPENEYE_ISO_SMILES>
C1C2C(C(C(C(O2)O)O)OC(=O)C3=CC(=C(C(=C3C4=C(C(=C(C=C4C(=O)O1)O)O)O)O)O)O)O

>  <PUBCHEM_CACTVS_TPSA>
244

>  <PUBCHEM_MONOISOTOPIC_WEIGHT>
482.07

>  <PUBCHEM_TOTAL_CHARGE>
0

>  <PUBCHEM_HEAVY_ATOM_COUNT>
34

>  <PUBCHEM_ATOM_DEF_STEREO_COUNT>
0

>  <PUBCHEM_ATOM_UDEF_STEREO_COUNT>
5

>  <PUBCHEM_BOND_DEF_STEREO_COUNT>
0

>  <PUBCHEM_BOND_UDEF_STEREO_COUNT>
0

>  <PUBCHEM_ISOTOPIC_ATOM_COUNT>
0

>  <PUBCHEM_COMPONENT_COUNT>
1

>  <PUBCHEM_CACTVS_TAUTO_COUNT>
998

>  <PUBCHEM_COORDINATE_TYPE>
1
5
255

>  <PUBCHEM_BONDANNOTATIONS>
17  20  3
15  2  3
22  23  8
22  27  8
23  28  8
24  26  8
24  29  8
26  30  8
27  31  8
28  32  8
29  33  8
16  3  3
30  34  8
31  32  8
33  34  8
18  4  3
19  5  3

$$$$
