14310828
 OpenBabel06101807152D

 55 58  0  0  1  0  0  0  0  0999 V2000
    4.2690   -1.6796    0.0000 O   0  0  0  0  0  0  0  0  0  0  0  0
    6.0010   -1.6796    0.0000 O   0  0  0  0  0  0  0  0  0  0  0  0
    4.2690   -4.6796    0.0000 O   0  0  0  0  0  0  0  0  0  0  0  0
    2.5369   -3.6796    0.0000 O   0  0  0  0  0  0  0  0  0  0  0  0
    6.0010   -3.6796    0.0000 O   0  0  0  0  0  0  0  0  0  0  0  0
    7.7570    1.3829    0.0000 O   0  0  0  0  0  0  0  0  0  0  0  0
    4.2548    1.3996    0.0000 O   0  0  0  0  0  0  0  0  0  0  0  0
    6.9006    3.8863    0.0000 O   0  0  0  0  0  0  0  0  0  0  0  0
    5.1647    2.8930    0.0000 O   0  0  0  0  0  0  0  0  0  0  0  0
   11.2249    2.3696    0.0000 O   0  0  0  0  0  0  0  0  0  0  0  0
   11.2326    4.3696    0.0000 O   0  0  0  0  0  0  0  0  0  0  0  0
    4.2690   -3.6796    0.0000 C   0  0  3  0  0  0  0  0  0  0  0  0
    3.4030   -3.1796    0.0000 C   0  0  3  0  0  0  0  0  0  0  0  0
    5.1350   -3.1796    0.0000 C   0  0  3  0  0  0  0  0  0  0  0  0
    3.4030   -2.1796    0.0000 C   0  0  3  0  0  0  0  0  0  0  0  0
    5.1350   -2.1796    0.0000 C   0  0  3  0  0  0  0  0  0  0  0  0
    2.5369   -1.6796    0.0000 C   0  0  0  0  0  0  0  0  0  0  0  0
    6.0010   -0.6796    0.0000 C   0  0  0  0  0  0  0  0  0  0  0  0
    6.9011   -0.1553    0.0000 C   0  0  0  0  0  0  0  0  0  0  0  0
    5.1010   -0.1553    0.0000 C   0  0  0  0  0  0  0  0  0  0  0  0
    6.8891    0.8863    0.0000 C   0  0  0  0  0  0  0  0  0  0  0  0
    6.0250    1.3896    0.0000 C   0  0  0  0  0  0  0  0  0  0  0  0
    5.1130    0.8863    0.0000 C   0  0  0  0  0  0  0  0  0  0  0  0
    6.0288    2.3896    0.0000 C   0  0  0  0  0  0  0  0  0  0  0  0
    7.7609    2.3829    0.0000 C   0  0  0  0  0  0  0  0  0  0  0  0
    6.8968    2.8863    0.0000 C   0  0  0  0  0  0  0  0  0  0  0  0
    8.6288    2.8796    0.0000 C   0  0  0  0  0  0  0  0  0  0  0  0
    9.4929    2.3763    0.0000 C   0  0  0  0  0  0  0  0  0  0  0  0
    8.6327    3.8796    0.0000 C   0  0  0  0  0  0  0  0  0  0  0  0
   10.3608    2.8729    0.0000 C   0  0  0  0  0  0  0  0  0  0  0  0
    9.5006    4.3762    0.0000 C   0  0  0  0  0  0  0  0  0  0  0  0
   10.3647    3.8729    0.0000 C   0  0  0  0  0  0  0  0  0  0  0  0
   12.0929    2.8662    0.0000 C   0  0  0  0  0  0  0  0  0  0  0  0
    4.8059   -3.9896    0.0000 H   0  0  0  0  0  0  0  0  0  0  0  0
    3.4030   -3.7996    0.0000 H   0  0  0  0  0  0  0  0  0  0  0  0
    5.6720   -2.8696    0.0000 H   0  0  0  0  0  0  0  0  0  0  0  0
    3.4030   -1.5596    0.0000 H   0  0  0  0  0  0  0  0  0  0  0  0
    5.1350   -1.5596    0.0000 H   0  0  0  0  0  0  0  0  0  0  0  0
    2.8469   -1.1426    0.0000 H   0  0  0  0  0  0  0  0  0  0  0  0
    2.0000   -1.3696    0.0000 H   0  0  0  0  0  0  0  0  0  0  0  0
    2.2269   -2.2165    0.0000 H   0  0  0  0  0  0  0  0  0  0  0  0
    3.7320   -4.9896    0.0000 H   0  0  0  0  0  0  0  0  0  0  0  0
    2.0000   -3.3696    0.0000 H   0  0  0  0  0  0  0  0  0  0  0  0
    6.0010   -4.2996    0.0000 H   0  0  0  0  0  0  0  0  0  0  0  0
    7.4404   -0.4611    0.0000 H   0  0  0  0  0  0  0  0  0  0  0  0
    4.5617   -0.4611    0.0000 H   0  0  0  0  0  0  0  0  0  0  0  0
    3.7132    1.0979    0.0000 H   0  0  0  0  0  0  0  0  0  0  0  0
    9.4905    1.7563    0.0000 H   0  0  0  0  0  0  0  0  0  0  0  0
    8.0969    4.1916    0.0000 H   0  0  0  0  0  0  0  0  0  0  0  0
    9.5030    4.9962    0.0000 H   0  0  0  0  0  0  0  0  0  0  0  0
    6.3649    4.1983    0.0000 H   0  0  0  0  0  0  0  0  0  0  0  0
   11.2350    4.9896    0.0000 H   0  0  0  0  0  0  0  0  0  0  0  0
   12.4008    2.3281    0.0000 H   0  0  0  0  0  0  0  0  0  0  0  0
   12.6310    3.1742    0.0000 H   0  0  0  0  0  0  0  0  0  0  0  0
   11.7850    3.4044    0.0000 H   0  0  0  0  0  0  0  0  0  0  0  0
  1 15  1  0  0  0  0
  1 16  1  0  0  0  0
  2 16  1  0  0  0  0
  2 18  1  0  0  0  0
  3 12  1  0  0  0  0
  3 42  1  0  0  0  0
  4 13  1  0  0  0  0
  4 43  1  0  0  0  0
  5 14  1  0  0  0  0
  5 44  1  0  0  0  0
  6 21  1  0  0  0  0
  6 25  1  0  0  0  0
  7 23  1  0  0  0  0
  7 47  1  0  0  0  0
  8 26  1  0  0  0  0
  8 51  1  0  0  0  0
  9 24  2  0  0  0  0
 10 30  1  0  0  0  0
 10 33  1  0  0  0  0
 11 32  1  0  0  0  0
 11 52  1  0  0  0  0
 12 13  1  0  0  0  0
 12 14  1  0  0  0  0
 12 34  1  0  0  0  0
 13 15  1  0  0  0  0
 13 35  1  0  0  0  0
 14 16  1  0  0  0  0
 14 36  1  0  0  0  0
 15 17  1  0  0  0  0
 15 37  1  0  0  0  0
 16 38  1  0  0  0  0
 17 39  1  0  0  0  0
 17 40  1  0  0  0  0
 17 41  1  0  0  0  0
 18 19  1  0  0  0  0
 18 20  2  0  0  0  0
 19 21  2  0  0  0  0
 19 45  1  0  0  0  0
 20 23  1  0  0  0  0
 20 46  1  0  0  0  0
 21 22  1  0  0  0  0
 22 23  2  0  0  0  0
 22 24  1  0  0  0  0
 24 26  1  0  0  0  0
 25 26  2  0  0  0  0
 25 27  1  0  0  0  0
 27 28  2  0  0  0  0
 27 29  1  0  0  0  0
 28 30  1  0  0  0  0
 28 48  1  0  0  0  0
 29 31  2  0  0  0  0
 29 49  1  0  0  0  0
 30 32  2  0  0  0  0
 31 32  1  0  0  0  0
 31 50  1  0  0  0  0
 33 53  1  0  0  0  0
 33 54  1  0  0  0  0
 33 55  1  0  0  0  0
M  END
>  <PUBCHEM_COMPOUND_CID>
14310828

>  <PUBCHEM_COMPOUND_CANONICALIZED>
1

>  <PUBCHEM_CACTVS_COMPLEXITY>
757

>  <PUBCHEM_CACTVS_HBOND_ACCEPTOR>
11

>  <PUBCHEM_CACTVS_HBOND_DONOR>
6

>  <PUBCHEM_CACTVS_ROTATABLE_BOND>
4

>  <PUBCHEM_CACTVS_SUBSKEYS>
AAADceB4PAAAAAAAAAAAAAAAAAAAAAAAAAA0YIEAAAAAAACBQAAAGgAACAAADBSwmAMyDoAABgCIAqBSAAICCAAkIAAIiAFGiMgdNzaGNRqieWOl4BUPuQfI7LzOIAABCAAIQABAAAIQABCAAAAAAAAAAA==

>  <PUBCHEM_IUPAC_OPENEYE_NAME>
3,5-dihydroxy-2-(4-hydroxy-3-methoxy-phenyl)-7-(3,4,5-trihydroxy-6-methyl-tetrahydropyran-2-yl)oxy-chromen-4-one

>  <PUBCHEM_IUPAC_CAS_NAME>
3,5-dihydroxy-2-(4-hydroxy-3-methoxyphenyl)-7-[(3,4,5-trihydroxy-6-methyl-2-oxanyl)oxy]-1-benzopyran-4-one

>  <PUBCHEM_IUPAC_NAME>
3,5-dihydroxy-2-(4-hydroxy-3-methoxyphenyl)-7-(3,4,5-trihydroxy-6-methyloxan-2-yl)oxychromen-4-one

>  <PUBCHEM_IUPAC_SYSTEMATIC_NAME>
2-(3-methoxy-4-oxidanyl-phenyl)-7-[6-methyl-3,4,5-tris(oxidanyl)oxan-2-yl]oxy-3,5-bis(oxidanyl)chromen-4-one

>  <PUBCHEM_IUPAC_TRADITIONAL_NAME>
3,5-dihydroxy-2-(4-hydroxy-3-methoxy-phenyl)-7-(3,4,5-trihydroxy-6-methyl-tetrahydropyran-2-yl)oxy-chromone

>  <PUBCHEM_IUPAC_INCHI>
InChI=1S/C22H22O11/c1-8-16(25)18(27)20(29)22(31-8)32-10-6-12(24)15-14(7-10)33-21(19(28)17(15)26)9-3-4-11(23)13(5-9)30-2/h3-8,16,18,20,22-25,27-29H,1-2H3

>  <PUBCHEM_IUPAC_INCHIKEY>
XLQFMBLUUSGXQY-UHFFFAOYSA-N

>  <PUBCHEM_XLOGP3_AA>
1.2

>  <PUBCHEM_EXACT_MASS>
462.116

>  <PUBCHEM_MOLECULAR_FORMULA>
C22H22O11

>  <PUBCHEM_MOLECULAR_WEIGHT>
462.407

>  <PUBCHEM_OPENEYE_CAN_SMILES>
CC1C(C(C(C(O1)OC2=CC(=C3C(=C2)OC(=C(C3=O)O)C4=CC(=C(C=C4)O)OC)O)O)O)O

>  <PUBCHEM_OPENEYE_ISO_SMILES>
CC1C(C(C(C(O1)OC2=CC(=C3C(=C2)OC(=C(C3=O)O)C4=CC(=C(C=C4)O)OC)O)O)O)O

>  <PUBCHEM_CACTVS_TPSA>
175

>  <PUBCHEM_MONOISOTOPIC_WEIGHT>
462.116

>  <PUBCHEM_TOTAL_CHARGE>
0

>  <PUBCHEM_HEAVY_ATOM_COUNT>
33

>  <PUBCHEM_ATOM_DEF_STEREO_COUNT>
0

>  <PUBCHEM_ATOM_UDEF_STEREO_COUNT>
5

>  <PUBCHEM_BOND_DEF_STEREO_COUNT>
0

>  <PUBCHEM_BOND_UDEF_STEREO_COUNT>
0

>  <PUBCHEM_ISOTOPIC_ATOM_COUNT>
0

>  <PUBCHEM_COMPONENT_COUNT>
1

>  <PUBCHEM_CACTVS_TAUTO_COUNT>
73

>  <PUBCHEM_COORDINATE_TYPE>
1
5
255

>  <PUBCHEM_BONDANNOTATIONS>
15  17  3
18  19  8
18  20  8
19  21  8
16  2  3
20  23  8
21  22  8
22  23  8
22  24  8
24  26  8
25  26  8
27  28  8
27  29  8
28  30  8
29  31  8
12  3  3
30  32  8
31  32  8
13  4  3
14  5  3
6  21  8
6  25  8

$$$$
