14313526
 OpenBabel06101807152D

 87 92  0  0  1  0  0  0  0  0999 V2000
    8.7331   -1.0380    0.0000 O   0  0  0  0  0  0  0  0  0  0  0  0
    6.0010   -2.0380    0.0000 O   0  0  0  0  0  0  0  0  0  0  0  0
    9.8985   -0.5598    0.0000 O   0  0  0  0  0  0  0  0  0  0  0  0
    9.8019    3.9132    0.0000 O   0  0  0  0  0  0  0  0  0  0  0  0
    8.7332   -3.0380    0.0000 O   0  0  0  0  0  0  0  0  0  0  0  0
    7.0010   -3.0380    0.0000 O   0  0  0  0  0  0  0  0  0  0  0  0
    4.2690   -2.0380    0.0000 O   0  0  0  0  0  0  0  0  0  0  0  0
    3.5523   -0.2016    0.0000 O   0  0  0  0  0  0  0  0  0  0  0  0
    8.8697    5.3480    0.0000 O   0  0  0  0  0  0  0  0  0  0  0  0
    6.0010   -4.0380    0.0000 O   0  0  0  0  0  0  0  0  0  0  0  0
    4.2690   -5.0380    0.0000 O   0  0  0  0  0  0  0  0  0  0  0  0
    2.5369   -4.0380    0.0000 O   0  0  0  0  0  0  0  0  0  0  0  0
    2.5369   -1.0380    0.0000 O   0  0  0  0  0  0  0  0  0  0  0  0
    7.8671   -0.5380    0.0000 C   0  0  3  0  0  0  0  0  0  0  0  0
    8.3671    0.3280    0.0000 C   0  0  3  0  0  0  0  0  0  0  0  0
    6.8671   -0.5380    0.0000 C   0  0  3  0  0  0  0  0  0  0  0  0
    7.8671    1.1940    0.0000 C   0  0  3  0  0  0  0  0  0  0  0  0
    7.8671   -1.5380    0.0000 C   0  0  3  0  0  0  0  0  0  0  0  0
    8.3739    2.1040    0.0000 C   0  0  3  0  0  0  0  0  0  0  0  0
    6.3671    0.3280    0.0000 C   0  0  0  0  0  0  0  0  0  0  0  0
    6.8671    1.1940    0.0000 C   0  0  0  0  0  0  0  0  0  0  0  0
    9.4155    2.1120    0.0000 C   0  0  3  0  0  0  0  0  0  0  0  0
    9.4086    0.3119    0.0000 C   0  0  0  0  0  0  0  0  0  0  0  0
    6.0010   -1.0380    0.0000 C   0  0  3  0  0  0  0  0  0  0  0  0
    9.1331   -0.3148    0.0000 C   0  0  0  0  0  0  0  0  0  0  0  0
    9.9363    1.2100    0.0000 C   0  0  0  0  0  0  0  0  0  0  0  0
    6.8671   -1.5380    0.0000 C   0  0  0  0  0  0  0  0  0  0  0  0
   10.0409    2.9199    0.0000 C   0  0  0  0  0  0  0  0  0  0  0  0
    7.3739    2.0963    0.0000 C   0  0  0  0  0  0  0  0  0  0  0  0
    7.7362    2.9021    0.0000 C   0  0  0  0  0  0  0  0  0  0  0  0
    7.8671   -2.5380    0.0000 C   0  0  0  0  0  0  0  0  0  0  0  0
    5.1350   -0.5380    0.0000 C   0  0  0  0  0  0  0  0  0  0  0  0
   11.0128    3.1552    0.0000 C   0  0  0  0  0  0  0  0  0  0  0  0
   10.8308    2.3067    0.0000 C   0  0  0  0  0  0  0  0  0  0  0  0
    7.9598    3.8990    0.0000 C   0  0  0  0  0  0  0  0  0  0  0  0
    5.1350   -2.5380    0.0000 C   0  0  3  0  0  0  0  0  0  0  0  0
    8.8774    4.3481    0.0000 C   0  0  0  0  0  0  0  0  0  0  0  0
    5.0305    0.4565    0.0000 C   0  0  0  0  0  0  0  0  0  0  0  0
    4.2215   -0.9448    0.0000 C   0  0  0  0  0  0  0  0  0  0  0  0
    5.1350   -3.5380    0.0000 C   0  0  3  0  0  0  0  0  0  0  0  0
    4.0523    0.6644    0.0000 C   0  0  0  0  0  0  0  0  0  0  0  0
    4.2690   -4.0380    0.0000 C   0  0  3  0  0  0  0  0  0  0  0  0
    3.4030   -2.5380    0.0000 C   0  0  3  0  0  0  0  0  0  0  0  0
    3.4030   -3.5380    0.0000 C   0  0  3  0  0  0  0  0  0  0  0  0
    2.5369   -2.0380    0.0000 C   0  0  0  0  0  0  0  0  0  0  0  0
    8.4870    1.1988    0.0000 H   0  0  0  0  0  0  0  0  0  0  0  0
    8.4040   -1.8480    0.0000 H   0  0  0  0  0  0  0  0  0  0  0  0
    5.8921    0.7265    0.0000 H   0  0  0  0  0  0  0  0  0  0  0  0
    5.8921   -0.0705    0.0000 H   0  0  0  0  0  0  0  0  0  0  0  0
    6.9747    1.8046    0.0000 H   0  0  0  0  0  0  0  0  0  0  0  0
    6.2844    1.4061    0.0000 H   0  0  0  0  0  0  0  0  0  0  0  0
   10.0341    2.0702    0.0000 H   0  0  0  0  0  0  0  0  0  0  0  0
    5.4641   -1.3480    0.0000 H   0  0  0  0  0  0  0  0  0  0  0  0
    8.7346   -0.7898    0.0000 H   0  0  0  0  0  0  0  0  0  0  0  0
    9.6081   -0.7133    0.0000 H   0  0  0  0  0  0  0  0  0  0  0  0
    9.5316    0.1601    0.0000 H   0  0  0  0  0  0  0  0  0  0  0  0
   10.4092    0.8090    0.0000 H   0  0  0  0  0  0  0  0  0  0  0  0
   10.4123    1.6073    0.0000 H   0  0  0  0  0  0  0  0  0  0  0  0
    6.2471   -1.5380    0.0000 H   0  0  0  0  0  0  0  0  0  0  0  0
    6.8671   -2.1580    0.0000 H   0  0  0  0  0  0  0  0  0  0  0  0
    7.4871   -1.5380    0.0000 H   0  0  0  0  0  0  0  0  0  0  0  0
    7.3692    2.7163    0.0000 H   0  0  0  0  0  0  0  0  0  0  0  0
    6.7540    2.0915    0.0000 H   0  0  0  0  0  0  0  0  0  0  0  0
    7.3787    1.4763    0.0000 H   0  0  0  0  0  0  0  0  0  0  0  0
    7.1320    2.7628    0.0000 H   0  0  0  0  0  0  0  0  0  0  0  0
   10.4506    1.8169    0.0000 H   0  0  0  0  0  0  0  0  0  0  0  0
   11.3206    1.9265    0.0000 H   0  0  0  0  0  0  0  0  0  0  0  0
   11.2110    2.7964    0.0000 H   0  0  0  0  0  0  0  0  0  0  0  0
   11.1587    2.5526    0.0000 H   0  0  0  0  0  0  0  0  0  0  0  0
   11.6154    3.3010    0.0000 H   0  0  0  0  0  0  0  0  0  0  0  0
   10.8670    3.7578    0.0000 H   0  0  0  0  0  0  0  0  0  0  0  0
    7.4732    4.2831    0.0000 H   0  0  0  0  0  0  0  0  0  0  0  0
    5.1350   -1.9180    0.0000 H   0  0  0  0  0  0  0  0  0  0  0  0
    9.2700   -2.7280    0.0000 H   0  0  0  0  0  0  0  0  0  0  0  0
    5.4912    0.8713    0.0000 H   0  0  0  0  0  0  0  0  0  0  0  0
    4.0926   -1.5512    0.0000 H   0  0  0  0  0  0  0  0  0  0  0  0
    5.1350   -4.1580    0.0000 H   0  0  0  0  0  0  0  0  0  0  0  0
    3.8002    1.2308    0.0000 H   0  0  0  0  0  0  0  0  0  0  0  0
    3.7320   -4.3480    0.0000 H   0  0  0  0  0  0  0  0  0  0  0  0
    3.4030   -1.9180    0.0000 H   0  0  0  0  0  0  0  0  0  0  0  0
    2.8660   -3.2280    0.0000 H   0  0  0  0  0  0  0  0  0  0  0  0
    6.5380   -3.7280    0.0000 H   0  0  0  0  0  0  0  0  0  0  0  0
    1.9264   -1.9304    0.0000 H   0  0  0  0  0  0  0  0  0  0  0  0
    2.3249   -2.6206    0.0000 H   0  0  0  0  0  0  0  0  0  0  0  0
    3.7320   -5.3480    0.0000 H   0  0  0  0  0  0  0  0  0  0  0  0
    2.0000   -3.7280    0.0000 H   0  0  0  0  0  0  0  0  0  0  0  0
    2.0000   -0.7280    0.0000 H   0  0  0  0  0  0  0  0  0  0  0  0
  1 14  1  0  0  0  0
  1 18  1  0  0  0  0
  2 24  1  0  0  0  0
  2 36  1  0  0  0  0
  3 23  2  0  0  0  0
  4 28  1  0  0  0  0
  4 37  1  0  0  0  0
  5 31  1  0  0  0  0
  5 74  1  0  0  0  0
  6 31  2  0  0  0  0
  7 36  1  0  0  0  0
  7 43  1  0  0  0  0
  8 39  1  0  0  0  0
  8 41  1  0  0  0  0
  9 37  2  0  0  0  0
 10 40  1  0  0  0  0
 10 82  1  0  0  0  0
 11 42  1  0  0  0  0
 11 85  1  0  0  0  0
 12 44  1  0  0  0  0
 12 86  1  0  0  0  0
 13 45  1  0  0  0  0
 13 87  1  0  0  0  0
 14 15  1  0  0  0  0
 14 16  1  0  0  0  0
 14 18  1  0  0  0  0
 15 17  1  0  0  0  0
 15 23  1  0  0  0  0
 15 25  1  0  0  0  0
 16 20  1  0  0  0  0
 16 24  1  0  0  0  0
 16 27  1  0  0  0  0
 17 19  1  0  0  0  0
 17 21  1  0  0  0  0
 17 46  1  0  0  0  0
 18 31  1  0  0  0  0
 18 47  1  0  0  0  0
 19 22  1  0  0  0  0
 19 29  1  0  0  0  0
 19 30  1  0  0  0  0
 20 21  1  0  0  0  0
 20 48  1  0  0  0  0
 20 49  1  0  0  0  0
 21 50  1  0  0  0  0
 21 51  1  0  0  0  0
 22 26  1  0  0  0  0
 22 28  1  0  0  0  0
 22 52  1  0  0  0  0
 23 26  1  0  0  0  0
 24 32  1  0  0  0  0
 24 53  1  0  0  0  0
 25 54  1  0  0  0  0
 25 55  1  0  0  0  0
 25 56  1  0  0  0  0
 26 57  1  0  0  0  0
 26 58  1  0  0  0  0
 27 59  1  0  0  0  0
 27 60  1  0  0  0  0
 27 61  1  0  0  0  0
 28 33  1  0  0  0  0
 28 34  1  0  0  0  0
 29 62  1  0  0  0  0
 29 63  1  0  0  0  0
 29 64  1  0  0  0  0
 30 35  2  0  0  0  0
 30 65  1  0  0  0  0
 32 38  1  0  0  0  0
 32 39  2  0  0  0  0
 33 69  1  0  0  0  0
 33 70  1  0  0  0  0
 33 71  1  0  0  0  0
 34 66  1  0  0  0  0
 34 67  1  0  0  0  0
 34 68  1  0  0  0  0
 35 37  1  0  0  0  0
 35 72  1  0  0  0  0
 36 40  1  0  0  0  0
 36 73  1  0  0  0  0
 38 41  2  0  0  0  0
 38 75  1  0  0  0  0
 39 76  1  0  0  0  0
 40 42  1  0  0  0  0
 40 77  1  0  0  0  0
 41 78  1  0  0  0  0
 42 44  1  0  0  0  0
 42 79  1  0  0  0  0
 43 44  1  0  0  0  0
 43 45  1  0  0  0  0
 43 80  1  0  0  0  0
 44 81  1  0  0  0  0
 45 83  1  0  0  0  0
 45 84  1  0  0  0  0
M  END
>  <PUBCHEM_COMPOUND_CID>
14313526

>  <PUBCHEM_COMPOUND_CANONICALIZED>
1

>  <PUBCHEM_CACTVS_COMPLEXITY>
1270

>  <PUBCHEM_CACTVS_HBOND_ACCEPTOR>
13

>  <PUBCHEM_CACTVS_HBOND_DONOR>
5

>  <PUBCHEM_CACTVS_ROTATABLE_BOND>
6

>  <PUBCHEM_CACTVS_SUBSKEYS>
AAADcfB8PAAAAAAAAAAAAAAAEgAAASAAAAA0YIAABAAAAADBgAAAGgAACAAAD1SwmAMyDIAABkCIAqjSiAICCAAkIAAIiAFGCMgdNxYENQ6iWSCl4BEPKYPK7vzvgAAAAAAAAACAAAYAADAAAAAAAAAAAA==

>  <PUBCHEM_IUPAC_OPENEYE_NAME>
9-[3-furyl-[3,4,5-trihydroxy-6-(hydroxymethyl)tetrahydropyran-2-yl]oxy-methyl]-5,5,7a,9,11b-pentamethyl-3,7-dioxo-spiro[6,10,11,11a-tetrahydro-5aH-benzo[g][2]benzoxepine-8,3'-oxirane]-2'-carboxylic acid

>  <PUBCHEM_IUPAC_CAS_NAME>
9-[3-furanyl-[[3,4,5-trihydroxy-6-(hydroxymethyl)-2-oxanyl]oxy]methyl]-5,5,7a,9,11b-pentamethyl-3,7-dioxo-2'-spiro[6,10,11,11a-tetrahydro-5aH-benzo[g][2]benzoxepin-8,3'-oxirane]carboxylic acid

>  <PUBCHEM_IUPAC_NAME>
9-[furan-3-yl-[3,4,5-trihydroxy-6-(hydroxymethyl)oxan-2-yl]oxymethyl]-5,5,7a,9,11b-pentamethyl-3,7-dioxospiro[6,10,11,11a-tetrahydro-5aH-benzo[g][2]benzoxepine-8,3'-oxirane]-2'-carboxylic acid

>  <PUBCHEM_IUPAC_SYSTEMATIC_NAME>
9-[furan-3-yl-[6-(hydroxymethyl)-3,4,5-tris(oxidanyl)oxan-2-yl]oxy-methyl]-5,5,7a,9,11b-pentamethyl-3,7-bis(oxidanylidene)spiro[6,10,11,11a-tetrahydro-5aH-benzo[g][2]benzoxepine-8,3'-oxirane]-2'-carboxylic acid

>  <PUBCHEM_IUPAC_TRADITIONAL_NAME>
9-[3-furyl-(3,4,5-trihydroxy-6-methylol-tetrahydropyran-2-yl)oxy-methyl]-3,7-diketo-5,5,7a,9,11b-pentamethyl-spiro[6,10,11,11a-tetrahydro-5aH-benzo[g][2]benzoxepin-8,3'-oxirane]-2'-carboxylic acid

>  <PUBCHEM_IUPAC_INCHI>
InChI=1S/C32H42O13/c1-28(2)18-12-19(34)31(5)17(29(18,3)9-7-20(35)44-28)6-10-30(4,32(31)25(45-32)26(39)40)24(15-8-11-41-14-15)43-27-23(38)22(37)21(36)16(13-33)42-27/h7-9,11,14,16-18,21-25,27,33,36-38H,6,10,12-13H2,1-5H3,(H,39,40)

>  <PUBCHEM_IUPAC_INCHIKEY>
MXZVBPOYCKIXHN-UHFFFAOYSA-N

>  <PUBCHEM_XLOGP3_AA>
0.8

>  <PUBCHEM_EXACT_MASS>
634.263

>  <PUBCHEM_MOLECULAR_FORMULA>
C32H42O13

>  <PUBCHEM_MOLECULAR_WEIGHT>
634.675

>  <PUBCHEM_OPENEYE_CAN_SMILES>
CC1(C2CC(=O)C3(C(C2(C=CC(=O)O1)C)CCC(C34C(O4)C(=O)O)(C)C(C5=COC=C5)OC6C(C(C(C(O6)CO)O)O)O)C)C

>  <PUBCHEM_OPENEYE_ISO_SMILES>
CC1(C2CC(=O)C3(C(C2(C=CC(=O)O1)C)CCC(C34C(O4)C(=O)O)(C)C(C5=COC=C5)OC6C(C(C(C(O6)CO)O)O)O)C)C

>  <PUBCHEM_CACTVS_TPSA>
206

>  <PUBCHEM_MONOISOTOPIC_WEIGHT>
634.263

>  <PUBCHEM_TOTAL_CHARGE>
0

>  <PUBCHEM_HEAVY_ATOM_COUNT>
45

>  <PUBCHEM_ATOM_DEF_STEREO_COUNT>
0

>  <PUBCHEM_ATOM_UDEF_STEREO_COUNT>
13

>  <PUBCHEM_BOND_DEF_STEREO_COUNT>
0

>  <PUBCHEM_BOND_UDEF_STEREO_COUNT>
0

>  <PUBCHEM_ISOTOPIC_ATOM_COUNT>
0

>  <PUBCHEM_COMPONENT_COUNT>
1

>  <PUBCHEM_CACTVS_TAUTO_COUNT>
2

>  <PUBCHEM_COORDINATE_TYPE>
1
5
255

>  <PUBCHEM_BONDANNOTATIONS>
14  1  3
40  10  3
42  11  3
44  12  3
15  25  3
16  27  3
17  21  3
18  31  3
19  29  3
24  2  3
36  2  3
22  26  3
32  38  8
32  39  8
38  41  8
43  45  3
8  39  8
8  41  8

$$$$
