14334865
 OpenBabel06101807152D

 94 99  0  0  1  0  0  0  0  0999 V2000
    5.1459   -2.4413    0.0000 O   0  0  0  0  0  0  0  0  0  0  0  0
    5.1396    4.6313    0.0000 O   0  0  0  0  0  0  0  0  0  0  0  0
   10.3420   -4.4413    0.0000 O   0  0  0  0  0  0  0  0  0  0  0  0
    6.8779   -2.4413    0.0000 O   0  0  0  0  0  0  0  0  0  0  0  0
    5.9998    3.1280    0.0000 O   0  0  0  0  0  0  0  0  0  0  0  0
    5.1459   -5.4413    0.0000 O   0  0  0  0  0  0  0  0  0  0  0  0
    3.4138   -4.4413    0.0000 O   0  0  0  0  0  0  0  0  0  0  0  0
    6.8779   -4.4413    0.0000 O   0  0  0  0  0  0  0  0  0  0  0  0
    2.5357    3.1413    0.0000 O   0  0  0  0  0  0  0  0  0  0  0  0
    2.5434    5.1413    0.0000 O   0  0  0  0  0  0  0  0  0  0  0  0
   11.2081   -2.9413    0.0000 O   0  0  0  0  0  0  0  0  0  0  0  0
   12.9401   -5.9413    0.0000 O   0  0  0  0  0  0  0  0  0  0  0  0
   11.2081   -6.9413    0.0000 O   0  0  0  0  0  0  0  0  0  0  0  0
    4.2639    2.1347    0.0000 O   0  0  0  0  0  0  0  0  0  0  0  0
   12.9401   -3.9413    0.0000 O   0  0  0  0  0  0  0  0  0  0  0  0
    2.5478   -2.9413    0.0000 O   0  0  0  0  0  0  0  0  0  0  0  0
    5.1473    6.6313    0.0000 O   0  0  0  0  0  0  0  0  0  0  0  0
    9.4760   -6.9413    0.0000 O   0  0  0  0  0  0  0  0  0  0  0  0
    7.7440    0.0587    0.0000 O   0  0  0  0  0  0  0  0  0  0  0  0
    5.1459   -1.4413    0.0000 O   0  0  0  0  0  0  0  0  0  0  0  0
    4.2417    0.0556    0.0000 O   0  0  0  0  0  0  0  0  0  0  0  0
    5.1459   -4.4413    0.0000 C   0  0  1  0  0  0  0  0  0  0  0  0
    4.2799   -3.9413    0.0000 C   0  0  1  0  0  0  0  0  0  0  0  0
    6.0119   -3.9413    0.0000 C   0  0  2  0  0  0  0  0  0  0  0  0
    3.4037    3.6380    0.0000 C   0  0  1  0  0  0  0  0  0  0  0  0
    4.2799   -2.9413    0.0000 C   0  0  1  0  0  0  0  0  0  0  0  0
    3.4075    4.6380    0.0000 C   0  0  1  0  0  0  0  0  0  0  0  0
   12.0741   -5.4413    0.0000 C   0  0  1  0  0  0  0  0  0  0  0  0
   11.2081   -5.9413    0.0000 C   0  0  1  0  0  0  0  0  0  0  0  0
    4.2678    3.1346    0.0000 C   0  0  2  0  0  0  0  0  0  0  0  0
    4.2755    5.1346    0.0000 C   0  0  1  0  0  0  0  0  0  0  0  0
    6.0119   -2.9413    0.0000 C   0  0  1  0  0  0  0  0  0  0  0  0
   12.0741   -4.4413    0.0000 C   0  0  2  0  0  0  0  0  0  0  0  0
   10.3420   -5.4413    0.0000 C   0  0  1  0  0  0  0  0  0  0  0  0
    5.1357    3.6313    0.0000 C   0  0  1  0  0  0  0  0  0  0  0  0
   11.2081   -3.9413    0.0000 C   0  0  1  0  0  0  0  0  0  0  0  0
    3.4138   -2.4413    0.0000 C   0  0  0  0  0  0  0  0  0  0  0  0
    4.2793    6.1346    0.0000 C   0  0  0  0  0  0  0  0  0  0  0  0
    9.4760   -5.9413    0.0000 C   0  0  0  0  0  0  0  0  0  0  0  0
    6.8779   -1.4413    0.0000 C   0  0  0  0  0  0  0  0  0  0  0  0
    5.9960    2.1280    0.0000 C   0  0  0  0  0  0  0  0  0  0  0  0
    7.7440   -0.9413    0.0000 C   0  0  0  0  0  0  0  0  0  0  0  0
   10.3420   -2.4413    0.0000 C   0  0  0  0  0  0  0  0  0  0  0  0
    6.0119    0.0587    0.0000 C   0  0  0  0  0  0  0  0  0  0  0  0
    6.0119   -0.9413    0.0000 C   0  0  0  0  0  0  0  0  0  0  0  0
    6.8779    0.5587    0.0000 C   0  0  0  0  0  0  0  0  0  0  0  0
    6.8940    1.6002    0.0000 C   0  0  0  0  0  0  0  0  0  0  0  0
    8.6100   -1.4413    0.0000 C   0  0  0  0  0  0  0  0  0  0  0  0
    5.0939    1.6072    0.0000 C   0  0  0  0  0  0  0  0  0  0  0  0
    5.1019    0.5656    0.0000 C   0  0  0  0  0  0  0  0  0  0  0  0
    9.4760   -2.9413    0.0000 C   0  0  0  0  0  0  0  0  0  0  0  0
   10.3420   -1.4413    0.0000 C   0  0  0  0  0  0  0  0  0  0  0  0
    8.6100   -2.4413    0.0000 C   0  0  0  0  0  0  0  0  0  0  0  0
    9.4760   -0.9413    0.0000 C   0  0  0  0  0  0  0  0  0  0  0  0
    5.6828   -4.7513    0.0000 H   0  0  0  0  0  0  0  0  0  0  0  0
    4.2799   -4.5613    0.0000 H   0  0  0  0  0  0  0  0  0  0  0  0
    6.5488   -3.6313    0.0000 H   0  0  0  0  0  0  0  0  0  0  0  0
    3.4013    3.0180    0.0000 H   0  0  0  0  0  0  0  0  0  0  0  0
    4.2799   -2.3213    0.0000 H   0  0  0  0  0  0  0  0  0  0  0  0
    2.8694    4.3300    0.0000 H   0  0  0  0  0  0  0  0  0  0  0  0
   12.0741   -6.0613    0.0000 H   0  0  0  0  0  0  0  0  0  0  0  0
   10.6711   -6.2513    0.0000 H   0  0  0  0  0  0  0  0  0  0  0  0
    4.8035    2.8226    0.0000 H   0  0  0  0  0  0  0  0  0  0  0  0
    4.8136    5.4426    0.0000 H   0  0  0  0  0  0  0  0  0  0  0  0
    6.0119   -2.3213    0.0000 H   0  0  0  0  0  0  0  0  0  0  0  0
   12.0741   -3.8213    0.0000 H   0  0  0  0  0  0  0  0  0  0  0  0
    9.8051   -5.1313    0.0000 H   0  0  0  0  0  0  0  0  0  0  0  0
    5.6738    3.9392    0.0000 H   0  0  0  0  0  0  0  0  0  0  0  0
   10.6711   -3.6313    0.0000 H   0  0  0  0  0  0  0  0  0  0  0  0
    3.8124   -1.9663    0.0000 H   0  0  0  0  0  0  0  0  0  0  0  0
    3.0153   -1.9663    0.0000 H   0  0  0  0  0  0  0  0  0  0  0  0
    4.0695    6.7180    0.0000 H   0  0  0  0  0  0  0  0  0  0  0  0
    3.6684    6.0293    0.0000 H   0  0  0  0  0  0  0  0  0  0  0  0
    9.2640   -5.3587    0.0000 H   0  0  0  0  0  0  0  0  0  0  0  0
    8.8654   -6.0489    0.0000 H   0  0  0  0  0  0  0  0  0  0  0  0
    4.6090   -5.7513    0.0000 H   0  0  0  0  0  0  0  0  0  0  0  0
    3.4138   -5.0613    0.0000 H   0  0  0  0  0  0  0  0  0  0  0  0
    6.8779   -5.0613    0.0000 H   0  0  0  0  0  0  0  0  0  0  0  0
    2.0000    3.4534    0.0000 H   0  0  0  0  0  0  0  0  0  0  0  0
    2.5458    5.7613    0.0000 H   0  0  0  0  0  0  0  0  0  0  0  0
   12.9401   -6.5613    0.0000 H   0  0  0  0  0  0  0  0  0  0  0  0
   11.7450   -7.2513    0.0000 H   0  0  0  0  0  0  0  0  0  0  0  0
    3.7258    1.8267    0.0000 H   0  0  0  0  0  0  0  0  0  0  0  0
   13.4770   -4.2513    0.0000 H   0  0  0  0  0  0  0  0  0  0  0  0
    7.4345    1.9040    0.0000 H   0  0  0  0  0  0  0  0  0  0  0  0
    2.0109   -2.6313    0.0000 H   0  0  0  0  0  0  0  0  0  0  0  0
    5.1497    7.2513    0.0000 H   0  0  0  0  0  0  0  0  0  0  0  0
    4.5558    1.9151    0.0000 H   0  0  0  0  0  0  0  0  0  0  0  0
    8.9391   -7.2513    0.0000 H   0  0  0  0  0  0  0  0  0  0  0  0
    9.4760   -3.5613    0.0000 H   0  0  0  0  0  0  0  0  0  0  0  0
   10.8790   -1.1313    0.0000 H   0  0  0  0  0  0  0  0  0  0  0  0
    8.0730   -2.7513    0.0000 H   0  0  0  0  0  0  0  0  0  0  0  0
    9.4760   -0.3213    0.0000 H   0  0  0  0  0  0  0  0  0  0  0  0
    3.7012    0.3594    0.0000 H   0  0  0  0  0  0  0  0  0  0  0  0
  1 26  1  0  0  0  0
  1 32  1  0  0  0  0
  2 31  1  0  0  0  0
  2 35  1  0  0  0  0
  3 34  1  0  0  0  0
  3 36  1  0  0  0  0
  4 40  1  0  0  0  0
  5 41  1  0  0  0  0
  6 76  1  0  0  0  0
  7 77  1  0  0  0  0
  8 78  1  0  0  0  0
  9 79  1  0  0  0  0
 10 80  1  0  0  0  0
 11 43  1  0  0  0  0
 12 81  1  0  0  0  0
 13 82  1  0  0  0  0
 14 83  1  0  0  0  0
 15 84  1  0  0  0  0
 16 37  1  0  0  0  0
 16 86  1  0  0  0  0
 17 38  1  0  0  0  0
 17 87  1  0  0  0  0
 18 39  1  0  0  0  0
 18 89  1  0  0  0  0
 19 42  1  0  0  0  0
 19 46  1  0  0  0  0
 20 45  2  0  0  0  0
 21 50  1  0  0  0  0
 21 94  1  0  0  0  0
 22  6  1  0  0  0  0
 22 23  1  6  0  0  0
 22 55  1  0  0  0  0
 23  7  1  0  0  0  0
 23 26  1  1  0  0  0
 23 56  1  0  0  0  0
 24  8  1  0  0  0  0
 24 22  1  1  0  0  0
 24 57  1  0  0  0  0
 25  9  1  0  0  0  0
 25 27  1  6  0  0  0
 25 58  1  0  0  0  0
 26 37  1  0  0  0  0
 26 59  1  6  0  0  0
 27 10  1  0  0  0  0
 27 31  1  1  0  0  0
 27 60  1  0  0  0  0
 28 12  1  0  0  0  0
 28 29  1  1  0  0  0
 28 61  1  0  0  0  0
 29 13  1  0  0  0  0
 29 34  1  6  0  0  0
 29 62  1  0  0  0  0
 30 14  1  0  0  0  0
 30 25  1  1  0  0  0
 30 63  1  0  0  0  0
 31 38  1  0  0  0  0
 31 64  1  6  0  0  0
 32  4  1  0  0  0  0
 32 24  1  6  0  0  0
 32 65  1  0  0  0  0
 33 15  1  0  0  0  0
 33 28  1  1  0  0  0
 33 66  1  0  0  0  0
 34 39  1  0  0  0  0
 34 67  1  6  0  0  0
 35  5  1  0  0  0  0
 35 30  1  6  0  0  0
 35 68  1  0  0  0  0
 36 11  1  0  0  0  0
 36 33  1  6  0  0  0
 36 69  1  0  0  0  0
 37 70  1  0  0  0  0
 37 71  1  0  0  0  0
 38 72  1  0  0  0  0
 38 73  1  0  0  0  0
 39 74  1  0  0  0  0
 39 75  1  0  0  0  0
 40 42  2  0  0  0  0
 40 45  1  0  0  0  0
 41 47  1  0  0  0  0
 41 49  2  0  0  0  0
 42 48  1  0  0  0  0
 43 51  2  0  0  0  0
 43 52  1  0  0  0  0
 44 45  1  0  0  0  0
 44 46  1  0  0  0  0
 44 50  2  0  0  0  0
 46 47  2  0  0  0  0
 47 85  1  0  0  0  0
 48 53  2  0  0  0  0
 48 54  1  0  0  0  0
 49 50  1  0  0  0  0
 49 88  1  0  0  0  0
 51 53  1  0  0  0  0
 51 90  1  0  0  0  0
 52 54  2  0  0  0  0
 52 91  1  0  0  0  0
 53 92  1  0  0  0  0
 54 93  1  0  0  0  0
M  END
>  <PUBCHEM_COMPOUND_CID>
14334865

>  <PUBCHEM_COMPOUND_CANONICALIZED>
1

>  <PUBCHEM_CACTVS_COMPLEXITY>
1300

>  <PUBCHEM_CACTVS_HBOND_ACCEPTOR>
21

>  <PUBCHEM_CACTVS_HBOND_DONOR>
13

>  <PUBCHEM_CACTVS_ROTATABLE_BOND>
10

>  <PUBCHEM_CACTVS_SUBSKEYS>
AAADcfB8PgAAAAAAAAAAAAAAAAAAAAAAAAA0aJECAAAAAACBQAAAGgAACAAADBSwmAMwDoAABgCIAqBSAAICCAAkIAAIiAFGCMgdNzaGNR6ieWCl4BUPuQfI7KzOIAAACAAIAABAAAAQABAAAAAAAAAAAA==

>  <PUBCHEM_IUPAC_OPENEYE_NAME>
5-hydroxy-3,7-bis[[(2S,3R,4S,5S,6R)-3,4,5-trihydroxy-6-(hydroxymethyl)tetrahydropyran-2-yl]oxy]-2-[4-[(2S,3R,4S,5S,6R)-3,4,5-trihydroxy-6-(hydroxymethyl)tetrahydropyran-2-yl]oxyphenyl]chromen-4-one

>  <PUBCHEM_IUPAC_CAS_NAME>
5-hydroxy-3,7-bis[[(2S,3R,4S,5S,6R)-3,4,5-trihydroxy-6-(hydroxymethyl)-2-oxanyl]oxy]-2-[4-[[(2S,3R,4S,5S,6R)-3,4,5-trihydroxy-6-(hydroxymethyl)-2-oxanyl]oxy]phenyl]-1-benzopyran-4-one

>  <PUBCHEM_IUPAC_NAME>
5-hydroxy-3,7-bis[[(2S,3R,4S,5S,6R)-3,4,5-trihydroxy-6-(hydroxymethyl)oxan-2-yl]oxy]-2-[4-[(2S,3R,4S,5S,6R)-3,4,5-trihydroxy-6-(hydroxymethyl)oxan-2-yl]oxyphenyl]chromen-4-one

>  <PUBCHEM_IUPAC_SYSTEMATIC_NAME>
3,7-bis[[(2S,3R,4S,5S,6R)-6-(hydroxymethyl)-3,4,5-tris(oxidanyl)oxan-2-yl]oxy]-2-[4-[(2S,3R,4S,5S,6R)-6-(hydroxymethyl)-3,4,5-tris(oxidanyl)oxan-2-yl]oxyphenyl]-5-oxidanyl-chromen-4-one

>  <PUBCHEM_IUPAC_TRADITIONAL_NAME>
5-hydroxy-3,7-bis[[(2S,3R,4S,5S,6R)-3,4,5-trihydroxy-6-methylol-tetrahydropyran-2-yl]oxy]-2-[4-[(2S,3R,4S,5S,6R)-3,4,5-trihydroxy-6-methylol-tetrahydropyran-2-yl]oxyphenyl]chromone

>  <PUBCHEM_IUPAC_INCHI>
InChI=1S/C33H40O21/c34-7-15-19(38)23(42)26(45)31(51-15)48-11-3-1-10(2-4-11)29-30(54-33-28(47)25(44)21(40)17(9-36)53-33)22(41)18-13(37)5-12(6-14(18)50-29)49-32-27(46)24(43)20(39)16(8-35)52-32/h1-6,15-17,19-21,23-28,31-40,42-47H,7-9H2/t15-,16-,17-,19-,20-,21-,23+,24+,25+,26-,27-,28-,31-,32-,33+/m1/s1

>  <PUBCHEM_IUPAC_INCHIKEY>
GZKTYMIMRMNEII-GZIDCZEMSA-N

>  <PUBCHEM_XLOGP3_AA>
-2.9

>  <PUBCHEM_EXACT_MASS>
772.206

>  <PUBCHEM_MOLECULAR_FORMULA>
C33H40O21

>  <PUBCHEM_MOLECULAR_WEIGHT>
772.662

>  <PUBCHEM_OPENEYE_CAN_SMILES>
C1=CC(=CC=C1C2=C(C(=O)C3=C(C=C(C=C3O2)OC4C(C(C(C(O4)CO)O)O)O)O)OC5C(C(C(C(O5)CO)O)O)O)OC6C(C(C(C(O6)CO)O)O)O

>  <PUBCHEM_OPENEYE_ISO_SMILES>
C1=CC(=CC=C1C2=C(C(=O)C3=C(C=C(C=C3O2)O[C@H]4[C@@H]([C@H]([C@@H]([C@H](O4)CO)O)O)O)O)O[C@H]5[C@@H]([C@H]([C@@H]([C@H](O5)CO)O)O)O)O[C@H]6[C@@H]([C@H]([C@@H]([C@H](O6)CO)O)O)O

>  <PUBCHEM_CACTVS_TPSA>
345

>  <PUBCHEM_MONOISOTOPIC_WEIGHT>
772.206

>  <PUBCHEM_TOTAL_CHARGE>
0

>  <PUBCHEM_HEAVY_ATOM_COUNT>
54

>  <PUBCHEM_ATOM_DEF_STEREO_COUNT>
15

>  <PUBCHEM_ATOM_UDEF_STEREO_COUNT>
0

>  <PUBCHEM_BOND_DEF_STEREO_COUNT>
0

>  <PUBCHEM_BOND_UDEF_STEREO_COUNT>
0

>  <PUBCHEM_ISOTOPIC_ATOM_COUNT>
0

>  <PUBCHEM_COMPONENT_COUNT>
1

>  <PUBCHEM_CACTVS_TAUTO_COUNT>
5

>  <PUBCHEM_COORDINATE_TYPE>
1
5
255

>  <PUBCHEM_BONDANNOTATIONS>
27  10  6
36  11  5
28  12  5
29  13  6
30  14  6
33  15  6
19  42  8
19  46  8
26  37  5
31  38  5
34  39  5
32  4  5
40  42  8
40  45  8
41  47  8
41  49  8
43  51  8
43  52  8
44  45  8
44  46  8
44  50  8
46  47  8
48  53  8
48  54  8
49  50  8
35  5  5
51  53  8
52  54  8
22  6  5
23  7  6
24  8  6
25  9  5

$$$$
