14345578
 OpenBabel06101807152D

 53 55  0  0  1  0  0  0  0  0999 V2000
    5.1350   -0.3845    0.0000 O   0  0  0  0  0  0  0  0  0  0  0  0
    6.8671   -0.3845    0.0000 O   0  0  0  0  0  0  0  0  0  0  0  0
    5.1350   -3.3845    0.0000 O   0  0  0  0  0  0  0  0  0  0  0  0
    3.4030   -2.3845    0.0000 O   0  0  0  0  0  0  0  0  0  0  0  0
    6.8671   -2.3845    0.0000 O   0  0  0  0  0  0  0  0  0  0  0  0
    2.5369   -0.8845    0.0000 O   0  0  0  0  0  0  0  0  0  0  0  0
    8.6158   -0.3701    0.0000 O   0  0  0  0  0  0  0  0  0  0  0  0
    5.1208    2.6946    0.0000 O   0  0  0  0  0  0  0  0  0  0  0  0
   10.3477   -0.3902    0.0000 O   0  0  0  0  0  0  0  0  0  0  0  0
    5.1350   -2.3845    0.0000 C   0  0  3  0  0  0  0  0  0  0  0  0
    4.2690   -1.8845    0.0000 C   0  0  3  0  0  0  0  0  0  0  0  0
    6.0010   -1.8845    0.0000 C   0  0  3  0  0  0  0  0  0  0  0  0
    4.2690   -0.8845    0.0000 C   0  0  3  0  0  0  0  0  0  0  0  0
    6.0010   -0.8845    0.0000 C   0  0  3  0  0  0  0  0  0  0  0  0
    3.4030   -0.3845    0.0000 C   0  0  0  0  0  0  0  0  0  0  0  0
    6.8671    0.6155    0.0000 C   0  0  0  0  0  0  0  0  0  0  0  0
    7.7671    1.1398    0.0000 C   0  0  0  0  0  0  0  0  0  0  0  0
    7.7787    2.1397    0.0000 C   0  0  0  0  0  0  0  0  0  0  0  0
    5.9670    1.1398    0.0000 C   0  0  0  0  0  0  0  0  0  0  0  0
    8.6273    0.6298    0.0000 C   0  0  0  0  0  0  0  0  0  0  0  0
    9.4991    1.1198    0.0000 C   0  0  0  0  0  0  0  0  0  0  0  0
    6.8910    2.6847    0.0000 C   0  0  0  0  0  0  0  0  0  0  0  0
    5.9790    2.1813    0.0000 C   0  0  0  0  0  0  0  0  0  0  0  0
    8.6504    2.6297    0.0000 C   0  0  0  0  0  0  0  0  0  0  0  0
    9.5106    2.1197    0.0000 C   0  0  0  0  0  0  0  0  0  0  0  0
   10.3824    2.6096    0.0000 C   0  0  0  0  0  0  0  0  0  0  0  0
   10.3592    0.6098    0.0000 C   0  0  0  0  0  0  0  0  0  0  0  0
   11.2310    1.0997    0.0000 C   0  0  0  0  0  0  0  0  0  0  0  0
    5.1363    3.6945    0.0000 C   0  0  0  0  0  0  0  0  0  0  0  0
    5.6720   -2.6945    0.0000 H   0  0  0  0  0  0  0  0  0  0  0  0
    4.2690   -2.5045    0.0000 H   0  0  0  0  0  0  0  0  0  0  0  0
    6.5380   -1.5745    0.0000 H   0  0  0  0  0  0  0  0  0  0  0  0
    4.2690   -0.2645    0.0000 H   0  0  0  0  0  0  0  0  0  0  0  0
    6.0010   -0.2645    0.0000 H   0  0  0  0  0  0  0  0  0  0  0  0
    3.8015    0.0904    0.0000 H   0  0  0  0  0  0  0  0  0  0  0  0
    3.0044    0.0904    0.0000 H   0  0  0  0  0  0  0  0  0  0  0  0
    4.5981   -3.6945    0.0000 H   0  0  0  0  0  0  0  0  0  0  0  0
    3.4030   -3.0045    0.0000 H   0  0  0  0  0  0  0  0  0  0  0  0
    6.8671   -3.0045    0.0000 H   0  0  0  0  0  0  0  0  0  0  0  0
    5.4277    0.8339    0.0000 H   0  0  0  0  0  0  0  0  0  0  0  0
    2.0000   -0.5745    0.0000 H   0  0  0  0  0  0  0  0  0  0  0  0
    6.9053    3.3045    0.0000 H   0  0  0  0  0  0  0  0  0  0  0  0
    8.6576    3.2496    0.0000 H   0  0  0  0  0  0  0  0  0  0  0  0
   10.6861    2.0692    0.0000 H   0  0  0  0  0  0  0  0  0  0  0  0
   10.9229    2.9134    0.0000 H   0  0  0  0  0  0  0  0  0  0  0  0
   10.0786    3.1501    0.0000 H   0  0  0  0  0  0  0  0  0  0  0  0
    9.1491   -0.6863    0.0000 H   0  0  0  0  0  0  0  0  0  0  0  0
   11.5348    0.5592    0.0000 H   0  0  0  0  0  0  0  0  0  0  0  0
   11.7715    1.4035    0.0000 H   0  0  0  0  0  0  0  0  0  0  0  0
   10.9272    1.6402    0.0000 H   0  0  0  0  0  0  0  0  0  0  0  0
    5.7562    3.6850    0.0000 H   0  0  0  0  0  0  0  0  0  0  0  0
    5.1458    4.3144    0.0000 H   0  0  0  0  0  0  0  0  0  0  0  0
    4.5163    3.7041    0.0000 H   0  0  0  0  0  0  0  0  0  0  0  0
  1 13  1  0  0  0  0
  1 14  1  0  0  0  0
  2 14  1  0  0  0  0
  2 16  1  0  0  0  0
  3 10  1  0  0  0  0
  3 37  1  0  0  0  0
  4 11  1  0  0  0  0
  4 38  1  0  0  0  0
  5 12  1  0  0  0  0
  5 39  1  0  0  0  0
  6 15  1  0  0  0  0
  6 41  1  0  0  0  0
  7 20  1  0  0  0  0
  7 47  1  0  0  0  0
  8 23  1  0  0  0  0
  8 29  1  0  0  0  0
  9 27  2  0  0  0  0
 10 11  1  0  0  0  0
 10 12  1  0  0  0  0
 10 30  1  0  0  0  0
 11 13  1  0  0  0  0
 11 31  1  0  0  0  0
 12 14  1  0  0  0  0
 12 32  1  0  0  0  0
 13 15  1  0  0  0  0
 13 33  1  0  0  0  0
 14 34  1  0  0  0  0
 15 35  1  0  0  0  0
 15 36  1  0  0  0  0
 16 17  2  0  0  0  0
 16 19  1  0  0  0  0
 17 18  1  0  0  0  0
 17 20  1  0  0  0  0
 18 22  2  0  0  0  0
 18 24  1  0  0  0  0
 19 23  2  0  0  0  0
 19 40  1  0  0  0  0
 20 21  2  0  0  0  0
 21 25  1  0  0  0  0
 21 27  1  0  0  0  0
 22 23  1  0  0  0  0
 22 42  1  0  0  0  0
 24 25  2  0  0  0  0
 24 43  1  0  0  0  0
 25 26  1  0  0  0  0
 26 44  1  0  0  0  0
 26 45  1  0  0  0  0
 26 46  1  0  0  0  0
 27 28  1  0  0  0  0
 28 48  1  0  0  0  0
 28 49  1  0  0  0  0
 28 50  1  0  0  0  0
 29 51  1  0  0  0  0
 29 52  1  0  0  0  0
 29 53  1  0  0  0  0
M  END
>  <PUBCHEM_COMPOUND_CID>
14345578

>  <PUBCHEM_COMPOUND_CANONICALIZED>
1

>  <PUBCHEM_CACTVS_COMPLEXITY>
572

>  <PUBCHEM_CACTVS_HBOND_ACCEPTOR>
9

>  <PUBCHEM_CACTVS_HBOND_DONOR>
5

>  <PUBCHEM_CACTVS_ROTATABLE_BOND>
5

>  <PUBCHEM_CACTVS_SUBSKEYS>
AAADceB4PAAAAAAAAAAAAAAAAAAAAAAAAAA0YIAAAAAAAADBUAAAGgAACAAADBSwmAMyDsAABgCIAqBSAAACCAAkIAAAiAEGCMgdNzaGNRqieWCl4BUPuQfI7PzO4AADCAAYAADAAAYQADAAAAAAAAAAAA==

>  <PUBCHEM_IUPAC_OPENEYE_NAME>
1-[1-hydroxy-6-methoxy-3-methyl-8-[3,4,5-trihydroxy-6-(hydroxymethyl)tetrahydropyran-2-yl]oxy-2-naphthyl]ethanone

>  <PUBCHEM_IUPAC_CAS_NAME>
1-[1-hydroxy-6-methoxy-3-methyl-8-[[3,4,5-trihydroxy-6-(hydroxymethyl)-2-oxanyl]oxy]-2-naphthalenyl]ethanone

>  <PUBCHEM_IUPAC_NAME>
1-[1-hydroxy-6-methoxy-3-methyl-8-[3,4,5-trihydroxy-6-(hydroxymethyl)oxan-2-yl]oxynaphthalen-2-yl]ethanone

>  <PUBCHEM_IUPAC_SYSTEMATIC_NAME>
1-[8-[6-(hydroxymethyl)-3,4,5-tris(oxidanyl)oxan-2-yl]oxy-6-methoxy-3-methyl-1-oxidanyl-naphthalen-2-yl]ethanone

>  <PUBCHEM_IUPAC_TRADITIONAL_NAME>
1-[1-hydroxy-6-methoxy-3-methyl-8-(3,4,5-trihydroxy-6-methylol-tetrahydropyran-2-yl)oxy-2-naphthyl]ethanone

>  <PUBCHEM_IUPAC_INCHI>
InChI=1S/C20H24O9/c1-8-4-10-5-11(27-3)6-12(15(10)17(24)14(8)9(2)22)28-20-19(26)18(25)16(23)13(7-21)29-20/h4-6,13,16,18-21,23-26H,7H2,1-3H3

>  <PUBCHEM_IUPAC_INCHIKEY>
GHKWPHRULCFTBB-UHFFFAOYSA-N

>  <PUBCHEM_XLOGP3_AA>
1.2

>  <PUBCHEM_EXACT_MASS>
408.142

>  <PUBCHEM_MOLECULAR_FORMULA>
C20H24O9

>  <PUBCHEM_MOLECULAR_WEIGHT>
408.403

>  <PUBCHEM_OPENEYE_CAN_SMILES>
CC1=C(C(=C2C(=C1)C=C(C=C2OC3C(C(C(C(O3)CO)O)O)O)OC)O)C(=O)C

>  <PUBCHEM_OPENEYE_ISO_SMILES>
CC1=C(C(=C2C(=C1)C=C(C=C2OC3C(C(C(C(O3)CO)O)O)O)OC)O)C(=O)C

>  <PUBCHEM_CACTVS_TPSA>
146

>  <PUBCHEM_MONOISOTOPIC_WEIGHT>
408.142

>  <PUBCHEM_TOTAL_CHARGE>
0

>  <PUBCHEM_HEAVY_ATOM_COUNT>
29

>  <PUBCHEM_ATOM_DEF_STEREO_COUNT>
0

>  <PUBCHEM_ATOM_UDEF_STEREO_COUNT>
5

>  <PUBCHEM_BOND_DEF_STEREO_COUNT>
0

>  <PUBCHEM_BOND_UDEF_STEREO_COUNT>
0

>  <PUBCHEM_ISOTOPIC_ATOM_COUNT>
0

>  <PUBCHEM_COMPONENT_COUNT>
1

>  <PUBCHEM_CACTVS_TAUTO_COUNT>
12

>  <PUBCHEM_COORDINATE_TYPE>
1
5
255

>  <PUBCHEM_BONDANNOTATIONS>
13  15  3
16  17  8
16  19  8
17  18  8
17  20  8
18  22  8
18  24  8
19  23  8
14  2  3
20  21  8
21  25  8
22  23  8
24  25  8
10  3  3
11  4  3
12  5  3

$$$$
