14353454
 OpenBabel06101807152D

 77 81  0  0  1  0  0  0  0  0999 V2000
    6.3301   -2.6330    0.0000 O   0  0  0  0  0  0  0  0  0  0  0  0
    6.3238    4.4396    0.0000 O   0  0  0  0  0  0  0  0  0  0  0  0
    8.0622   -2.6330    0.0000 O   0  0  0  0  0  0  0  0  0  0  0  0
    4.5981   -4.6330    0.0000 O   0  0  0  0  0  0  0  0  0  0  0  0
    6.3301   -5.6330    0.0000 O   0  0  0  0  0  0  0  0  0  0  0  0
    8.0622   -4.6330    0.0000 O   0  0  0  0  0  0  0  0  0  0  0  0
    7.1840    2.9363    0.0000 O   0  0  0  0  0  0  0  0  0  0  0  0
    3.7200    2.9496    0.0000 O   0  0  0  0  0  0  0  0  0  0  0  0
    3.7277    4.9496    0.0000 O   0  0  0  0  0  0  0  0  0  0  0  0
    5.4482    1.9430    0.0000 O   0  0  0  0  0  0  0  0  0  0  0  0
    3.7320   -3.1330    0.0000 O   0  0  0  0  0  0  0  0  0  0  0  0
    8.9282   -0.1330    0.0000 O   0  0  0  0  0  0  0  0  0  0  0  0
    6.3301   -1.6329    0.0000 O   0  0  0  0  0  0  0  0  0  0  0  0
    5.4260   -0.1361    0.0000 O   0  0  0  0  0  0  0  0  0  0  0  0
    2.8660   -1.6329    0.0000 O   0  0  0  0  0  0  0  0  0  0  0  0
   12.3923   -3.1330    0.0000 O   0  0  0  0  0  0  0  0  0  0  0  0
    5.4641   -4.1330    0.0000 C   0  0  3  0  0  0  0  0  0  0  0  0
    6.3301   -4.6330    0.0000 C   0  0  3  0  0  0  0  0  0  0  0  0
    5.4641   -3.1330    0.0000 C   0  0  3  0  0  0  0  0  0  0  0  0
    7.1962   -4.1330    0.0000 C   0  0  3  0  0  0  0  0  0  0  0  0
    7.1962   -3.1330    0.0000 C   0  0  3  0  0  0  0  0  0  0  0  0
    4.5879    3.4463    0.0000 C   0  0  3  0  0  0  0  0  0  0  0  0
    4.5918    4.4463    0.0000 C   0  0  3  0  0  0  0  0  0  0  0  0
    5.4520    2.9430    0.0000 C   0  0  3  0  0  0  0  0  0  0  0  0
    5.4597    4.9430    0.0000 C   0  0  3  0  0  0  0  0  0  0  0  0
    6.3200    3.4396    0.0000 C   0  0  3  0  0  0  0  0  0  0  0  0
    4.5981   -2.6330    0.0000 C   0  0  0  0  0  0  0  0  0  0  0  0
    5.4636    5.9430    0.0000 C   0  0  0  0  0  0  0  0  0  0  0  0
    8.0622   -1.6329    0.0000 C   0  0  0  0  0  0  0  0  0  0  0  0
    7.1802    1.9363    0.0000 C   0  0  0  0  0  0  0  0  0  0  0  0
    7.1962   -0.1330    0.0000 C   0  0  0  0  0  0  0  0  0  0  0  0
    7.1962   -1.1329    0.0000 C   0  0  0  0  0  0  0  0  0  0  0  0
    8.9282   -1.1329    0.0000 C   0  0  0  0  0  0  0  0  0  0  0  0
    8.0622    0.3670    0.0000 C   0  0  0  0  0  0  0  0  0  0  0  0
    8.0782    1.4086    0.0000 C   0  0  0  0  0  0  0  0  0  0  0  0
    6.2781    1.4155    0.0000 C   0  0  0  0  0  0  0  0  0  0  0  0
    6.2862    0.3739    0.0000 C   0  0  0  0  0  0  0  0  0  0  0  0
    9.7942   -1.6329    0.0000 C   0  0  0  0  0  0  0  0  0  0  0  0
    2.8660   -2.6330    0.0000 C   0  0  0  0  0  0  0  0  0  0  0  0
   10.6603   -1.1329    0.0000 C   0  0  0  0  0  0  0  0  0  0  0  0
    9.7942   -2.6330    0.0000 C   0  0  0  0  0  0  0  0  0  0  0  0
    2.0000   -3.1330    0.0000 C   0  0  0  0  0  0  0  0  0  0  0  0
   11.5263   -1.6329    0.0000 C   0  0  0  0  0  0  0  0  0  0  0  0
   10.6603   -3.1330    0.0000 C   0  0  0  0  0  0  0  0  0  0  0  0
   11.5263   -2.6330    0.0000 C   0  0  0  0  0  0  0  0  0  0  0  0
    5.4641   -4.7530    0.0000 H   0  0  0  0  0  0  0  0  0  0  0  0
    6.8671   -4.9430    0.0000 H   0  0  0  0  0  0  0  0  0  0  0  0
    5.4641   -2.5130    0.0000 H   0  0  0  0  0  0  0  0  0  0  0  0
    7.7331   -3.8230    0.0000 H   0  0  0  0  0  0  0  0  0  0  0  0
    7.1962   -2.5130    0.0000 H   0  0  0  0  0  0  0  0  0  0  0  0
    4.0522    3.7584    0.0000 H   0  0  0  0  0  0  0  0  0  0  0  0
    4.5942    5.0663    0.0000 H   0  0  0  0  0  0  0  0  0  0  0  0
    5.9878    2.6309    0.0000 H   0  0  0  0  0  0  0  0  0  0  0  0
    5.9978    5.2509    0.0000 H   0  0  0  0  0  0  0  0  0  0  0  0
    6.8581    3.7476    0.0000 H   0  0  0  0  0  0  0  0  0  0  0  0
    4.9966   -2.1580    0.0000 H   0  0  0  0  0  0  0  0  0  0  0  0
    4.1996   -2.1580    0.0000 H   0  0  0  0  0  0  0  0  0  0  0  0
    6.0836    5.9406    0.0000 H   0  0  0  0  0  0  0  0  0  0  0  0
    5.4660    6.5630    0.0000 H   0  0  0  0  0  0  0  0  0  0  0  0
    4.8436    5.9453    0.0000 H   0  0  0  0  0  0  0  0  0  0  0  0
    4.5981   -5.2530    0.0000 H   0  0  0  0  0  0  0  0  0  0  0  0
    5.7932   -5.9430    0.0000 H   0  0  0  0  0  0  0  0  0  0  0  0
    8.0622   -5.2530    0.0000 H   0  0  0  0  0  0  0  0  0  0  0  0
    3.1842    3.2617    0.0000 H   0  0  0  0  0  0  0  0  0  0  0  0
    3.7301    5.5696    0.0000 H   0  0  0  0  0  0  0  0  0  0  0  0
    4.9100    1.6351    0.0000 H   0  0  0  0  0  0  0  0  0  0  0  0
    8.6187    1.7123    0.0000 H   0  0  0  0  0  0  0  0  0  0  0  0
    5.7400    1.7234    0.0000 H   0  0  0  0  0  0  0  0  0  0  0  0
   10.6603   -0.5130    0.0000 H   0  0  0  0  0  0  0  0  0  0  0  0
    9.2573   -2.9430    0.0000 H   0  0  0  0  0  0  0  0  0  0  0  0
    1.6900   -2.5960    0.0000 H   0  0  0  0  0  0  0  0  0  0  0  0
    1.4631   -3.4430    0.0000 H   0  0  0  0  0  0  0  0  0  0  0  0
    2.3100   -3.6699    0.0000 H   0  0  0  0  0  0  0  0  0  0  0  0
    4.8855    0.1677    0.0000 H   0  0  0  0  0  0  0  0  0  0  0  0
   12.0632   -1.3230    0.0000 H   0  0  0  0  0  0  0  0  0  0  0  0
   10.6603   -3.7530    0.0000 H   0  0  0  0  0  0  0  0  0  0  0  0
   12.3923   -3.7530    0.0000 H   0  0  0  0  0  0  0  0  0  0  0  0
  1 19  1  0  0  0  0
  1 21  1  0  0  0  0
  2 25  1  0  0  0  0
  2 26  1  0  0  0  0
  3 21  1  0  0  0  0
  3 29  1  0  0  0  0
  4 17  1  0  0  0  0
  4 61  1  0  0  0  0
  5 18  1  0  0  0  0
  5 62  1  0  0  0  0
  6 20  1  0  0  0  0
  6 63  1  0  0  0  0
  7 26  1  0  0  0  0
  7 30  1  0  0  0  0
  8 22  1  0  0  0  0
  8 64  1  0  0  0  0
  9 23  1  0  0  0  0
  9 65  1  0  0  0  0
 10 24  1  0  0  0  0
 10 66  1  0  0  0  0
 11 27  1  0  0  0  0
 11 39  1  0  0  0  0
 12 33  1  0  0  0  0
 12 34  1  0  0  0  0
 13 32  2  0  0  0  0
 14 37  1  0  0  0  0
 14 74  1  0  0  0  0
 15 39  2  0  0  0  0
 16 45  1  0  0  0  0
 16 77  1  0  0  0  0
 17 18  1  0  0  0  0
 17 19  1  0  0  0  0
 17 46  1  0  0  0  0
 18 20  1  0  0  0  0
 18 47  1  0  0  0  0
 19 27  1  0  0  0  0
 19 48  1  0  0  0  0
 20 21  1  0  0  0  0
 20 49  1  0  0  0  0
 21 50  1  0  0  0  0
 22 23  1  0  0  0  0
 22 24  1  0  0  0  0
 22 51  1  0  0  0  0
 23 25  1  0  0  0  0
 23 52  1  0  0  0  0
 24 26  1  0  0  0  0
 24 53  1  0  0  0  0
 25 28  1  0  0  0  0
 25 54  1  0  0  0  0
 26 55  1  0  0  0  0
 27 56  1  0  0  0  0
 27 57  1  0  0  0  0
 28 58  1  0  0  0  0
 28 59  1  0  0  0  0
 28 60  1  0  0  0  0
 29 32  1  0  0  0  0
 29 33  2  0  0  0  0
 30 35  1  0  0  0  0
 30 36  2  0  0  0  0
 31 32  1  0  0  0  0
 31 34  1  0  0  0  0
 31 37  2  0  0  0  0
 33 38  1  0  0  0  0
 34 35  2  0  0  0  0
 35 67  1  0  0  0  0
 36 37  1  0  0  0  0
 36 68  1  0  0  0  0
 38 40  2  0  0  0  0
 38 41  1  0  0  0  0
 39 42  1  0  0  0  0
 40 43  1  0  0  0  0
 40 69  1  0  0  0  0
 41 44  2  0  0  0  0
 41 70  1  0  0  0  0
 42 71  1  0  0  0  0
 42 72  1  0  0  0  0
 42 73  1  0  0  0  0
 43 45  2  0  0  0  0
 43 75  1  0  0  0  0
 44 45  1  0  0  0  0
 44 76  1  0  0  0  0
M  END
>  <PUBCHEM_COMPOUND_CID>
14353454

>  <PUBCHEM_COMPOUND_CANONICALIZED>
1

>  <PUBCHEM_CACTVS_COMPLEXITY>
1090

>  <PUBCHEM_CACTVS_HBOND_ACCEPTOR>
16

>  <PUBCHEM_CACTVS_HBOND_DONOR>
8

>  <PUBCHEM_CACTVS_ROTATABLE_BOND>
8

>  <PUBCHEM_CACTVS_SUBSKEYS>
AAADcfB4PgAAAAAAAAAAAAAAAAAAAAAAAAA0aIECAAAAAACBQAAAGgAACAAADBSwmAMyDoAABgCIAqDSCAICCAAkIAAIiAFGCMgdNzaGNR6ieWCl4BUPuQfI7KzOIAAACAAIAABAAAAQABAAAAAAAAAAAA==

>  <PUBCHEM_IUPAC_OPENEYE_NAME>
[3,4,5-trihydroxy-6-[5-hydroxy-2-(4-hydroxyphenyl)-4-oxo-7-(3,4,5-trihydroxy-6-methyl-tetrahydropyran-2-yl)oxy-chromen-3-yl]oxy-tetrahydropyran-2-yl]methyl acetate

>  <PUBCHEM_IUPAC_CAS_NAME>
acetic acid [3,4,5-trihydroxy-6-[[5-hydroxy-2-(4-hydroxyphenyl)-4-oxo-7-[(3,4,5-trihydroxy-6-methyl-2-oxanyl)oxy]-1-benzopyran-3-yl]oxy]-2-oxanyl]methyl ester

>  <PUBCHEM_IUPAC_NAME>
[3,4,5-trihydroxy-6-[5-hydroxy-2-(4-hydroxyphenyl)-4-oxo-7-(3,4,5-trihydroxy-6-methyloxan-2-yl)oxychromen-3-yl]oxyoxan-2-yl]methyl acetate

>  <PUBCHEM_IUPAC_SYSTEMATIC_NAME>
[6-[2-(4-hydroxyphenyl)-7-[6-methyl-3,4,5-tris(oxidanyl)oxan-2-yl]oxy-5-oxidanyl-4-oxidanylidene-chromen-3-yl]oxy-3,4,5-tris(oxidanyl)oxan-2-yl]methyl ethanoate

>  <PUBCHEM_IUPAC_TRADITIONAL_NAME>
acetic acid [3,4,5-trihydroxy-6-[5-hydroxy-2-(4-hydroxyphenyl)-4-keto-7-(3,4,5-trihydroxy-6-methyl-tetrahydropyran-2-yl)oxy-chromen-3-yl]oxy-tetrahydropyran-2-yl]methyl ester

>  <PUBCHEM_IUPAC_INCHI>
InChI=1S/C29H32O16/c1-10-19(33)22(36)24(38)28(41-10)42-14-7-15(32)18-16(8-14)43-26(12-3-5-13(31)6-4-12)27(21(18)35)45-29-25(39)23(37)20(34)17(44-29)9-40-11(2)30/h3-8,10,17,19-20,22-25,28-29,31-34,36-39H,9H2,1-2H3

>  <PUBCHEM_IUPAC_INCHIKEY>
GMYLPJSOUAYAGD-UHFFFAOYSA-N

>  <PUBCHEM_XLOGP3_AA>
-0.6

>  <PUBCHEM_EXACT_MASS>
636.169

>  <PUBCHEM_MOLECULAR_FORMULA>
C29H32O16

>  <PUBCHEM_MOLECULAR_WEIGHT>
636.559

>  <PUBCHEM_OPENEYE_CAN_SMILES>
CC1C(C(C(C(O1)OC2=CC(=C3C(=C2)OC(=C(C3=O)OC4C(C(C(C(O4)COC(=O)C)O)O)O)C5=CC=C(C=C5)O)O)O)O)O

>  <PUBCHEM_OPENEYE_ISO_SMILES>
CC1C(C(C(C(O1)OC2=CC(=C3C(=C2)OC(=C(C3=O)OC4C(C(C(C(O4)COC(=O)C)O)O)O)C5=CC=C(C=C5)O)O)O)O)O

>  <PUBCHEM_CACTVS_TPSA>
251

>  <PUBCHEM_MONOISOTOPIC_WEIGHT>
636.169

>  <PUBCHEM_TOTAL_CHARGE>
0

>  <PUBCHEM_HEAVY_ATOM_COUNT>
45

>  <PUBCHEM_ATOM_DEF_STEREO_COUNT>
0

>  <PUBCHEM_ATOM_UDEF_STEREO_COUNT>
10

>  <PUBCHEM_BOND_DEF_STEREO_COUNT>
0

>  <PUBCHEM_BOND_UDEF_STEREO_COUNT>
0

>  <PUBCHEM_ISOTOPIC_ATOM_COUNT>
0

>  <PUBCHEM_COMPONENT_COUNT>
1

>  <PUBCHEM_CACTVS_TAUTO_COUNT>
24

>  <PUBCHEM_COORDINATE_TYPE>
1
5
255

>  <PUBCHEM_BONDANNOTATIONS>
24  10  3
12  33  8
12  34  8
19  27  3
25  28  3
29  32  8
29  33  8
21  3  3
30  35  8
30  36  8
31  32  8
31  34  8
31  37  8
34  35  8
36  37  8
38  40  8
38  41  8
17  4  3
40  43  8
41  44  8
43  45  8
44  45  8
18  5  3
20  6  3
26  7  3
22  8  3
23  9  3

$$$$
