14355975
 OpenBabel06101807152D

 30 32  0  0  0  0  0  0  0  0999 V2000
    2.5836    0.7701    0.0000 O   0  0  0  0  0  0  0  0  0  0  0  0
    2.5836   -0.8394    0.0000 O   0  0  0  0  0  0  0  0  0  0  0  0
    4.3958   -2.0346    0.0000 O   0  0  0  0  0  0  0  0  0  0  0  0
    7.0321    0.4622    0.0000 O   0  0  0  0  0  0  0  0  0  0  0  0
    6.1799    2.0138    0.0000 N   0  0  0  0  0  0  0  0  0  0  0  0
    4.3958    0.9654    0.0000 C   0  0  0  0  0  0  0  0  0  0  0  0
    4.3798    2.0069    0.0000 C   0  0  0  0  0  0  0  0  0  0  0  0
    5.2778    2.5346    0.0000 C   0  0  0  0  0  0  0  0  0  0  0  0
    5.2619    0.4654    0.0000 C   0  0  0  0  0  0  0  0  0  0  0  0
    3.5298    0.4654    0.0000 C   0  0  0  0  0  0  0  0  0  0  0  0
    6.1719    0.9722    0.0000 C   0  0  0  0  0  0  0  0  0  0  0  0
    3.5298   -0.5346    0.0000 C   0  0  0  0  0  0  0  0  0  0  0  0
    5.2619   -0.5346    0.0000 C   0  0  0  0  0  0  0  0  0  0  0  0
    4.3958   -1.0346    0.0000 C   0  0  0  0  0  0  0  0  0  0  0  0
    7.0479    2.5105    0.0000 C   0  0  0  0  0  0  0  0  0  0  0  0
    2.0000   -0.0346    0.0000 C   0  0  0  0  0  0  0  0  0  0  0  0
    5.2619   -2.5346    0.0000 C   0  0  0  0  0  0  0  0  0  0  0  0
    4.1618    2.5873    0.0000 H   0  0  0  0  0  0  0  0  0  0  0  0
    3.7706    1.8914    0.0000 H   0  0  0  0  0  0  0  0  0  0  0  0
    5.6751    3.0106    0.0000 H   0  0  0  0  0  0  0  0  0  0  0  0
    4.8769    3.0075    0.0000 H   0  0  0  0  0  0  0  0  0  0  0  0
    5.7988   -0.8446    0.0000 H   0  0  0  0  0  0  0  0  0  0  0  0
    7.3558    1.9724    0.0000 H   0  0  0  0  0  0  0  0  0  0  0  0
    7.5860    2.8184    0.0000 H   0  0  0  0  0  0  0  0  0  0  0  0
    6.7399    3.0486    0.0000 H   0  0  0  0  0  0  0  0  0  0  0  0
    1.5391    0.3801    0.0000 H   0  0  0  0  0  0  0  0  0  0  0  0
    1.5391   -0.4494    0.0000 H   0  0  0  0  0  0  0  0  0  0  0  0
    4.9519   -3.0716    0.0000 H   0  0  0  0  0  0  0  0  0  0  0  0
    5.7988   -2.8446    0.0000 H   0  0  0  0  0  0  0  0  0  0  0  0
    5.5719   -1.9977    0.0000 H   0  0  0  0  0  0  0  0  0  0  0  0
  1 10  1  0  0  0  0
  1 16  1  0  0  0  0
  2 12  1  0  0  0  0
  2 16  1  0  0  0  0
  3 14  1  0  0  0  0
  3 17  1  0  0  0  0
  4 11  2  0  0  0  0
  5  8  1  0  0  0  0
  5 11  1  0  0  0  0
  5 15  1  0  0  0  0
  6  7  1  0  0  0  0
  6  9  1  0  0  0  0
  6 10  2  0  0  0  0
  7  8  1  0  0  0  0
  7 18  1  0  0  0  0
  7 19  1  0  0  0  0
  8 20  1  0  0  0  0
  8 21  1  0  0  0  0
  9 11  1  0  0  0  0
  9 13  2  0  0  0  0
 10 12  1  0  0  0  0
 12 14  2  0  0  0  0
 13 14  1  0  0  0  0
 13 22  1  0  0  0  0
 15 23  1  0  0  0  0
 15 24  1  0  0  0  0
 15 25  1  0  0  0  0
 16 26  1  0  0  0  0
 16 27  1  0  0  0  0
 17 28  1  0  0  0  0
 17 29  1  0  0  0  0
 17 30  1  0  0  0  0
M  END
>  <PUBCHEM_COMPOUND_CID>
14355975

>  <PUBCHEM_COMPOUND_CANONICALIZED>
1

>  <PUBCHEM_CACTVS_COMPLEXITY>
322

>  <PUBCHEM_CACTVS_HBOND_ACCEPTOR>
4

>  <PUBCHEM_CACTVS_HBOND_DONOR>
0

>  <PUBCHEM_CACTVS_ROTATABLE_BOND>
1

>  <PUBCHEM_CACTVS_SUBSKEYS>
AAADccByOAAAAAAAAAAAAAAAAAAAASAAAAA8QAAAAAAAAEixAAAAHgAAAAAADATBmAcyDoMABACIAiFSEACCCAAkIAAAiAEOjMgdJzKEtBukMSplxhWOqYe6/b7OoAABCAAYQABAAAIQADCAAAAAAAAAAA==

>  <PUBCHEM_IUPAC_OPENEYE_NAME>
4-methoxy-7-methyl-8,9-dihydro-[1,3]dioxolo[4,5-f]isoquinolin-6-one

>  <PUBCHEM_IUPAC_CAS_NAME>
4-methoxy-7-methyl-8,9-dihydro-[1,3]dioxolo[4,5-f]isoquinolin-6-one

>  <PUBCHEM_IUPAC_NAME>
4-methoxy-7-methyl-8,9-dihydro-[1,3]dioxolo[4,5-f]isoquinolin-6-one

>  <PUBCHEM_IUPAC_SYSTEMATIC_NAME>
4-methoxy-7-methyl-8,9-dihydro-[1,3]dioxolo[4,5-f]isoquinolin-6-one

>  <PUBCHEM_IUPAC_TRADITIONAL_NAME>
4-methoxy-7-methyl-8,9-dihydro-[1,3]dioxol[4,5-f]isoquinolin-6-one

>  <PUBCHEM_IUPAC_INCHI>
InChI=1S/C12H13NO4/c1-13-4-3-7-8(12(13)14)5-9(15-2)11-10(7)16-6-17-11/h5H,3-4,6H2,1-2H3

>  <PUBCHEM_IUPAC_INCHIKEY>
MFRDKFMNFJXLSH-UHFFFAOYSA-N

>  <PUBCHEM_XLOGP3_AA>
1.2

>  <PUBCHEM_EXACT_MASS>
235.084

>  <PUBCHEM_MOLECULAR_FORMULA>
C12H13NO4

>  <PUBCHEM_MOLECULAR_WEIGHT>
235.239

>  <PUBCHEM_OPENEYE_CAN_SMILES>
CN1CCC2=C3C(=C(C=C2C1=O)OC)OCO3

>  <PUBCHEM_OPENEYE_ISO_SMILES>
CN1CCC2=C3C(=C(C=C2C1=O)OC)OCO3

>  <PUBCHEM_CACTVS_TPSA>
48

>  <PUBCHEM_MONOISOTOPIC_WEIGHT>
235.084

>  <PUBCHEM_TOTAL_CHARGE>
0

>  <PUBCHEM_HEAVY_ATOM_COUNT>
17

>  <PUBCHEM_ATOM_DEF_STEREO_COUNT>
0

>  <PUBCHEM_ATOM_UDEF_STEREO_COUNT>
0

>  <PUBCHEM_BOND_DEF_STEREO_COUNT>
0

>  <PUBCHEM_BOND_UDEF_STEREO_COUNT>
0

>  <PUBCHEM_ISOTOPIC_ATOM_COUNT>
0

>  <PUBCHEM_COMPONENT_COUNT>
1

>  <PUBCHEM_CACTVS_TAUTO_COUNT>
1

>  <PUBCHEM_COORDINATE_TYPE>
1
5
255

>  <PUBCHEM_BONDANNOTATIONS>
10  12  8
12  14  8
13  14  8
6  10  8
6  9  8
9  13  8

$$$$
