14353466
 OpenBabel06101807152D

 39 42  0  0  0  0  0  0  0  0999 V2000
    6.3580   -1.4884    0.0000 O   0  0  0  0  0  0  0  0  0  0  0  0
   10.8076    0.2760    0.0000 O   0  0  0  0  0  0  0  0  0  0  0  0
   10.8014    1.8855    0.0000 O   0  0  0  0  0  0  0  0  0  0  0  0
    4.5981    1.5463    0.0000 O   0  0  0  0  0  0  0  0  0  0  0  0
    2.8660    0.5463    0.0000 O   0  0  0  0  0  0  0  0  0  0  0  0
    6.3465    1.5809    0.0000 O   0  0  0  0  0  0  0  0  0  0  0  0
    2.8660   -1.4537    0.0000 O   0  0  0  0  0  0  0  0  0  0  0  0
    5.4641    0.0463    0.0000 C   0  0  0  0  0  0  0  0  0  0  0  0
    7.2641    0.0671    0.0000 C   0  0  0  0  0  0  0  0  0  0  0  0
    8.1282    0.5704    0.0000 C   0  0  0  0  0  0  0  0  0  0  0  0
    6.3580    0.5809    0.0000 C   0  0  0  0  0  0  0  0  0  0  0  0
    5.4641   -0.9537    0.0000 C   0  0  0  0  0  0  0  0  0  0  0  0
    4.5981    0.5463    0.0000 C   0  0  0  0  0  0  0  0  0  0  0  0
    8.9962    0.0738    0.0000 C   0  0  0  0  0  0  0  0  0  0  0  0
    9.8602    0.5771    0.0000 C   0  0  0  0  0  0  0  0  0  0  0  0
    9.8564    1.5771    0.0000 C   0  0  0  0  0  0  0  0  0  0  0  0
    8.1244    1.5704    0.0000 C   0  0  0  0  0  0  0  0  0  0  0  0
    7.2641   -0.9746    0.0000 C   0  0  0  0  0  0  0  0  0  0  0  0
    3.7320    0.0463    0.0000 C   0  0  0  0  0  0  0  0  0  0  0  0
    4.5981   -1.4537    0.0000 C   0  0  0  0  0  0  0  0  0  0  0  0
    3.7320   -0.9537    0.0000 C   0  0  0  0  0  0  0  0  0  0  0  0
    8.9884    2.0737    0.0000 C   0  0  0  0  0  0  0  0  0  0  0  0
   11.3881    1.0830    0.0000 C   0  0  0  0  0  0  0  0  0  0  0  0
    3.7320    2.0463    0.0000 C   0  0  0  0  0  0  0  0  0  0  0  0
    2.0000    0.0463    0.0000 C   0  0  0  0  0  0  0  0  0  0  0  0
    8.9985   -0.5462    0.0000 H   0  0  0  0  0  0  0  0  0  0  0  0
    7.5862    1.8783    0.0000 H   0  0  0  0  0  0  0  0  0  0  0  0
    7.7998   -1.2866    0.0000 H   0  0  0  0  0  0  0  0  0  0  0  0
    4.5981   -2.0737    0.0000 H   0  0  0  0  0  0  0  0  0  0  0  0
    8.9860    2.6937    0.0000 H   0  0  0  0  0  0  0  0  0  0  0  0
   11.8506    0.6700    0.0000 H   0  0  0  0  0  0  0  0  0  0  0  0
   11.8474    1.4995    0.0000 H   0  0  0  0  0  0  0  0  0  0  0  0
    4.0420    2.5832    0.0000 H   0  0  0  0  0  0  0  0  0  0  0  0
    3.1951    2.3563    0.0000 H   0  0  0  0  0  0  0  0  0  0  0  0
    3.4220    1.5093    0.0000 H   0  0  0  0  0  0  0  0  0  0  0  0
    2.8660   -2.0737    0.0000 H   0  0  0  0  0  0  0  0  0  0  0  0
    1.6900    0.5832    0.0000 H   0  0  0  0  0  0  0  0  0  0  0  0
    1.4631   -0.2637    0.0000 H   0  0  0  0  0  0  0  0  0  0  0  0
    2.3100   -0.4907    0.0000 H   0  0  0  0  0  0  0  0  0  0  0  0
  1 12  1  0  0  0  0
  1 18  1  0  0  0  0
  2 15  1  0  0  0  0
  2 23  1  0  0  0  0
  3 16  1  0  0  0  0
  3 23  1  0  0  0  0
  4 13  1  0  0  0  0
  4 24  1  0  0  0  0
  5 19  1  0  0  0  0
  5 25  1  0  0  0  0
  6 11  2  0  0  0  0
  7 21  1  0  0  0  0
  7 36  1  0  0  0  0
  8 11  1  0  0  0  0
  8 12  2  0  0  0  0
  8 13  1  0  0  0  0
  9 10  1  0  0  0  0
  9 11  1  0  0  0  0
  9 18  2  0  0  0  0
 10 14  2  0  0  0  0
 10 17  1  0  0  0  0
 12 20  1  0  0  0  0
 13 19  2  0  0  0  0
 14 15  1  0  0  0  0
 14 26  1  0  0  0  0
 15 16  2  0  0  0  0
 16 22  1  0  0  0  0
 17 22  2  0  0  0  0
 17 27  1  0  0  0  0
 18 28  1  0  0  0  0
 19 21  1  0  0  0  0
 20 21  2  0  0  0  0
 20 29  1  0  0  0  0
 22 30  1  0  0  0  0
 23 31  1  0  0  0  0
 23 32  1  0  0  0  0
 24 33  1  0  0  0  0
 24 34  1  0  0  0  0
 24 35  1  0  0  0  0
 25 37  1  0  0  0  0
 25 38  1  0  0  0  0
 25 39  1  0  0  0  0
M  END
>  <PUBCHEM_COMPOUND_CID>
14353466

>  <PUBCHEM_COMPOUND_CANONICALIZED>
1

>  <PUBCHEM_CACTVS_COMPLEXITY>
548

>  <PUBCHEM_CACTVS_HBOND_ACCEPTOR>
7

>  <PUBCHEM_CACTVS_HBOND_DONOR>
1

>  <PUBCHEM_CACTVS_ROTATABLE_BOND>
3

>  <PUBCHEM_CACTVS_SUBSKEYS>
AAADccB4OAAAAAAAAAAAAAAAAAAAASAAAAAwYIAAAAAAAEiBQAAAGgAACAAADASgmAMyDoAABgCIAqBSAAACCAAkIAAIiAEGiMgdJzaGNRqgcWMl4BUPuYfK7PzOIQABCAAIQABCAAIQABCAAAAAAAAAAA==

>  <PUBCHEM_IUPAC_OPENEYE_NAME>
3-(1,3-benzodioxol-5-yl)-7-hydroxy-5,6-dimethoxy-chromen-4-one

>  <PUBCHEM_IUPAC_CAS_NAME>
3-(1,3-benzodioxol-5-yl)-7-hydroxy-5,6-dimethoxy-1-benzopyran-4-one

>  <PUBCHEM_IUPAC_NAME>
3-(1,3-benzodioxol-5-yl)-7-hydroxy-5,6-dimethoxychromen-4-one

>  <PUBCHEM_IUPAC_SYSTEMATIC_NAME>
3-(1,3-benzodioxol-5-yl)-5,6-dimethoxy-7-oxidanyl-chromen-4-one

>  <PUBCHEM_IUPAC_TRADITIONAL_NAME>
3-(1,3-benzodioxol-5-yl)-7-hydroxy-5,6-dimethoxy-chromone

>  <PUBCHEM_IUPAC_INCHI>
InChI=1S/C18H14O7/c1-21-17-11(19)6-14-15(18(17)22-2)16(20)10(7-23-14)9-3-4-12-13(5-9)25-8-24-12/h3-7,19H,8H2,1-2H3

>  <PUBCHEM_IUPAC_INCHIKEY>
MJQUWACFHNKSDV-UHFFFAOYSA-N

>  <PUBCHEM_XLOGP3_AA>
2.6

>  <PUBCHEM_EXACT_MASS>
342.074

>  <PUBCHEM_MOLECULAR_FORMULA>
C18H14O7

>  <PUBCHEM_MOLECULAR_WEIGHT>
342.303

>  <PUBCHEM_OPENEYE_CAN_SMILES>
COC1=C(C=C2C(=C1OC)C(=O)C(=CO2)C3=CC4=C(C=C3)OCO4)O

>  <PUBCHEM_OPENEYE_ISO_SMILES>
COC1=C(C=C2C(=C1OC)C(=O)C(=CO2)C3=CC4=C(C=C3)OCO4)O

>  <PUBCHEM_CACTVS_TPSA>
83.4

>  <PUBCHEM_MONOISOTOPIC_WEIGHT>
342.074

>  <PUBCHEM_TOTAL_CHARGE>
0

>  <PUBCHEM_HEAVY_ATOM_COUNT>
25

>  <PUBCHEM_ATOM_DEF_STEREO_COUNT>
0

>  <PUBCHEM_ATOM_UDEF_STEREO_COUNT>
0

>  <PUBCHEM_BOND_DEF_STEREO_COUNT>
0

>  <PUBCHEM_BOND_UDEF_STEREO_COUNT>
0

>  <PUBCHEM_ISOTOPIC_ATOM_COUNT>
0

>  <PUBCHEM_COMPONENT_COUNT>
1

>  <PUBCHEM_CACTVS_TAUTO_COUNT>
5

>  <PUBCHEM_COORDINATE_TYPE>
1
5
255

>  <PUBCHEM_BONDANNOTATIONS>
1  12  8
1  18  8
10  14  8
10  17  8
12  20  8
13  19  8
14  15  8
15  16  8
16  22  8
17  22  8
19  21  8
20  21  8
8  11  8
8  12  8
8  13  8
9  11  8
9  18  8

$$$$
