14353451
 OpenBabel06101807152D

 97102  0  0  1  0  0  0  0  0999 V2000
    6.0010   -2.7715    0.0000 O   0  0  0  0  0  0  0  0  0  0  0  0
    6.8671   -0.2715    0.0000 O   0  0  0  0  0  0  0  0  0  0  0  0
    4.2690   -2.7715    0.0000 O   0  0  0  0  0  0  0  0  0  0  0  0
    7.7331   -1.7715    0.0000 O   0  0  0  0  0  0  0  0  0  0  0  0
    4.2690   -1.7715    0.0000 O   0  0  0  0  0  0  0  0  0  0  0  0
    4.2690    0.2285    0.0000 O   0  0  0  0  0  0  0  0  0  0  0  0
    6.0010   -4.7715    0.0000 O   0  0  0  0  0  0  0  0  0  0  0  0
    4.2690   -5.7715    0.0000 O   0  0  0  0  0  0  0  0  0  0  0  0
    2.5369   -4.7715    0.0000 O   0  0  0  0  0  0  0  0  0  0  0  0
    5.1350    1.7285    0.0000 O   0  0  0  0  0  0  0  0  0  0  0  0
   12.9889    3.2702    0.0000 O   0  0  0  0  0  0  0  0  0  0  0  0
   12.1171    1.7736    0.0000 O   0  0  0  0  0  0  0  0  0  0  0  0
   10.3967    4.7803    0.0000 O   0  0  0  0  0  0  0  0  0  0  0  0
   12.1326    5.7736    0.0000 O   0  0  0  0  0  0  0  0  0  0  0  0
   10.3890    2.7803    0.0000 O   0  0  0  0  0  0  0  0  0  0  0  0
   10.3312   -1.2715    0.0000 O   0  0  0  0  0  0  0  0  0  0  0  0
    7.7331    0.2285    0.0000 O   0  0  0  0  0  0  0  0  0  0  0  0
    8.5773    1.7600    0.0000 O   0  0  0  0  0  0  0  0  0  0  0  0
    6.0010    3.2285    0.0000 O   0  0  0  0  0  0  0  0  0  0  0  0
    9.4651   -5.7715    0.0000 O   0  0  0  0  0  0  0  0  0  0  0  0
    6.0010   -1.7715    0.0000 C   0  0  3  0  0  0  0  0  0  0  0  0
    5.1350   -1.2715    0.0000 C   0  0  3  0  0  0  0  0  0  0  0  0
    5.1350   -0.2715    0.0000 C   0  0  3  0  0  0  0  0  0  0  0  0
    5.1350   -3.2715    0.0000 C   0  0  3  0  0  0  0  0  0  0  0  0
    6.8671   -1.2715    0.0000 C   0  0  3  0  0  0  0  0  0  0  0  0
    6.0010    0.2285    0.0000 C   0  0  3  0  0  0  0  0  0  0  0  0
    5.1350   -4.2715    0.0000 C   0  0  3  0  0  0  0  0  0  0  0  0
    4.2690   -4.7715    0.0000 C   0  0  3  0  0  0  0  0  0  0  0  0
    3.4030   -4.2715    0.0000 C   0  0  3  0  0  0  0  0  0  0  0  0
    3.4030   -3.2715    0.0000 C   0  0  3  0  0  0  0  0  0  0  0  0
    6.0010    1.2285    0.0000 C   0  0  0  0  0  0  0  0  0  0  0  0
    2.5369   -2.7715    0.0000 C   0  0  0  0  0  0  0  0  0  0  0  0
   11.2608    4.2769    0.0000 C   0  0  3  0  0  0  0  0  0  0  0  0
   12.1287    4.7736    0.0000 C   0  0  3  0  0  0  0  0  0  0  0  0
   11.2569    3.2769    0.0000 C   0  0  3  0  0  0  0  0  0  0  0  0
   12.9928    4.2702    0.0000 C   0  0  3  0  0  0  0  0  0  0  0  0
   12.1210    2.7736    0.0000 C   0  0  3  0  0  0  0  0  0  0  0  0
    8.5991   -1.2715    0.0000 C   0  0  0  0  0  0  0  0  0  0  0  0
   13.8607    4.7669    0.0000 C   0  0  0  0  0  0  0  0  0  0  0  0
    9.4651   -1.7715    0.0000 C   0  0  0  0  0  0  0  0  0  0  0  0
    8.5991   -0.2715    0.0000 C   0  0  0  0  0  0  0  0  0  0  0  0
    9.4651    0.2285    0.0000 C   0  0  0  0  0  0  0  0  0  0  0  0
   10.3312   -0.2715    0.0000 C   0  0  0  0  0  0  0  0  0  0  0  0
   11.2492    1.2769    0.0000 C   0  0  0  0  0  0  0  0  0  0  0  0
    5.1350    2.7285    0.0000 C   0  0  0  0  0  0  0  0  0  0  0  0
   11.2412    0.2353    0.0000 C   0  0  0  0  0  0  0  0  0  0  0  0
    9.4491    1.2700    0.0000 C   0  0  0  0  0  0  0  0  0  0  0  0
    9.4651   -2.7715    0.0000 C   0  0  0  0  0  0  0  0  0  0  0  0
   10.3471    1.7978    0.0000 C   0  0  0  0  0  0  0  0  0  0  0  0
    4.2690    3.2285    0.0000 C   0  0  0  0  0  0  0  0  0  0  0  0
   10.3312   -3.2715    0.0000 C   0  0  0  0  0  0  0  0  0  0  0  0
    8.5991   -3.2715    0.0000 C   0  0  0  0  0  0  0  0  0  0  0  0
   10.3312   -4.2715    0.0000 C   0  0  0  0  0  0  0  0  0  0  0  0
    8.5991   -4.2715    0.0000 C   0  0  0  0  0  0  0  0  0  0  0  0
    9.4651   -4.7715    0.0000 C   0  0  0  0  0  0  0  0  0  0  0  0
    6.5380   -2.0815    0.0000 H   0  0  0  0  0  0  0  0  0  0  0  0
    5.1350   -1.8915    0.0000 H   0  0  0  0  0  0  0  0  0  0  0  0
    5.1350    0.3485    0.0000 H   0  0  0  0  0  0  0  0  0  0  0  0
    5.1350   -2.6515    0.0000 H   0  0  0  0  0  0  0  0  0  0  0  0
    7.4040   -0.9615    0.0000 H   0  0  0  0  0  0  0  0  0  0  0  0
    6.5380    0.5385    0.0000 H   0  0  0  0  0  0  0  0  0  0  0  0
    5.1350   -4.8915    0.0000 H   0  0  0  0  0  0  0  0  0  0  0  0
    3.7320   -5.0815    0.0000 H   0  0  0  0  0  0  0  0  0  0  0  0
    2.8660   -3.9615    0.0000 H   0  0  0  0  0  0  0  0  0  0  0  0
    3.4030   -2.6515    0.0000 H   0  0  0  0  0  0  0  0  0  0  0  0
    6.6116    1.1208    0.0000 H   0  0  0  0  0  0  0  0  0  0  0  0
    6.2131    1.8111    0.0000 H   0  0  0  0  0  0  0  0  0  0  0  0
    2.8469   -2.2346    0.0000 H   0  0  0  0  0  0  0  0  0  0  0  0
    2.0000   -2.4615    0.0000 H   0  0  0  0  0  0  0  0  0  0  0  0
    2.2269   -3.3084    0.0000 H   0  0  0  0  0  0  0  0  0  0  0  0
    3.7320   -1.4615    0.0000 H   0  0  0  0  0  0  0  0  0  0  0  0
    4.2690    0.8485    0.0000 H   0  0  0  0  0  0  0  0  0  0  0  0
   10.7226    3.9690    0.0000 H   0  0  0  0  0  0  0  0  0  0  0  0
   11.5930    5.0856    0.0000 H   0  0  0  0  0  0  0  0  0  0  0  0
    6.0010   -5.3915    0.0000 H   0  0  0  0  0  0  0  0  0  0  0  0
   11.2545    2.6569    0.0000 H   0  0  0  0  0  0  0  0  0  0  0  0
   13.5285    3.9582    0.0000 H   0  0  0  0  0  0  0  0  0  0  0  0
    3.7320   -6.0815    0.0000 H   0  0  0  0  0  0  0  0  0  0  0  0
    2.0000   -4.4615    0.0000 H   0  0  0  0  0  0  0  0  0  0  0  0
   12.6567    2.4615    0.0000 H   0  0  0  0  0  0  0  0  0  0  0  0
   14.1687    4.2288    0.0000 H   0  0  0  0  0  0  0  0  0  0  0  0
   14.3989    5.0748    0.0000 H   0  0  0  0  0  0  0  0  0  0  0  0
   13.5528    5.3050    0.0000 H   0  0  0  0  0  0  0  0  0  0  0  0
   10.3991    5.4002    0.0000 H   0  0  0  0  0  0  0  0  0  0  0  0
   12.6707    6.0815    0.0000 H   0  0  0  0  0  0  0  0  0  0  0  0
    9.8532    3.0923    0.0000 H   0  0  0  0  0  0  0  0  0  0  0  0
   11.7745   -0.0808    0.0000 H   0  0  0  0  0  0  0  0  0  0  0  0
   10.3447    2.4178    0.0000 H   0  0  0  0  0  0  0  0  0  0  0  0
    4.5790    3.7654    0.0000 H   0  0  0  0  0  0  0  0  0  0  0  0
    3.7320    3.5385    0.0000 H   0  0  0  0  0  0  0  0  0  0  0  0
    3.9590    2.6916    0.0000 H   0  0  0  0  0  0  0  0  0  0  0  0
   10.8681   -2.9615    0.0000 H   0  0  0  0  0  0  0  0  0  0  0  0
    8.0622   -2.9615    0.0000 H   0  0  0  0  0  0  0  0  0  0  0  0
    8.5702    2.3799    0.0000 H   0  0  0  0  0  0  0  0  0  0  0  0
   10.8681   -4.5815    0.0000 H   0  0  0  0  0  0  0  0  0  0  0  0
    8.0622   -4.5815    0.0000 H   0  0  0  0  0  0  0  0  0  0  0  0
    8.9282   -6.0815    0.0000 H   0  0  0  0  0  0  0  0  0  0  0  0
  1 21  1  0  0  0  0
  1 24  1  0  0  0  0
  2 25  1  0  0  0  0
  2 26  1  0  0  0  0
  3 24  1  0  0  0  0
  3 30  1  0  0  0  0
  4 25  1  0  0  0  0
  4 38  1  0  0  0  0
  5 22  1  0  0  0  0
  5 71  1  0  0  0  0
  6 23  1  0  0  0  0
  6 72  1  0  0  0  0
  7 27  1  0  0  0  0
  7 75  1  0  0  0  0
  8 28  1  0  0  0  0
  8 78  1  0  0  0  0
  9 29  1  0  0  0  0
  9 79  1  0  0  0  0
 10 31  1  0  0  0  0
 10 45  1  0  0  0  0
 11 36  1  0  0  0  0
 11 37  1  0  0  0  0
 12 37  1  0  0  0  0
 12 44  1  0  0  0  0
 13 33  1  0  0  0  0
 13 84  1  0  0  0  0
 14 34  1  0  0  0  0
 14 85  1  0  0  0  0
 15 35  1  0  0  0  0
 15 86  1  0  0  0  0
 16 40  1  0  0  0  0
 16 43  1  0  0  0  0
 17 41  2  0  0  0  0
 18 47  1  0  0  0  0
 18 94  1  0  0  0  0
 19 45  2  0  0  0  0
 20 55  1  0  0  0  0
 20 97  1  0  0  0  0
 21 22  1  0  0  0  0
 21 25  1  0  0  0  0
 21 56  1  0  0  0  0
 22 23  1  0  0  0  0
 22 57  1  0  0  0  0
 23 26  1  0  0  0  0
 23 58  1  0  0  0  0
 24 27  1  0  0  0  0
 24 59  1  0  0  0  0
 25 60  1  0  0  0  0
 26 31  1  0  0  0  0
 26 61  1  0  0  0  0
 27 28  1  0  0  0  0
 27 62  1  0  0  0  0
 28 29  1  0  0  0  0
 28 63  1  0  0  0  0
 29 30  1  0  0  0  0
 29 64  1  0  0  0  0
 30 32  1  0  0  0  0
 30 65  1  0  0  0  0
 31 66  1  0  0  0  0
 31 67  1  0  0  0  0
 32 68  1  0  0  0  0
 32 69  1  0  0  0  0
 32 70  1  0  0  0  0
 33 34  1  0  0  0  0
 33 35  1  0  0  0  0
 33 73  1  0  0  0  0
 34 36  1  0  0  0  0
 34 74  1  0  0  0  0
 35 37  1  0  0  0  0
 35 76  1  0  0  0  0
 36 39  1  0  0  0  0
 36 77  1  0  0  0  0
 37 80  1  0  0  0  0
 38 40  2  0  0  0  0
 38 41  1  0  0  0  0
 39 81  1  0  0  0  0
 39 82  1  0  0  0  0
 39 83  1  0  0  0  0
 40 48  1  0  0  0  0
 41 42  1  0  0  0  0
 42 43  1  0  0  0  0
 42 47  2  0  0  0  0
 43 46  2  0  0  0  0
 44 46  1  0  0  0  0
 44 49  2  0  0  0  0
 45 50  1  0  0  0  0
 46 87  1  0  0  0  0
 47 49  1  0  0  0  0
 48 51  2  0  0  0  0
 48 52  1  0  0  0  0
 49 88  1  0  0  0  0
 50 89  1  0  0  0  0
 50 90  1  0  0  0  0
 50 91  1  0  0  0  0
 51 53  1  0  0  0  0
 51 92  1  0  0  0  0
 52 54  2  0  0  0  0
 52 93  1  0  0  0  0
 53 55  2  0  0  0  0
 53 95  1  0  0  0  0
 54 55  1  0  0  0  0
 54 96  1  0  0  0  0
M  END
>  <PUBCHEM_COMPOUND_CID>
14353451

>  <PUBCHEM_COMPOUND_CANONICALIZED>
1

>  <PUBCHEM_CACTVS_COMPLEXITY>
1370

>  <PUBCHEM_CACTVS_HBOND_ACCEPTOR>
20

>  <PUBCHEM_CACTVS_HBOND_DONOR>
10

>  <PUBCHEM_CACTVS_ROTATABLE_BOND>
10

>  <PUBCHEM_CACTVS_SUBSKEYS>
AAADcfB8PgAAAAAAAAAAAAAAAAAAAAAAAAA0aJECAAAAAACBQAAAGgAACAAADBSwmAMyDoAABgCIAqDSCAICCAAkIAAIiAFGCMgdNzaGNR6ieWCl4BUPuQfI7KzOIAAACAAIAABAAAAQABAAAAAAAAAAAA==

>  <PUBCHEM_IUPAC_OPENEYE_NAME>
[3,4-dihydroxy-6-[5-hydroxy-2-(4-hydroxyphenyl)-4-oxo-7-(3,4,5-trihydroxy-6-methyl-tetrahydropyran-2-yl)oxy-chromen-3-yl]oxy-5-(3,4,5-trihydroxy-6-methyl-tetrahydropyran-2-yl)oxy-tetrahydropyran-2-yl]methyl acetate

>  <PUBCHEM_IUPAC_CAS_NAME>
acetic acid [3,4-dihydroxy-6-[[5-hydroxy-2-(4-hydroxyphenyl)-4-oxo-7-[(3,4,5-trihydroxy-6-methyl-2-oxanyl)oxy]-1-benzopyran-3-yl]oxy]-5-[(3,4,5-trihydroxy-6-methyl-2-oxanyl)oxy]-2-oxanyl]methyl ester

>  <PUBCHEM_IUPAC_NAME>
[3,4-dihydroxy-6-[5-hydroxy-2-(4-hydroxyphenyl)-4-oxo-7-(3,4,5-trihydroxy-6-methyloxan-2-yl)oxychromen-3-yl]oxy-5-(3,4,5-trihydroxy-6-methyloxan-2-yl)oxyoxan-2-yl]methyl acetate

>  <PUBCHEM_IUPAC_SYSTEMATIC_NAME>
[6-[2-(4-hydroxyphenyl)-7-[6-methyl-3,4,5-tris(oxidanyl)oxan-2-yl]oxy-5-oxidanyl-4-oxidanylidene-chromen-3-yl]oxy-5-[6-methyl-3,4,5-tris(oxidanyl)oxan-2-yl]oxy-3,4-bis(oxidanyl)oxan-2-yl]methyl ethanoate

>  <PUBCHEM_IUPAC_TRADITIONAL_NAME>
acetic acid [3,4-dihydroxy-6-[5-hydroxy-2-(4-hydroxyphenyl)-4-keto-7-(3,4,5-trihydroxy-6-methyl-tetrahydropyran-2-yl)oxy-chromen-3-yl]oxy-5-(3,4,5-trihydroxy-6-methyl-tetrahydropyran-2-yl)oxy-tetrahydropyran-2-yl]methyl ester

>  <PUBCHEM_IUPAC_INCHI>
InChI=1S/C35H42O20/c1-11-21(39)25(43)28(46)33(49-11)51-16-8-17(38)20-18(9-16)52-30(14-4-6-15(37)7-5-14)31(24(20)42)54-35-32(27(45)23(41)19(53-35)10-48-13(3)36)55-34-29(47)26(44)22(40)12(2)50-34/h4-9,11-12,19,21-23,25-29,32-35,37-41,43-47H,10H2,1-3H3

>  <PUBCHEM_IUPAC_INCHIKEY>
PWWMGQJEFDUFKG-UHFFFAOYSA-N

>  <PUBCHEM_XLOGP3_AA>
-1.7

>  <PUBCHEM_EXACT_MASS>
782.227

>  <PUBCHEM_MOLECULAR_FORMULA>
C35H42O20

>  <PUBCHEM_MOLECULAR_WEIGHT>
782.701

>  <PUBCHEM_OPENEYE_CAN_SMILES>
CC1C(C(C(C(O1)OC2C(C(C(OC2OC3=C(OC4=CC(=CC(=C4C3=O)O)OC5C(C(C(C(O5)C)O)O)O)C6=CC=C(C=C6)O)COC(=O)C)O)O)O)O)O

>  <PUBCHEM_OPENEYE_ISO_SMILES>
CC1C(C(C(C(O1)OC2C(C(C(OC2OC3=C(OC4=CC(=CC(=C4C3=O)O)OC5C(C(C(C(O5)C)O)O)O)C6=CC=C(C=C6)O)COC(=O)C)O)O)O)O)O

>  <PUBCHEM_CACTVS_TPSA>
310

>  <PUBCHEM_MONOISOTOPIC_WEIGHT>
782.227

>  <PUBCHEM_TOTAL_CHARGE>
0

>  <PUBCHEM_HEAVY_ATOM_COUNT>
55

>  <PUBCHEM_ATOM_DEF_STEREO_COUNT>
0

>  <PUBCHEM_ATOM_UDEF_STEREO_COUNT>
15

>  <PUBCHEM_BOND_DEF_STEREO_COUNT>
0

>  <PUBCHEM_BOND_UDEF_STEREO_COUNT>
0

>  <PUBCHEM_ISOTOPIC_ATOM_COUNT>
0

>  <PUBCHEM_COMPONENT_COUNT>
1

>  <PUBCHEM_CACTVS_TAUTO_COUNT>
24

>  <PUBCHEM_COORDINATE_TYPE>
1
5
255

>  <PUBCHEM_BONDANNOTATIONS>
21  1  3
24  1  3
37  12  3
33  13  3
34  14  3
35  15  3
16  40  8
16  43  8
26  31  3
30  32  3
36  39  3
38  40  8
38  41  8
25  4  3
41  42  8
42  43  8
42  47  8
43  46  8
44  46  8
44  49  8
47  49  8
48  51  8
48  52  8
22  5  3
51  53  8
52  54  8
53  55  8
54  55  8
23  6  3
27  7  3
28  8  3
29  9  3

$$$$
