14376438
 OpenBabel06101807152D

 32 34  0  0  0  0  0  0  0  0999 V2000
    5.5301   -0.7621    0.0000 O   0  0  0  0  0  0  0  0  0  0  0  0
    2.0000    1.2621    0.0000 O   0  0  0  0  0  0  0  0  0  0  0  0
    2.0000   -0.7862    0.0000 O   0  0  0  0  0  0  0  0  0  0  0  0
    5.5301    2.2379    0.0000 O   0  0  0  0  0  0  0  0  0  0  0  0
    4.6641    0.7379    0.0000 C   0  0  0  0  0  0  0  0  0  0  0  0
    4.6641   -0.2621    0.0000 C   0  0  0  0  0  0  0  0  0  0  0  0
    6.3961   -0.2621    0.0000 C   0  0  0  0  0  0  0  0  0  0  0  0
    5.5301    1.2379    0.0000 C   0  0  0  0  0  0  0  0  0  0  0  0
    3.7702    1.2726    0.0000 C   0  0  0  0  0  0  0  0  0  0  0  0
    7.2622   -0.7621    0.0000 C   0  0  0  0  0  0  0  0  0  0  0  0
    6.3961    0.7379    0.0000 C   0  0  0  0  0  0  0  0  0  0  0  0
    3.7702   -0.7967    0.0000 C   0  0  0  0  0  0  0  0  0  0  0  0
    2.8641    0.7587    0.0000 C   0  0  0  0  0  0  0  0  0  0  0  0
    2.8641   -0.2829    0.0000 C   0  0  0  0  0  0  0  0  0  0  0  0
    7.2622   -1.7621    0.0000 C   0  0  0  0  0  0  0  0  0  0  0  0
    8.1282   -0.2621    0.0000 C   0  0  0  0  0  0  0  0  0  0  0  0
    8.1282   -2.2621    0.0000 C   0  0  0  0  0  0  0  0  0  0  0  0
    8.9942   -0.7621    0.0000 C   0  0  0  0  0  0  0  0  0  0  0  0
    8.9942   -1.7621    0.0000 C   0  0  0  0  0  0  0  0  0  0  0  0
    2.0038    2.2621    0.0000 C   0  0  0  0  0  0  0  0  0  0  0  0
    3.7773    1.8926    0.0000 H   0  0  0  0  0  0  0  0  0  0  0  0
    6.9331    1.0479    0.0000 H   0  0  0  0  0  0  0  0  0  0  0  0
    3.7773   -1.4167    0.0000 H   0  0  0  0  0  0  0  0  0  0  0  0
    6.7252   -2.0721    0.0000 H   0  0  0  0  0  0  0  0  0  0  0  0
    8.1282    0.3579    0.0000 H   0  0  0  0  0  0  0  0  0  0  0  0
    8.1282   -2.8821    0.0000 H   0  0  0  0  0  0  0  0  0  0  0  0
    9.5312   -0.4521    0.0000 H   0  0  0  0  0  0  0  0  0  0  0  0
    9.5312   -2.0721    0.0000 H   0  0  0  0  0  0  0  0  0  0  0  0
    2.0024   -1.4062    0.0000 H   0  0  0  0  0  0  0  0  0  0  0  0
    2.6238    2.2597    0.0000 H   0  0  0  0  0  0  0  0  0  0  0  0
    2.0062    2.8821    0.0000 H   0  0  0  0  0  0  0  0  0  0  0  0
    1.3839    2.2645    0.0000 H   0  0  0  0  0  0  0  0  0  0  0  0
  1  6  1  0  0  0  0
  1  7  1  0  0  0  0
  2 13  1  0  0  0  0
  2 20  1  0  0  0  0
  3 14  1  0  0  0  0
  3 29  1  0  0  0  0
  4  8  2  0  0  0  0
  5  6  1  0  0  0  0
  5  8  1  0  0  0  0
  5  9  2  0  0  0  0
  6 12  2  0  0  0  0
  7 10  1  0  0  0  0
  7 11  2  0  0  0  0
  8 11  1  0  0  0  0
  9 13  1  0  0  0  0
  9 21  1  0  0  0  0
 10 15  2  0  0  0  0
 10 16  1  0  0  0  0
 11 22  1  0  0  0  0
 12 14  1  0  0  0  0
 12 23  1  0  0  0  0
 13 14  2  0  0  0  0
 15 17  1  0  0  0  0
 15 24  1  0  0  0  0
 16 18  2  0  0  0  0
 16 25  1  0  0  0  0
 17 19  2  0  0  0  0
 17 26  1  0  0  0  0
 18 19  1  0  0  0  0
 18 27  1  0  0  0  0
 19 28  1  0  0  0  0
 20 30  1  0  0  0  0
 20 31  1  0  0  0  0
 20 32  1  0  0  0  0
M  END
>  <PUBCHEM_COMPOUND_CID>
14376438

>  <PUBCHEM_COMPOUND_CANONICALIZED>
1

>  <PUBCHEM_CACTVS_COMPLEXITY>
397

>  <PUBCHEM_CACTVS_HBOND_ACCEPTOR>
4

>  <PUBCHEM_CACTVS_HBOND_DONOR>
1

>  <PUBCHEM_CACTVS_ROTATABLE_BOND>
2

>  <PUBCHEM_CACTVS_SUBSKEYS>
AAADccB4OAAAAAAAAAAAAAAAAAAAAAAAAAAwYIAAAAAAAACBQAAAGgAACAAADASAmAIyBoAABgCIAqBSAAACCAAkIAAIiAEGiMgNJzaGNRqCeWOl4BULuYfK7LzOIQABCAAIQABCAAIQABCAAAAAAAAAAA==

>  <PUBCHEM_IUPAC_OPENEYE_NAME>
7-hydroxy-6-methoxy-2-phenyl-chromen-4-one

>  <PUBCHEM_IUPAC_CAS_NAME>
7-hydroxy-6-methoxy-2-phenyl-1-benzopyran-4-one

>  <PUBCHEM_IUPAC_NAME>
7-hydroxy-6-methoxy-2-phenylchromen-4-one

>  <PUBCHEM_IUPAC_SYSTEMATIC_NAME>
6-methoxy-7-oxidanyl-2-phenyl-chromen-4-one

>  <PUBCHEM_IUPAC_TRADITIONAL_NAME>
7-hydroxy-6-methoxy-2-phenyl-chromone

>  <PUBCHEM_IUPAC_INCHI>
InChI=1S/C16H12O4/c1-19-16-7-11-12(17)8-14(10-5-3-2-4-6-10)20-15(11)9-13(16)18/h2-9,18H,1H3

>  <PUBCHEM_IUPAC_INCHIKEY>
BJBKXYIIWYIZCX-UHFFFAOYSA-N

>  <PUBCHEM_XLOGP3>
3.6

>  <PUBCHEM_EXACT_MASS>
268.074

>  <PUBCHEM_MOLECULAR_FORMULA>
C16H12O4

>  <PUBCHEM_MOLECULAR_WEIGHT>
268.268

>  <PUBCHEM_OPENEYE_CAN_SMILES>
COC1=C(C=C2C(=C1)C(=O)C=C(O2)C3=CC=CC=C3)O

>  <PUBCHEM_OPENEYE_ISO_SMILES>
COC1=C(C=C2C(=C1)C(=O)C=C(O2)C3=CC=CC=C3)O

>  <PUBCHEM_CACTVS_TPSA>
55.8

>  <PUBCHEM_MONOISOTOPIC_WEIGHT>
268.074

>  <PUBCHEM_TOTAL_CHARGE>
0

>  <PUBCHEM_HEAVY_ATOM_COUNT>
20

>  <PUBCHEM_ATOM_DEF_STEREO_COUNT>
0

>  <PUBCHEM_ATOM_UDEF_STEREO_COUNT>
0

>  <PUBCHEM_BOND_DEF_STEREO_COUNT>
0

>  <PUBCHEM_BOND_UDEF_STEREO_COUNT>
0

>  <PUBCHEM_ISOTOPIC_ATOM_COUNT>
0

>  <PUBCHEM_COMPONENT_COUNT>
1

>  <PUBCHEM_CACTVS_TAUTO_COUNT>
5

>  <PUBCHEM_COORDINATE_TYPE>
1
5
255

>  <PUBCHEM_BONDANNOTATIONS>
1  6  8
1  7  8
10  15  8
10  16  8
12  14  8
13  14  8
15  17  8
16  18  8
17  19  8
18  19  8
5  6  8
5  8  8
5  9  8
6  12  8
7  11  8
8  11  8
9  13  8

$$$$
