14394291
 OpenBabel06101807152D

 25 25  0  0  0  0  0  0  0  0999 V2000
    2.5369   -0.0950    0.0000 O   0  0  0  0  0  0  0  0  0  0  0  0
    6.0010   -3.0950    0.0000 O   0  0  0  0  0  0  0  0  0  0  0  0
    6.8671   -1.5950    0.0000 O   0  0  0  0  0  0  0  0  0  0  0  0
    5.1350   -1.5950    0.0000 C   0  0  0  0  0  0  0  0  0  0  0  0
    4.2690   -0.0950    0.0000 C   0  0  0  0  0  0  0  0  0  0  0  0
    5.1350   -0.5950    0.0000 C   0  0  0  0  0  0  0  0  0  0  0  0
    3.4030   -0.5950    0.0000 C   0  0  0  0  0  0  0  0  0  0  0  0
    4.2690   -2.0950    0.0000 C   0  0  0  0  0  0  0  0  0  0  0  0
    3.4030   -1.5950    0.0000 C   0  0  0  0  0  0  0  0  0  0  0  0
    6.0010   -2.0950    0.0000 C   0  0  0  0  0  0  0  0  0  0  0  0
    4.2690    0.9050    0.0000 C   0  0  0  0  0  0  0  0  0  0  0  0
    4.2690    2.9050    0.0000 C   0  0  0  0  0  0  0  0  0  0  0  0
    4.2690    1.9050    0.0000 C   0  0  0  0  0  0  0  0  0  0  0  0
    5.1350    3.4050    0.0000 C   0  0  0  0  0  0  0  0  0  0  0  0
    3.4030    3.4050    0.0000 C   0  0  0  0  0  0  0  0  0  0  0  0
    5.6720   -0.2850    0.0000 H   0  0  0  0  0  0  0  0  0  0  0  0
    4.2690   -2.7150    0.0000 H   0  0  0  0  0  0  0  0  0  0  0  0
    2.8660   -1.9050    0.0000 H   0  0  0  0  0  0  0  0  0  0  0  0
    2.0000   -0.4050    0.0000 H   0  0  0  0  0  0  0  0  0  0  0  0
    5.4450    2.8681    0.0000 H   0  0  0  0  0  0  0  0  0  0  0  0
    5.6720    3.7150    0.0000 H   0  0  0  0  0  0  0  0  0  0  0  0
    4.8250    3.9419    0.0000 H   0  0  0  0  0  0  0  0  0  0  0  0
    6.5380   -3.4050    0.0000 H   0  0  0  0  0  0  0  0  0  0  0  0
    3.4030    4.0250    0.0000 H   0  0  0  0  0  0  0  0  0  0  0  0
    2.8660    3.0950    0.0000 H   0  0  0  0  0  0  0  0  0  0  0  0
  1  7  1  0  0  0  0
  1 19  1  0  0  0  0
  2 10  1  0  0  0  0
  2 23  1  0  0  0  0
  3 10  2  0  0  0  0
  4  6  2  0  0  0  0
  4  8  1  0  0  0  0
  4 10  1  0  0  0  0
  5  6  1  0  0  0  0
  5  7  2  0  0  0  0
  5 11  1  0  0  0  0
  6 16  1  0  0  0  0
  7  9  1  0  0  0  0
  8  9  2  0  0  0  0
  8 17  1  0  0  0  0
  9 18  1  0  0  0  0
 11 13  3  0  0  0  0
 12 13  1  0  0  0  0
 12 14  1  0  0  0  0
 12 15  2  0  0  0  0
 14 20  1  0  0  0  0
 14 21  1  0  0  0  0
 14 22  1  0  0  0  0
 15 24  1  0  0  0  0
 15 25  1  0  0  0  0
M  END
>  <PUBCHEM_COMPOUND_CID>
14394291

>  <PUBCHEM_COMPOUND_CANONICALIZED>
1

>  <PUBCHEM_CACTVS_COMPLEXITY>
331

>  <PUBCHEM_CACTVS_HBOND_ACCEPTOR>
3

>  <PUBCHEM_CACTVS_HBOND_DONOR>
2

>  <PUBCHEM_CACTVS_ROTATABLE_BOND>
3

>  <PUBCHEM_CACTVS_SUBSKEYS>
AAADccBwMAAAAAAAAAAAAAAAAAAAAAAAAAAwAAAAAAAAAAABAAAAGgAACAAADASAmAAyDoAAAgDIEiDSCAgCAAAkIAAIiAEGCMgIJjKCFRKAcQAkwBEImYeI7GTOIAACAAAIAABAAAQAABAAAAAAAAAAAA==

>  <PUBCHEM_IUPAC_OPENEYE_NAME>
4-hydroxy-3-(3-methylbut-3-en-1-ynyl)benzoic acid

>  <PUBCHEM_IUPAC_CAS_NAME>
4-hydroxy-3-(3-methylbut-3-en-1-ynyl)benzoic acid

>  <PUBCHEM_IUPAC_NAME>
4-hydroxy-3-(3-methylbut-3-en-1-ynyl)benzoic acid

>  <PUBCHEM_IUPAC_SYSTEMATIC_NAME>
3-(3-methylbut-3-en-1-ynyl)-4-oxidanyl-benzoic acid

>  <PUBCHEM_IUPAC_TRADITIONAL_NAME>
4-hydroxy-3-(3-methylbut-3-en-1-ynyl)benzoic acid

>  <PUBCHEM_IUPAC_INCHI>
InChI=1S/C12H10O3/c1-8(2)3-4-9-7-10(12(14)15)5-6-11(9)13/h5-7,13H,1H2,2H3,(H,14,15)

>  <PUBCHEM_IUPAC_INCHIKEY>
HFSFSKBQIGXUEY-UHFFFAOYSA-N

>  <PUBCHEM_XLOGP3_AA>
2.9

>  <PUBCHEM_EXACT_MASS>
202.063

>  <PUBCHEM_MOLECULAR_FORMULA>
C12H10O3

>  <PUBCHEM_MOLECULAR_WEIGHT>
202.209

>  <PUBCHEM_OPENEYE_CAN_SMILES>
CC(=C)C#CC1=C(C=CC(=C1)C(=O)O)O

>  <PUBCHEM_OPENEYE_ISO_SMILES>
CC(=C)C#CC1=C(C=CC(=C1)C(=O)O)O

>  <PUBCHEM_CACTVS_TPSA>
57.5

>  <PUBCHEM_MONOISOTOPIC_WEIGHT>
202.063

>  <PUBCHEM_TOTAL_CHARGE>
0

>  <PUBCHEM_HEAVY_ATOM_COUNT>
15

>  <PUBCHEM_ATOM_DEF_STEREO_COUNT>
0

>  <PUBCHEM_ATOM_UDEF_STEREO_COUNT>
0

>  <PUBCHEM_BOND_DEF_STEREO_COUNT>
0

>  <PUBCHEM_BOND_UDEF_STEREO_COUNT>
0

>  <PUBCHEM_ISOTOPIC_ATOM_COUNT>
0

>  <PUBCHEM_COMPONENT_COUNT>
1

>  <PUBCHEM_CACTVS_TAUTO_COUNT>
5

>  <PUBCHEM_COORDINATE_TYPE>
1
5
255

>  <PUBCHEM_BONDANNOTATIONS>
4  6  8
4  8  8
5  6  8
5  7  8
7  9  8
8  9  8

$$$$
