14411424
 OpenBabel06101807152D

 82 87  0  0  1  0  0  0  0  0999 V2000
    6.9357   -1.5019    0.0000 O   0  0  0  0  0  0  0  0  0  0  0  0
    8.2960    1.2617    0.0000 O   0  0  0  0  0  0  0  0  0  0  0  0
    8.0962   -1.0542    0.0000 O   0  0  0  0  0  0  0  0  0  0  0  0
    9.4704   -0.6673    0.0000 O   0  0  0  0  0  0  0  0  0  0  0  0
    8.4445   -2.3416    0.0000 O   0  0  0  0  0  0  0  0  0  0  0  0
    4.6912    0.2957    0.0000 O   0  0  0  0  0  0  0  0  0  0  0  0
    8.9032    2.7276    0.0000 O   0  0  0  0  0  0  0  0  0  0  0  0
    8.2645   -2.9786    0.0000 O   0  0  0  0  0  0  0  0  0  0  0  0
    9.9445   -1.4755    0.0000 O   0  0  0  0  0  0  0  0  0  0  0  0
    3.4323    1.2617    0.0000 O   0  0  0  0  0  0  0  0  0  0  0  0
    5.1680    4.6075    0.0000 O   0  0  0  0  0  0  0  0  0  0  0  0
    5.7272    4.7573    0.0000 O   0  0  0  0  0  0  0  0  0  0  0  0
    8.5259    5.3724    0.0000 O   0  0  0  0  0  0  0  0  0  0  0  0
    6.5474    5.9025    0.0000 O   0  0  0  0  0  0  0  0  0  0  0  0
    3.8851    5.1891    0.0000 O   0  0  0  0  0  0  0  0  0  0  0  0
    2.4367    3.7408    0.0000 O   0  0  0  0  0  0  0  0  0  0  0  0
    4.5110   -1.4373    0.0000 O   0  0  0  0  0  0  0  0  0  0  0  0
    5.6958   -4.6926    0.0000 O   0  0  0  0  0  0  0  0  0  0  0  0
    4.1637   -3.4070    0.0000 O   0  0  0  0  0  0  0  0  0  0  0  0
    9.4445   -5.8057    0.0000 O   0  0  0  0  0  0  0  0  0  0  0  0
   12.4445   -4.0736    0.0000 O   0  0  0  0  0  0  0  0  0  0  0  0
   11.4445   -5.8057    0.0000 O   0  0  0  0  0  0  0  0  0  0  0  0
    7.3301   -0.4114    0.0000 C   0  0  3  0  0  0  0  0  0  0  0  0
    8.0372    0.2957    0.0000 C   0  0  3  0  0  0  0  0  0  0  0  0
    6.3642   -0.6702    0.0000 C   0  0  3  0  0  0  0  0  0  0  0  0
    8.4718   -0.6151    0.0000 C   0  0  3  0  0  0  0  0  0  0  0  0
    7.9445   -1.4755    0.0000 C   0  0  3  0  0  0  0  0  0  0  0  0
    5.3982   -0.4114    0.0000 C   0  0  0  0  0  0  0  0  0  0  0  0
    8.0372    2.2276    0.0000 C   0  0  0  0  0  0  0  0  0  0  0  0
    7.9226   -2.0389    0.0000 C   0  0  0  0  0  0  0  0  0  0  0  0
    7.3301    2.9347    0.0000 C   0  0  0  0  0  0  0  0  0  0  0  0
    9.4445   -2.3416    0.0000 C   0  0  0  0  0  0  0  0  0  0  0  0
    4.4323    1.2617    0.0000 C   0  0  0  0  0  0  0  0  0  0  0  0
    6.3642    3.1935    0.0000 C   0  0  0  0  0  0  0  0  0  0  0  0
    4.6912    2.2276    0.0000 C   0  0  0  0  0  0  0  0  0  0  0  0
    5.3982    2.9347    0.0000 C   0  0  0  0  0  0  0  0  0  0  0  0
    6.9828   -2.3810    0.0000 C   0  0  0  0  0  0  0  0  0  0  0  0
    8.0779    3.6598    0.0000 C   0  0  0  0  0  0  0  0  0  0  0  0
    9.9445   -3.2076    0.0000 C   0  0  0  0  0  0  0  0  0  0  0  0
    6.0791    4.1954    0.0000 C   0  0  0  0  0  0  0  0  0  0  0  0
    5.1442    3.9449    0.0000 C   0  0  0  0  0  0  0  0  0  0  0  0
    3.6810    2.4816    0.0000 C   0  0  0  0  0  0  0  0  0  0  0  0
    7.8161    4.6680    0.0000 C   0  0  0  0  0  0  0  0  0  0  0  0
    6.8100    4.9376    0.0000 C   0  0  0  0  0  0  0  0  0  0  0  0
    6.8092   -3.3658    0.0000 C   0  0  0  0  0  0  0  0  0  0  0  0
    6.2167   -1.7382    0.0000 C   0  0  0  0  0  0  0  0  0  0  0  0
    4.1402    4.2222    0.0000 C   0  0  0  0  0  0  0  0  0  0  0  0
    3.4036    3.4857    0.0000 C   0  0  0  0  0  0  0  0  0  0  0  0
   10.9445   -3.2076    0.0000 C   0  0  0  0  0  0  0  0  0  0  0  0
    9.4445   -4.0736    0.0000 C   0  0  0  0  0  0  0  0  0  0  0  0
    5.2770   -2.0802    0.0000 C   0  0  0  0  0  0  0  0  0  0  0  0
    5.8695   -3.7078    0.0000 C   0  0  0  0  0  0  0  0  0  0  0  0
    5.1034   -3.0650    0.0000 C   0  0  0  0  0  0  0  0  0  0  0  0
    9.9445   -4.9396    0.0000 C   0  0  0  0  0  0  0  0  0  0  0  0
   11.4445   -4.0736    0.0000 C   0  0  0  0  0  0  0  0  0  0  0  0
   10.9445   -4.9396    0.0000 C   0  0  0  0  0  0  0  0  0  0  0  0
    7.1959   -1.0167    0.0000 H   0  0  0  0  0  0  0  0  0  0  0  0
    8.6546    0.3525    0.0000 H   0  0  0  0  0  0  0  0  0  0  0  0
    6.0063   -1.1765    0.0000 H   0  0  0  0  0  0  0  0  0  0  0  0
    8.8162   -0.0995    0.0000 H   0  0  0  0  0  0  0  0  0  0  0  0
    7.6416   -2.0165    0.0000 H   0  0  0  0  0  0  0  0  0  0  0  0
    4.8363   -0.6734    0.0000 H   0  0  0  0  0  0  0  0  0  0  0  0
    5.7082    0.1256    0.0000 H   0  0  0  0  0  0  0  0  0  0  0  0
    9.8080   -0.1473    0.0000 H   0  0  0  0  0  0  0  0  0  0  0  0
    8.6749    3.4924    0.0000 H   0  0  0  0  0  0  0  0  0  0  0  0
    3.2477    2.0382    0.0000 H   0  0  0  0  0  0  0  0  0  0  0  0
    7.2841   -3.7643    0.0000 H   0  0  0  0  0  0  0  0  0  0  0  0
    6.3244   -1.1276    0.0000 H   0  0  0  0  0  0  0  0  0  0  0  0
   11.2545   -2.6707    0.0000 H   0  0  0  0  0  0  0  0  0  0  0  0
    8.8245   -4.0736    0.0000 H   0  0  0  0  0  0  0  0  0  0  0  0
    4.8995    5.1663    0.0000 H   0  0  0  0  0  0  0  0  0  0  0  0
    5.6803    5.3756    0.0000 H   0  0  0  0  0  0  0  0  0  0  0  0
    9.1242    5.2096    0.0000 H   0  0  0  0  0  0  0  0  0  0  0  0
    6.9841    6.3426    0.0000 H   0  0  0  0  0  0  0  0  0  0  0  0
    3.2868    5.3519    0.0000 H   0  0  0  0  0  0  0  0  0  0  0  0
    2.0000    3.3007    0.0000 H   0  0  0  0  0  0  0  0  0  0  0  0
    3.9284   -1.6494    0.0000 H   0  0  0  0  0  0  0  0  0  0  0  0
    6.1708   -5.0912    0.0000 H   0  0  0  0  0  0  0  0  0  0  0  0
    4.0560   -4.0176    0.0000 H   0  0  0  0  0  0  0  0  0  0  0  0
    9.7545   -6.3426    0.0000 H   0  0  0  0  0  0  0  0  0  0  0  0
   12.7545   -3.5367    0.0000 H   0  0  0  0  0  0  0  0  0  0  0  0
   12.0645   -5.8057    0.0000 H   0  0  0  0  0  0  0  0  0  0  0  0
  1 25  1  0  0  0  0
  1 27  1  0  0  0  0
  2 24  1  0  0  0  0
  2 29  1  0  0  0  0
  3 23  1  0  0  0  0
  3 30  1  0  0  0  0
  4 26  1  0  0  0  0
  4 64  1  0  0  0  0
  5 27  1  0  0  0  0
  5 32  1  0  0  0  0
  6 28  1  0  0  0  0
  6 33  1  0  0  0  0
  7 29  2  0  0  0  0
  8 30  2  0  0  0  0
  9 32  2  0  0  0  0
 10 33  2  0  0  0  0
 11 40  1  0  0  0  0
 11 71  1  0  0  0  0
 12 41  1  0  0  0  0
 12 72  1  0  0  0  0
 13 43  1  0  0  0  0
 13 73  1  0  0  0  0
 14 44  1  0  0  0  0
 14 74  1  0  0  0  0
 15 47  1  0  0  0  0
 15 75  1  0  0  0  0
 16 48  1  0  0  0  0
 16 76  1  0  0  0  0
 17 51  1  0  0  0  0
 17 77  1  0  0  0  0
 18 52  1  0  0  0  0
 18 78  1  0  0  0  0
 19 53  1  0  0  0  0
 19 79  1  0  0  0  0
 20 54  1  0  0  0  0
 20 80  1  0  0  0  0
 21 55  1  0  0  0  0
 21 81  1  0  0  0  0
 22 56  1  0  0  0  0
 22 82  1  0  0  0  0
 23 24  1  0  0  0  0
 23 25  1  0  0  0  0
 23 57  1  0  0  0  0
 24 26  1  0  0  0  0
 24 58  1  0  0  0  0
 25 28  1  0  0  0  0
 25 59  1  0  0  0  0
 26 27  1  0  0  0  0
 26 60  1  0  0  0  0
 27 61  1  0  0  0  0
 28 62  1  0  0  0  0
 28 63  1  0  0  0  0
 29 31  1  0  0  0  0
 30 37  1  0  0  0  0
 31 34  1  0  0  0  0
 31 38  2  0  0  0  0
 32 39  1  0  0  0  0
 33 35  1  0  0  0  0
 34 36  1  0  0  0  0
 34 40  2  0  0  0  0
 35 36  1  0  0  0  0
 35 42  2  0  0  0  0
 36 41  2  0  0  0  0
 37 45  2  0  0  0  0
 37 46  1  0  0  0  0
 38 43  1  0  0  0  0
 38 65  1  0  0  0  0
 39 49  2  0  0  0  0
 39 50  1  0  0  0  0
 40 44  1  0  0  0  0
 41 47  1  0  0  0  0
 42 48  1  0  0  0  0
 42 66  1  0  0  0  0
 43 44  2  0  0  0  0
 45 52  1  0  0  0  0
 45 67  1  0  0  0  0
 46 51  2  0  0  0  0
 46 68  1  0  0  0  0
 47 48  2  0  0  0  0
 49 55  1  0  0  0  0
 49 69  1  0  0  0  0
 50 54  2  0  0  0  0
 50 70  1  0  0  0  0
 51 53  1  0  0  0  0
 52 53  2  0  0  0  0
 54 56  1  0  0  0  0
 55 56  2  0  0  0  0
M  END
>  <PUBCHEM_COMPOUND_CID>
14411424

>  <PUBCHEM_COMPOUND_CANONICALIZED>
1

>  <PUBCHEM_CACTVS_COMPLEXITY>
1420

>  <PUBCHEM_CACTVS_HBOND_ACCEPTOR>
22

>  <PUBCHEM_CACTVS_HBOND_DONOR>
13

>  <PUBCHEM_CACTVS_ROTATABLE_BOND>
6

>  <PUBCHEM_CACTVS_SUBSKEYS>
AAADceB8PgAAAAAAAAAAAAAAAAAAAAAAAAA0YMGCAAAAAAABVAAAGgAACAAADBSwmAMwDoAABgCIAiDSCAACAAAkIAAAiAEGiMgZNzKCNRqicQElwBUPuYfK7PzOoAABCAAYQABAAAIQADCAAAAAAAAAAA==

>  <PUBCHEM_IUPAC_INCHI>
InChI=1S/C34H26O22/c35-12-1-8(2-13(36)21(12)41)30(48)54-28-18-7-52-32(50)10-5-16(39)23(43)25(45)19(10)20-11(6-17(40)24(44)26(20)46)33(51)55-29(28)27(47)34(53-18)56-31(49)9-3-14(37)22(42)15(38)4-9/h1-6,18,27-29,34-47H,7H2

>  <PUBCHEM_IUPAC_INCHIKEY>
NALYUPYCMXELRP-UHFFFAOYSA-N

>  <PUBCHEM_XLOGP3_AA>
1.2

>  <PUBCHEM_EXACT_MASS>
786.092

>  <PUBCHEM_MOLECULAR_FORMULA>
C34H26O22

>  <PUBCHEM_MOLECULAR_WEIGHT>
786.56

>  <PUBCHEM_OPENEYE_CAN_SMILES>
C1C2C(C(C(C(O2)OC(=O)C3=CC(=C(C(=C3)O)O)O)O)OC(=O)C4=CC(=C(C(=C4C5=C(C(=C(C=C5C(=O)O1)O)O)O)O)O)O)OC(=O)C6=CC(=C(C(=C6)O)O)O

>  <PUBCHEM_OPENEYE_ISO_SMILES>
C1C2C(C(C(C(O2)OC(=O)C3=CC(=C(C(=C3)O)O)O)O)OC(=O)C4=CC(=C(C(=C4C5=C(C(=C(C=C5C(=O)O1)O)O)O)O)O)O)OC(=O)C6=CC(=C(C(=C6)O)O)O

>  <PUBCHEM_CACTVS_TPSA>
377

>  <PUBCHEM_MONOISOTOPIC_WEIGHT>
786.092

>  <PUBCHEM_TOTAL_CHARGE>
0

>  <PUBCHEM_HEAVY_ATOM_COUNT>
56

>  <PUBCHEM_ATOM_DEF_STEREO_COUNT>
0

>  <PUBCHEM_ATOM_UDEF_STEREO_COUNT>
5

>  <PUBCHEM_BOND_DEF_STEREO_COUNT>
0

>  <PUBCHEM_BOND_UDEF_STEREO_COUNT>
0

>  <PUBCHEM_ISOTOPIC_ATOM_COUNT>
0

>  <PUBCHEM_COMPONENT_COUNT>
1

>  <PUBCHEM_CACTVS_TAUTO_COUNT>
998

>  <PUBCHEM_COORDINATE_TYPE>
1
5
255

>  <PUBCHEM_BONDANNOTATIONS>
24  2  3
25  28  3
23  3  3
31  34  8
31  38  8
34  40  8
35  36  8
35  42  8
36  41  8
37  45  8
37  46  8
38  43  8
39  49  8
39  50  8
26  4  3
40  44  8
41  47  8
42  48  8
43  44  8
45  52  8
46  51  8
47  48  8
49  55  8
27  5  3
50  54  8
51  53  8
52  53  8
54  56  8
55  56  8

$$$$
