14464370
 OpenBabel06101807152D

178187  0  0  1  0  0  0  0  0999 V2000
   13.2578    5.6557    0.0000 O   0  0  0  0  0  0  0  0  0  0  0  0
   11.7287    6.8876    0.0000 O   0  0  0  0  0  0  0  0  0  0  0  0
   11.8347   -2.5884    0.0000 O   0  0  0  0  0  0  0  0  0  0  0  0
   10.1026   -2.5884    0.0000 O   0  0  0  0  0  0  0  0  0  0  0  0
   15.8923    8.7550    0.0000 O   0  0  0  0  0  0  0  0  0  0  0  0
   11.8347   -4.5884    0.0000 O   0  0  0  0  0  0  0  0  0  0  0  0
   10.1026   -5.5884    0.0000 O   0  0  0  0  0  0  0  0  0  0  0  0
    8.3706   -4.5884    0.0000 O   0  0  0  0  0  0  0  0  0  0  0  0
    8.3706   -1.5884    0.0000 O   0  0  0  0  0  0  0  0  0  0  0  0
   17.3897    9.6255    0.0000 O   0  0  0  0  0  0  0  0  0  0  0  0
    9.2366   -6.0884    0.0000 O   0  0  0  0  0  0  0  0  0  0  0  0
   16.8975    7.0260    0.0000 O   0  0  0  0  0  0  0  0  0  0  0  0
    6.6385   -5.5884    0.0000 O   0  0  0  0  0  0  0  0  0  0  0  0
   18.8974    7.0319    0.0000 O   0  0  0  0  0  0  0  0  0  0  0  0
   19.8923    8.7670    0.0000 O   0  0  0  0  0  0  0  0  0  0  0  0
    6.6385   -7.5884    0.0000 O   0  0  0  0  0  0  0  0  0  0  0  0
    8.3706   -8.5884    0.0000 O   0  0  0  0  0  0  0  0  0  0  0  0
   18.3845   11.3605    0.0000 O   0  0  0  0  0  0  0  0  0  0  0  0
    5.0109   -6.1808    0.0000 O   0  0  0  0  0  0  0  0  0  0  0  0
   10.9686   -7.0884    0.0000 O   0  0  0  0  0  0  0  0  0  0  0  0
    7.5045   -9.0884    0.0000 O   0  0  0  0  0  0  0  0  0  0  0  0
    5.9545   -3.7090    0.0000 O   0  0  0  0  0  0  0  0  0  0  0  0
    3.9849   -3.3616    0.0000 O   0  0  0  0  0  0  0  0  0  0  0  0
    4.9065   -8.5884    0.0000 O   0  0  0  0  0  0  0  0  0  0  0  0
    2.6993   -4.8938    0.0000 O   0  0  0  0  0  0  0  0  0  0  0  0
    4.9065  -10.5884    0.0000 O   0  0  0  0  0  0  0  0  0  0  0  0
    6.6385  -11.5884    0.0000 O   0  0  0  0  0  0  0  0  0  0  0  0
    2.3985   -6.5996    0.0000 O   0  0  0  0  0  0  0  0  0  0  0  0
   11.8639    3.6085    0.0000 C   0  0  3  0  0  0  0  0  0  0  0  0
   12.7319    3.1118    0.0000 C   0  0  3  0  0  0  0  0  0  0  0  0
   12.7357    2.1118    0.0000 C   0  0  3  0  0  0  0  0  0  0  0  0
   12.0694    4.5811    0.0000 C   0  0  3  0  0  0  0  0  0  0  0  0
   11.8716    1.6085    0.0000 C   0  0  3  0  0  0  0  0  0  0  0  0
   11.8596    0.5669    0.0000 C   0  0  3  0  0  0  0  0  0  0  0  0
   13.0577    4.6880    0.0000 C   0  0  3  0  0  0  0  0  0  0  0  0
   13.4663    3.7817    0.0000 C   0  0  0  0  0  0  0  0  0  0  0  0
   10.9998    3.1051    0.0000 C   0  0  0  0  0  0  0  0  0  0  0  0
   11.0037    2.1051    0.0000 C   0  0  0  0  0  0  0  0  0  0  0  0
   12.7597    0.0426    0.0000 C   0  0  3  0  0  0  0  0  0  0  0  0
   11.6671    5.4837    0.0000 C   0  0  3  0  0  0  0  0  0  0  0  0
   13.6477    1.6085    0.0000 C   0  0  0  0  0  0  0  0  0  0  0  0
   13.6597    0.5669    0.0000 C   0  0  0  0  0  0  0  0  0  0  0  0
   10.9960    4.1051    0.0000 C   0  0  0  0  0  0  0  0  0  0  0  0
   12.4001    6.1465    0.0000 C   0  0  3  0  0  0  0  0  0  0  0  0
   10.9097    0.0426    0.0000 C   0  0  0  0  0  0  0  0  0  0  0  0
   12.7722   -1.0423    0.0000 C   0  0  0  0  0  0  0  0  0  0  0  0
   10.9955    1.0703    0.0000 C   0  0  0  0  0  0  0  0  0  0  0  0
   10.8971   -1.0423    0.0000 C   0  0  0  0  0  0  0  0  0  0  0  0
   11.8347   -1.5884    0.0000 C   0  0  3  0  0  0  0  0  0  0  0  0
   10.6887    5.6904    0.0000 C   0  0  0  0  0  0  0  0  0  0  0  0
   12.8975    7.0140    0.0000 C   0  0  0  0  0  0  0  0  0  0  0  0
   13.8975    7.0170    0.0000 C   0  0  0  0  0  0  0  0  0  0  0  0
   14.3949    7.8845    0.0000 C   0  0  3  0  0  0  0  0  0  0  0  0
   10.9686   -3.0884    0.0000 C   0  0  3  0  0  0  0  0  0  0  0  0
   10.9686   -4.0884    0.0000 C   0  0  3  0  0  0  0  0  0  0  0  0
   15.3949    7.8875    0.0000 C   0  0  0  0  0  0  0  0  0  0  0  0
   13.8923    8.7490    0.0000 C   0  0  0  0  0  0  0  0  0  0  0  0
   10.1026   -4.5884    0.0000 C   0  0  3  0  0  0  0  0  0  0  0  0
    9.2366   -3.0884    0.0000 C   0  0  3  0  0  0  0  0  0  0  0  0
    9.2366   -4.0884    0.0000 C   0  0  3  0  0  0  0  0  0  0  0  0
    8.3706   -2.5884    0.0000 C   0  0  0  0  0  0  0  0  0  0  0  0
   16.8923    8.7580    0.0000 C   0  0  3  0  0  0  0  0  0  0  0  0
   17.3949    7.8935    0.0000 C   0  0  3  0  0  0  0  0  0  0  0  0
    8.3706   -5.5884    0.0000 C   0  0  3  0  0  0  0  0  0  0  0  0
   18.3949    7.8965    0.0000 C   0  0  3  0  0  0  0  0  0  0  0  0
    7.5045   -6.0884    0.0000 C   0  0  3  0  0  0  0  0  0  0  0  0
   18.3897    9.6285    0.0000 C   0  0  3  0  0  0  0  0  0  0  0  0
   18.8923    8.7640    0.0000 C   0  0  3  0  0  0  0  0  0  0  0  0
    7.5045   -7.0884    0.0000 C   0  0  3  0  0  0  0  0  0  0  0  0
    9.2366   -7.0884    0.0000 C   0  0  3  0  0  0  0  0  0  0  0  0
    8.3706   -7.5884    0.0000 C   0  0  3  0  0  0  0  0  0  0  0  0
   18.8871   10.4960    0.0000 C   0  0  0  0  0  0  0  0  0  0  0  0
   10.1026   -7.5884    0.0000 C   0  0  0  0  0  0  0  0  0  0  0  0
    5.6537   -5.4147    0.0000 C   0  0  3  0  0  0  0  0  0  0  0  0
    6.6385   -8.5884    0.0000 C   0  0  3  0  0  0  0  0  0  0  0  0
    5.3118   -4.4750    0.0000 C   0  0  3  0  0  0  0  0  0  0  0  0
    4.3269   -4.3013    0.0000 C   0  0  3  0  0  0  0  0  0  0  0  0
    5.7725   -9.0884    0.0000 C   0  0  3  0  0  0  0  0  0  0  0  0
    4.0261   -6.0072    0.0000 C   0  0  3  0  0  0  0  0  0  0  0  0
    3.6841   -5.0674    0.0000 C   0  0  3  0  0  0  0  0  0  0  0  0
    5.7725  -10.0884    0.0000 C   0  0  3  0  0  0  0  0  0  0  0  0
    7.5045  -10.0884    0.0000 C   0  0  0  0  0  0  0  0  0  0  0  0
    6.6385  -10.5884    0.0000 C   0  0  3  0  0  0  0  0  0  0  0  0
    3.3833   -6.7732    0.0000 C   0  0  0  0  0  0  0  0  0  0  0  0
   13.2996    2.8626    0.0000 H   0  0  0  0  0  0  0  0  0  0  0  0
   13.2690    2.4280    0.0000 H   0  0  0  0  0  0  0  0  0  0  0  0
   11.4528    4.5158    0.0000 H   0  0  0  0  0  0  0  0  0  0  0  0
   12.4074    1.2964    0.0000 H   0  0  0  0  0  0  0  0  0  0  0  0
   13.6740    4.7559    0.0000 H   0  0  0  0  0  0  0  0  0  0  0  0
   13.8337    3.2823    0.0000 H   0  0  0  0  0  0  0  0  0  0  0  0
   14.0016    4.0946    0.0000 H   0  0  0  0  0  0  0  0  0  0  0  0
   10.7855    3.6869    0.0000 H   0  0  0  0  0  0  0  0  0  0  0  0
   10.3897    2.9951    0.0000 H   0  0  0  0  0  0  0  0  0  0  0  0
   10.3927    2.2104    0.0000 H   0  0  0  0  0  0  0  0  0  0  0  0
   10.7939    1.5217    0.0000 H   0  0  0  0  0  0  0  0  0  0  0  0
   13.2990   -0.2632    0.0000 H   0  0  0  0  0  0  0  0  0  0  0  0
   11.5056    6.0823    0.0000 H   0  0  0  0  0  0  0  0  0  0  0  0
   14.2597    1.5095    0.0000 H   0  0  0  0  0  0  0  0  0  0  0  0
   13.8500    2.1946    0.0000 H   0  0  0  0  0  0  0  0  0  0  0  0
   13.8755   -0.0143    0.0000 H   0  0  0  0  0  0  0  0  0  0  0  0
   14.2693    0.6801    0.0000 H   0  0  0  0  0  0  0  0  0  0  0  0
   11.3039    4.6433    0.0000 H   0  0  0  0  0  0  0  0  0  0  0  0
   10.4579    4.4131    0.0000 H   0  0  0  0  0  0  0  0  0  0  0  0
   10.6881    3.5670    0.0000 H   0  0  0  0  0  0  0  0  0  0  0  0
   10.7074    0.6287    0.0000 H   0  0  0  0  0  0  0  0  0  0  0  0
   10.2976   -0.0564    0.0000 H   0  0  0  0  0  0  0  0  0  0  0  0
   12.9880   -1.6235    0.0000 H   0  0  0  0  0  0  0  0  0  0  0  0
   13.3818   -0.9291    0.0000 H   0  0  0  0  0  0  0  0  0  0  0  0
   11.3076    1.6060    0.0000 H   0  0  0  0  0  0  0  0  0  0  0  0
   10.4598    1.3823    0.0000 H   0  0  0  0  0  0  0  0  0  0  0  0
   10.6834    0.5345    0.0000 H   0  0  0  0  0  0  0  0  0  0  0  0
   10.2875   -0.9291    0.0000 H   0  0  0  0  0  0  0  0  0  0  0  0
   10.6813   -1.6235    0.0000 H   0  0  0  0  0  0  0  0  0  0  0  0
   12.3722   -1.8974    0.0000 H   0  0  0  0  0  0  0  0  0  0  0  0
   10.8168    6.2970    0.0000 H   0  0  0  0  0  0  0  0  0  0  0  0
   10.0821    5.8185    0.0000 H   0  0  0  0  0  0  0  0  0  0  0  0
   10.5605    5.0838    0.0000 H   0  0  0  0  0  0  0  0  0  0  0  0
   13.0033    7.6249    0.0000 H   0  0  0  0  0  0  0  0  0  0  0  0
   12.3142    7.2243    0.0000 H   0  0  0  0  0  0  0  0  0  0  0  0
   11.9185    7.4778    0.0000 H   0  0  0  0  0  0  0  0  0  0  0  0
   13.7916    6.4061    0.0000 H   0  0  0  0  0  0  0  0  0  0  0  0
   14.4807    6.8067    0.0000 H   0  0  0  0  0  0  0  0  0  0  0  0
   13.7749    7.8826    0.0000 H   0  0  0  0  0  0  0  0  0  0  0  0
   10.9686   -2.4684    0.0000 H   0  0  0  0  0  0  0  0  0  0  0  0
   10.9686   -4.7084    0.0000 H   0  0  0  0  0  0  0  0  0  0  0  0
   15.2890    7.2766    0.0000 H   0  0  0  0  0  0  0  0  0  0  0  0
   15.9781    7.6772    0.0000 H   0  0  0  0  0  0  0  0  0  0  0  0
   14.4283    9.0606    0.0000 H   0  0  0  0  0  0  0  0  0  0  0  0
   13.5807    9.2850    0.0000 H   0  0  0  0  0  0  0  0  0  0  0  0
   13.3563    8.4374    0.0000 H   0  0  0  0  0  0  0  0  0  0  0  0
    9.5657   -4.8984    0.0000 H   0  0  0  0  0  0  0  0  0  0  0  0
    9.2366   -2.4684    0.0000 H   0  0  0  0  0  0  0  0  0  0  0  0
    8.6997   -3.7784    0.0000 H   0  0  0  0  0  0  0  0  0  0  0  0
   12.3716   -4.2784    0.0000 H   0  0  0  0  0  0  0  0  0  0  0  0
    7.7600   -2.4807    0.0000 H   0  0  0  0  0  0  0  0  0  0  0  0
    8.1585   -3.1710    0.0000 H   0  0  0  0  0  0  0  0  0  0  0  0
   10.6396   -5.8984    0.0000 H   0  0  0  0  0  0  0  0  0  0  0  0
   16.5807    9.2940    0.0000 H   0  0  0  0  0  0  0  0  0  0  0  0
   17.7065    7.3575    0.0000 H   0  0  0  0  0  0  0  0  0  0  0  0
    7.8336   -5.2784    0.0000 H   0  0  0  0  0  0  0  0  0  0  0  0
    7.8336   -1.2784    0.0000 H   0  0  0  0  0  0  0  0  0  0  0  0
   19.0149    7.8983    0.0000 H   0  0  0  0  0  0  0  0  0  0  0  0
    8.0415   -6.3984    0.0000 H   0  0  0  0  0  0  0  0  0  0  0  0
   18.0781   10.1645    0.0000 H   0  0  0  0  0  0  0  0  0  0  0  0
   19.2007    9.3018    0.0000 H   0  0  0  0  0  0  0  0  0  0  0  0
    7.5045   -7.7084    0.0000 H   0  0  0  0  0  0  0  0  0  0  0  0
   17.2091    6.4899    0.0000 H   0  0  0  0  0  0  0  0  0  0  0  0
    9.7735   -6.7784    0.0000 H   0  0  0  0  0  0  0  0  0  0  0  0
    8.9075   -7.8984    0.0000 H   0  0  0  0  0  0  0  0  0  0  0  0
   19.3632   10.0989    0.0000 H   0  0  0  0  0  0  0  0  0  0  0  0
   19.3608   10.8960    0.0000 H   0  0  0  0  0  0  0  0  0  0  0  0
   19.5174    7.0338    0.0000 H   0  0  0  0  0  0  0  0  0  0  0  0
   20.2007    9.3048    0.0000 H   0  0  0  0  0  0  0  0  0  0  0  0
    9.7041   -8.0634    0.0000 H   0  0  0  0  0  0  0  0  0  0  0  0
   10.5011   -8.0634    0.0000 H   0  0  0  0  0  0  0  0  0  0  0  0
    6.0523   -4.9398    0.0000 H   0  0  0  0  0  0  0  0  0  0  0  0
    8.9075   -8.8984    0.0000 H   0  0  0  0  0  0  0  0  0  0  0  0
   18.6929   11.8984    0.0000 H   0  0  0  0  0  0  0  0  0  0  0  0
    6.1016   -8.2784    0.0000 H   0  0  0  0  0  0  0  0  0  0  0  0
    5.0997   -3.8924    0.0000 H   0  0  0  0  0  0  0  0  0  0  0  0
   11.5056   -7.3984    0.0000 H   0  0  0  0  0  0  0  0  0  0  0  0
    3.7163   -4.1937    0.0000 H   0  0  0  0  0  0  0  0  0  0  0  0
    6.3094   -9.3984    0.0000 H   0  0  0  0  0  0  0  0  0  0  0  0
    4.2382   -6.5898    0.0000 H   0  0  0  0  0  0  0  0  0  0  0  0
    4.2947   -5.1751    0.0000 H   0  0  0  0  0  0  0  0  0  0  0  0
    5.7725  -10.7084    0.0000 H   0  0  0  0  0  0  0  0  0  0  0  0
    5.7424   -3.1264    0.0000 H   0  0  0  0  0  0  0  0  0  0  0  0
    7.7166  -10.6710    0.0000 H   0  0  0  0  0  0  0  0  0  0  0  0
    8.1151   -9.9807    0.0000 H   0  0  0  0  0  0  0  0  0  0  0  0
    7.1754  -10.8984    0.0000 H   0  0  0  0  0  0  0  0  0  0  0  0
    3.1713   -7.3558    0.0000 H   0  0  0  0  0  0  0  0  0  0  0  0
    3.9203   -7.0832    0.0000 H   0  0  0  0  0  0  0  0  0  0  0  0
    3.3743   -3.2540    0.0000 H   0  0  0  0  0  0  0  0  0  0  0  0
    4.3695   -8.8984    0.0000 H   0  0  0  0  0  0  0  0  0  0  0  0
    2.4872   -4.3111    0.0000 H   0  0  0  0  0  0  0  0  0  0  0  0
    4.9065  -11.2084    0.0000 H   0  0  0  0  0  0  0  0  0  0  0  0
    7.1754  -11.8984    0.0000 H   0  0  0  0  0  0  0  0  0  0  0  0
    2.0000   -7.0745    0.0000 H   0  0  0  0  0  0  0  0  0  0  0  0
  1 35  1  0  0  0  0
  1 44  1  0  0  0  0
  2 44  1  0  0  0  0
  2120  1  0  0  0  0
  3 49  1  0  0  0  0
  3 54  1  0  0  0  0
  4 54  1  0  0  0  0
  4 59  1  0  0  0  0
  5 56  1  0  0  0  0
  5 62  1  0  0  0  0
  6 55  1  0  0  0  0
  6134  1  0  0  0  0
  7 58  1  0  0  0  0
  7137  1  0  0  0  0
  8 60  1  0  0  0  0
  8 64  1  0  0  0  0
  9 61  1  0  0  0  0
  9141  1  0  0  0  0
 10 62  1  0  0  0  0
 10 67  1  0  0  0  0
 11 64  1  0  0  0  0
 11 70  1  0  0  0  0
 12 63  1  0  0  0  0
 12147  1  0  0  0  0
 13 66  1  0  0  0  0
 13 74  1  0  0  0  0
 14 65  1  0  0  0  0
 14152  1  0  0  0  0
 15 68  1  0  0  0  0
 15153  1  0  0  0  0
 16 69  1  0  0  0  0
 16 75  1  0  0  0  0
 17 71  1  0  0  0  0
 17157  1  0  0  0  0
 18 72  1  0  0  0  0
 18158  1  0  0  0  0
 19 74  1  0  0  0  0
 19 79  1  0  0  0  0
 20 73  1  0  0  0  0
 20161  1  0  0  0  0
 21 75  1  0  0  0  0
 21 82  1  0  0  0  0
 22 76  1  0  0  0  0
 22167  1  0  0  0  0
 23 77  1  0  0  0  0
 23173  1  0  0  0  0
 24 78  1  0  0  0  0
 24174  1  0  0  0  0
 25 80  1  0  0  0  0
 25175  1  0  0  0  0
 26 81  1  0  0  0  0
 26176  1  0  0  0  0
 27 83  1  0  0  0  0
 27177  1  0  0  0  0
 28 84  1  0  0  0  0
 28178  1  0  0  0  0
 29 30  1  0  0  0  0
 29 32  1  0  0  0  0
 29 37  1  0  0  0  0
 29 43  1  0  0  0  0
 30 31  1  0  0  0  0
 30 36  1  0  0  0  0
 30 85  1  0  0  0  0
 31 33  1  0  0  0  0
 31 41  1  0  0  0  0
 31 86  1  0  0  0  0
 32 35  1  0  0  0  0
 32 40  1  0  0  0  0
 32 87  1  0  0  0  0
 33 34  1  0  0  0  0
 33 38  1  0  0  0  0
 33 88  1  0  0  0  0
 34 39  1  0  0  0  0
 34 45  1  0  0  0  0
 34 47  1  0  0  0  0
 35 36  1  0  0  0  0
 35 89  1  0  0  0  0
 36 90  1  0  0  0  0
 36 91  1  0  0  0  0
 37 38  1  0  0  0  0
 37 92  1  0  0  0  0
 37 93  1  0  0  0  0
 38 94  1  0  0  0  0
 38 95  1  0  0  0  0
 39 42  1  0  0  0  0
 39 46  1  0  0  0  0
 39 96  1  0  0  0  0
 40 44  1  0  0  0  0
 40 50  1  0  0  0  0
 40 97  1  0  0  0  0
 41 42  1  0  0  0  0
 41 98  1  0  0  0  0
 41 99  1  0  0  0  0
 42100  1  0  0  0  0
 42101  1  0  0  0  0
 43102  1  0  0  0  0
 43103  1  0  0  0  0
 43104  1  0  0  0  0
 44 51  1  0  0  0  0
 45 48  1  0  0  0  0
 45105  1  0  0  0  0
 45106  1  0  0  0  0
 46 49  1  0  0  0  0
 46107  1  0  0  0  0
 46108  1  0  0  0  0
 47109  1  0  0  0  0
 47110  1  0  0  0  0
 47111  1  0  0  0  0
 48 49  1  0  0  0  0
 48112  1  0  0  0  0
 48113  1  0  0  0  0
 49114  1  0  0  0  0
 50115  1  0  0  0  0
 50116  1  0  0  0  0
 50117  1  0  0  0  0
 51 52  1  0  0  0  0
 51118  1  0  0  0  0
 51119  1  0  0  0  0
 52 53  1  0  0  0  0
 52121  1  0  0  0  0
 52122  1  0  0  0  0
 53 56  1  0  0  0  0
 53 57  1  0  0  0  0
 53123  1  0  0  0  0
 54 55  1  0  0  0  0
 54124  1  0  0  0  0
 55 58  1  0  0  0  0
 55125  1  0  0  0  0
 56126  1  0  0  0  0
 56127  1  0  0  0  0
 57128  1  0  0  0  0
 57129  1  0  0  0  0
 57130  1  0  0  0  0
 58 60  1  0  0  0  0
 58131  1  0  0  0  0
 59 60  1  0  0  0  0
 59 61  1  0  0  0  0
 59132  1  0  0  0  0
 60133  1  0  0  0  0
 61135  1  0  0  0  0
 61136  1  0  0  0  0
 62 63  1  0  0  0  0
 62138  1  0  0  0  0
 63 65  1  0  0  0  0
 63139  1  0  0  0  0
 64 66  1  0  0  0  0
 64140  1  0  0  0  0
 65 68  1  0  0  0  0
 65142  1  0  0  0  0
 66 69  1  0  0  0  0
 66143  1  0  0  0  0
 67 68  1  0  0  0  0
 67 72  1  0  0  0  0
 67144  1  0  0  0  0
 68145  1  0  0  0  0
 69 71  1  0  0  0  0
 69146  1  0  0  0  0
 70 71  1  0  0  0  0
 70 73  1  0  0  0  0
 70148  1  0  0  0  0
 71149  1  0  0  0  0
 72150  1  0  0  0  0
 72151  1  0  0  0  0
 73154  1  0  0  0  0
 73155  1  0  0  0  0
 74 76  1  0  0  0  0
 74156  1  0  0  0  0
 75 78  1  0  0  0  0
 75159  1  0  0  0  0
 76 77  1  0  0  0  0
 76160  1  0  0  0  0
 77 80  1  0  0  0  0
 77162  1  0  0  0  0
 78 81  1  0  0  0  0
 78163  1  0  0  0  0
 79 80  1  0  0  0  0
 79 84  1  0  0  0  0
 79164  1  0  0  0  0
 80165  1  0  0  0  0
 81 83  1  0  0  0  0
 81166  1  0  0  0  0
 82 83  1  0  0  0  0
 82168  1  0  0  0  0
 82169  1  0  0  0  0
 83170  1  0  0  0  0
 84171  1  0  0  0  0
 84172  1  0  0  0  0
M  END
>  <PUBCHEM_COMPOUND_CID>
14464370

>  <PUBCHEM_COMPOUND_CANONICALIZED>
1

>  <PUBCHEM_CACTVS_COMPLEXITY>
2140

>  <PUBCHEM_CACTVS_HBOND_ACCEPTOR>
28

>  <PUBCHEM_CACTVS_HBOND_DONOR>
17

>  <PUBCHEM_CACTVS_ROTATABLE_BOND>
18

>  <PUBCHEM_CACTVS_SUBSKEYS>
AAADcfB8PgAAAAAAAAAAAAAAAAAAAaIAAAA0aNEiQAASAGDAAAAAGgAACAAADxSwgAMCCAAABgAAAAAAAAAAAAAAAAAAAAAAAAAREAIAAAAiQAAFAAAHAAHA4PwPgAAAAAAAAADAAAYAACAAAYAADAAAAA==

>  <PUBCHEM_IUPAC_INCHI>
InChI=1S/C56H94O28/c1-21(19-74-49-43(70)39(66)36(63)30(15-57)77-49)7-12-56(73)22(2)34-29(84-56)14-27-25-6-5-23-13-24(8-10-54(23,3)26(25)9-11-55(27,34)4)76-51-45(72)41(68)46(33(18-60)80-51)81-53-48(83-52-44(71)40(67)37(64)31(16-58)78-52)47(38(65)32(17-59)79-53)82-50-42(69)35(62)28(61)20-75-50/h21-53,57-73H,5-20H2,1-4H3

>  <PUBCHEM_IUPAC_INCHIKEY>
FJLUJBDSFBGOPL-UHFFFAOYSA-N

>  <PUBCHEM_XLOGP3_AA>
-3

>  <PUBCHEM_EXACT_MASS>
1214.593

>  <PUBCHEM_MOLECULAR_FORMULA>
C56H94O28

>  <PUBCHEM_MOLECULAR_WEIGHT>
1215.34

>  <PUBCHEM_OPENEYE_CAN_SMILES>
CC1C2C(CC3C2(CCC4C3CCC5C4(CCC(C5)OC6C(C(C(C(O6)CO)OC7C(C(C(C(O7)CO)O)OC8C(C(C(CO8)O)O)O)OC9C(C(C(C(O9)CO)O)O)O)O)O)C)C)OC1(CCC(C)COC1C(C(C(C(O1)CO)O)O)O)O

>  <PUBCHEM_OPENEYE_ISO_SMILES>
CC1C2C(CC3C2(CCC4C3CCC5C4(CCC(C5)OC6C(C(C(C(O6)CO)OC7C(C(C(C(O7)CO)O)OC8C(C(C(CO8)O)O)O)OC9C(C(C(C(O9)CO)O)O)O)O)O)C)C)OC1(CCC(C)COC1C(C(C(C(O1)CO)O)O)O)O

>  <PUBCHEM_CACTVS_TPSA>
445

>  <PUBCHEM_MONOISOTOPIC_WEIGHT>
1214.593

>  <PUBCHEM_TOTAL_CHARGE>
0

>  <PUBCHEM_HEAVY_ATOM_COUNT>
84

>  <PUBCHEM_ATOM_DEF_STEREO_COUNT>
0

>  <PUBCHEM_ATOM_UDEF_STEREO_COUNT>
36

>  <PUBCHEM_BOND_DEF_STEREO_COUNT>
0

>  <PUBCHEM_BOND_UDEF_STEREO_COUNT>
0

>  <PUBCHEM_ISOTOPIC_ATOM_COUNT>
0

>  <PUBCHEM_COMPONENT_COUNT>
1

>  <PUBCHEM_CACTVS_TAUTO_COUNT>
1

>  <PUBCHEM_COORDINATE_TYPE>
1
5
255

>  <PUBCHEM_BONDANNOTATIONS>
63  12  3
66  13  3
74  13  3
65  14  3
68  15  3
69  16  3
75  16  3
71  17  3
44  2  3
76  22  3
77  23  3
78  24  3
80  25  3
81  26  3
83  27  3
29  43  3
49  3  3
54  3  3
30  36  3
31  41  3
32  40  3
33  38  3
34  47  3
35  36  3
39  42  3
40  50  3
62  5  3
53  57  3
59  61  3
55  6  3
67  72  3
58  7  3
70  73  3
79  84  3
60  8  3
64  8  3

$$$$
