14484601
 OpenBabel06101807152D

 73 77  0  0  1  0  0  0  0  0999 V2000
    5.1350   -2.7873    0.0000 O   0  0  0  0  0  0  0  0  0  0  0  0
    6.0346    2.7852    0.0000 O   0  0  0  0  0  0  0  0  0  0  0  0
    6.8671   -2.7873    0.0000 O   0  0  0  0  0  0  0  0  0  0  0  0
    7.7666    2.7786    0.0000 O   0  0  0  0  0  0  0  0  0  0  0  0
    5.1350   -5.7873    0.0000 O   0  0  0  0  0  0  0  0  0  0  0  0
    3.4030   -4.7873    0.0000 O   0  0  0  0  0  0  0  0  0  0  0  0
    6.0462    5.7852    0.0000 O   0  0  0  0  0  0  0  0  0  0  0  0
    4.3103    4.7919    0.0000 O   0  0  0  0  0  0  0  0  0  0  0  0
    6.8671   -4.7873    0.0000 O   0  0  0  0  0  0  0  0  0  0  0  0
    7.7744    4.7785    0.0000 O   0  0  0  0  0  0  0  0  0  0  0  0
    2.5369   -3.2873    0.0000 O   0  0  0  0  0  0  0  0  0  0  0  0
    8.6230    0.2752    0.0000 O   0  0  0  0  0  0  0  0  0  0  0  0
    6.0308    1.7852    0.0000 O   0  0  0  0  0  0  0  0  0  0  0  0
    5.1208    0.2919    0.0000 O   0  0  0  0  0  0  0  0  0  0  0  0
   12.0910    1.2619    0.0000 O   0  0  0  0  0  0  0  0  0  0  0  0
   12.0987    3.2619    0.0000 O   0  0  0  0  0  0  0  0  0  0  0  0
    5.1350   -4.7873    0.0000 C   0  0  3  0  0  0  0  0  0  0  0  0
    4.2690   -4.2873    0.0000 C   0  0  3  0  0  0  0  0  0  0  0  0
    6.0423    4.7852    0.0000 C   0  0  3  0  0  0  0  0  0  0  0  0
    5.1744    4.2886    0.0000 C   0  0  3  0  0  0  0  0  0  0  0  0
    6.0010   -4.2873    0.0000 C   0  0  3  0  0  0  0  0  0  0  0  0
    4.2690   -3.2873    0.0000 C   0  0  3  0  0  0  0  0  0  0  0  0
    6.9064    4.2819    0.0000 C   0  0  3  0  0  0  0  0  0  0  0  0
    5.1705    3.2886    0.0000 C   0  0  3  0  0  0  0  0  0  0  0  0
    6.0010   -3.2873    0.0000 C   0  0  3  0  0  0  0  0  0  0  0  0
    6.9026    3.2819    0.0000 C   0  0  3  0  0  0  0  0  0  0  0  0
    3.4030   -2.7873    0.0000 C   0  0  0  0  0  0  0  0  0  0  0  0
    4.3026    2.7919    0.0000 C   0  0  0  0  0  0  0  0  0  0  0  0
    7.7628    1.7786    0.0000 C   0  0  0  0  0  0  0  0  0  0  0  0
    6.8671   -1.7873    0.0000 C   0  0  0  0  0  0  0  0  0  0  0  0
    6.8910    0.2819    0.0000 C   0  0  0  0  0  0  0  0  0  0  0  0
    7.7551   -0.2214    0.0000 C   0  0  0  0  0  0  0  0  0  0  0  0
    6.8948    1.2819    0.0000 C   0  0  0  0  0  0  0  0  0  0  0  0
    8.6269    1.2752    0.0000 C   0  0  0  0  0  0  0  0  0  0  0  0
    7.7671   -1.2630    0.0000 C   0  0  0  0  0  0  0  0  0  0  0  0
    5.9670   -1.2630    0.0000 C   0  0  0  0  0  0  0  0  0  0  0  0
    5.9790   -0.2214    0.0000 C   0  0  0  0  0  0  0  0  0  0  0  0
    9.4948    1.7719    0.0000 C   0  0  0  0  0  0  0  0  0  0  0  0
   10.3589    1.2686    0.0000 C   0  0  0  0  0  0  0  0  0  0  0  0
    9.4987    2.7719    0.0000 C   0  0  0  0  0  0  0  0  0  0  0  0
   11.2269    1.7652    0.0000 C   0  0  0  0  0  0  0  0  0  0  0  0
   10.3666    3.2685    0.0000 C   0  0  0  0  0  0  0  0  0  0  0  0
   11.2307    2.7652    0.0000 C   0  0  0  0  0  0  0  0  0  0  0  0
    5.6720   -5.0973    0.0000 H   0  0  0  0  0  0  0  0  0  0  0  0
    4.2690   -4.9073    0.0000 H   0  0  0  0  0  0  0  0  0  0  0  0
    6.5804    5.0931    0.0000 H   0  0  0  0  0  0  0  0  0  0  0  0
    5.1768    4.9086    0.0000 H   0  0  0  0  0  0  0  0  0  0  0  0
    6.5380   -3.9773    0.0000 H   0  0  0  0  0  0  0  0  0  0  0  0
    4.2690   -2.6673    0.0000 H   0  0  0  0  0  0  0  0  0  0  0  0
    7.4422    3.9698    0.0000 H   0  0  0  0  0  0  0  0  0  0  0  0
    5.1681    2.6686    0.0000 H   0  0  0  0  0  0  0  0  0  0  0  0
    6.0010   -2.6673    0.0000 H   0  0  0  0  0  0  0  0  0  0  0  0
    6.9002    2.6619    0.0000 H   0  0  0  0  0  0  0  0  0  0  0  0
    3.8015   -2.3123    0.0000 H   0  0  0  0  0  0  0  0  0  0  0  0
    3.0044   -2.3123    0.0000 H   0  0  0  0  0  0  0  0  0  0  0  0
    3.9946    3.3300    0.0000 H   0  0  0  0  0  0  0  0  0  0  0  0
    3.7644    2.4840    0.0000 H   0  0  0  0  0  0  0  0  0  0  0  0
    4.6105    2.2538    0.0000 H   0  0  0  0  0  0  0  0  0  0  0  0
    4.5981   -6.0973    0.0000 H   0  0  0  0  0  0  0  0  0  0  0  0
    3.4030   -5.4073    0.0000 H   0  0  0  0  0  0  0  0  0  0  0  0
    5.5104    6.0973    0.0000 H   0  0  0  0  0  0  0  0  0  0  0  0
    3.7722    4.4840    0.0000 H   0  0  0  0  0  0  0  0  0  0  0  0
    6.8671   -5.4073    0.0000 H   0  0  0  0  0  0  0  0  0  0  0  0
    7.7767    5.3985    0.0000 H   0  0  0  0  0  0  0  0  0  0  0  0
    8.3064   -1.5688    0.0000 H   0  0  0  0  0  0  0  0  0  0  0  0
    2.0000   -2.9773    0.0000 H   0  0  0  0  0  0  0  0  0  0  0  0
    5.4277   -1.5688    0.0000 H   0  0  0  0  0  0  0  0  0  0  0  0
   10.3565    0.6486    0.0000 H   0  0  0  0  0  0  0  0  0  0  0  0
    8.9630    3.0839    0.0000 H   0  0  0  0  0  0  0  0  0  0  0  0
    4.5792   -0.0098    0.0000 H   0  0  0  0  0  0  0  0  0  0  0  0
   10.3690    3.8885    0.0000 H   0  0  0  0  0  0  0  0  0  0  0  0
   12.6291    1.5698    0.0000 H   0  0  0  0  0  0  0  0  0  0  0  0
   12.1011    3.8818    0.0000 H   0  0  0  0  0  0  0  0  0  0  0  0
  1 22  1  0  0  0  0
  1 25  1  0  0  0  0
  2 24  1  0  0  0  0
  2 26  1  0  0  0  0
  3 25  1  0  0  0  0
  3 30  1  0  0  0  0
  4 26  1  0  0  0  0
  4 29  1  0  0  0  0
  5 17  1  0  0  0  0
  5 59  1  0  0  0  0
  6 18  1  0  0  0  0
  6 60  1  0  0  0  0
  7 19  1  0  0  0  0
  7 61  1  0  0  0  0
  8 20  1  0  0  0  0
  8 62  1  0  0  0  0
  9 21  1  0  0  0  0
  9 63  1  0  0  0  0
 10 23  1  0  0  0  0
 10 64  1  0  0  0  0
 11 27  1  0  0  0  0
 11 66  1  0  0  0  0
 12 32  1  0  0  0  0
 12 34  1  0  0  0  0
 13 33  2  0  0  0  0
 14 37  1  0  0  0  0
 14 70  1  0  0  0  0
 15 41  1  0  0  0  0
 15 72  1  0  0  0  0
 16 43  1  0  0  0  0
 16 73  1  0  0  0  0
 17 18  1  0  0  0  0
 17 21  1  0  0  0  0
 17 44  1  0  0  0  0
 18 22  1  0  0  0  0
 18 45  1  0  0  0  0
 19 20  1  0  0  0  0
 19 23  1  0  0  0  0
 19 46  1  0  0  0  0
 20 24  1  0  0  0  0
 20 47  1  0  0  0  0
 21 25  1  0  0  0  0
 21 48  1  0  0  0  0
 22 27  1  0  0  0  0
 22 49  1  0  0  0  0
 23 26  1  0  0  0  0
 23 50  1  0  0  0  0
 24 28  1  0  0  0  0
 24 51  1  0  0  0  0
 25 52  1  0  0  0  0
 26 53  1  0  0  0  0
 27 54  1  0  0  0  0
 27 55  1  0  0  0  0
 28 56  1  0  0  0  0
 28 57  1  0  0  0  0
 28 58  1  0  0  0  0
 29 33  1  0  0  0  0
 29 34  2  0  0  0  0
 30 35  1  0  0  0  0
 30 36  2  0  0  0  0
 31 32  1  0  0  0  0
 31 33  1  0  0  0  0
 31 37  2  0  0  0  0
 32 35  2  0  0  0  0
 34 38  1  0  0  0  0
 35 65  1  0  0  0  0
 36 37  1  0  0  0  0
 36 67  1  0  0  0  0
 38 39  2  0  0  0  0
 38 40  1  0  0  0  0
 39 41  1  0  0  0  0
 39 68  1  0  0  0  0
 40 42  2  0  0  0  0
 40 69  1  0  0  0  0
 41 43  2  0  0  0  0
 42 43  1  0  0  0  0
 42 71  1  0  0  0  0
M  END
>  <PUBCHEM_COMPOUND_CID>
14484601

>  <PUBCHEM_COMPOUND_CANONICALIZED>
1

>  <PUBCHEM_CACTVS_COMPLEXITY>
1020

>  <PUBCHEM_CACTVS_HBOND_ACCEPTOR>
16

>  <PUBCHEM_CACTVS_HBOND_DONOR>
10

>  <PUBCHEM_CACTVS_ROTATABLE_BOND>
6

>  <PUBCHEM_CACTVS_SUBSKEYS>
AAADceB4PgAAAAAAAAAAAAAAAAAAAAAAAAA0aIECAAAAAACBQAAAGgAACAAADBSwmAMyDoAABgCIAqBSAAICCAAkIAAIiAFGiMgdNzaGNR6ieWGl4BUPuQfI7LzOIAABCAAIQABAAAIQABCAAAAAAAAAAA==

>  <PUBCHEM_IUPAC_OPENEYE_NAME>
2-(3,4-dihydroxyphenyl)-5-hydroxy-7-[3,4,5-trihydroxy-6-(hydroxymethyl)tetrahydropyran-2-yl]oxy-3-(3,4,5-trihydroxy-6-methyl-tetrahydropyran-2-yl)oxy-chromen-4-one

>  <PUBCHEM_IUPAC_CAS_NAME>
2-(3,4-dihydroxyphenyl)-5-hydroxy-7-[[3,4,5-trihydroxy-6-(hydroxymethyl)-2-oxanyl]oxy]-3-[(3,4,5-trihydroxy-6-methyl-2-oxanyl)oxy]-1-benzopyran-4-one

>  <PUBCHEM_IUPAC_NAME>
2-(3,4-dihydroxyphenyl)-5-hydroxy-7-[3,4,5-trihydroxy-6-(hydroxymethyl)oxan-2-yl]oxy-3-(3,4,5-trihydroxy-6-methyloxan-2-yl)oxychromen-4-one

>  <PUBCHEM_IUPAC_SYSTEMATIC_NAME>
2-[3,4-bis(oxidanyl)phenyl]-7-[6-(hydroxymethyl)-3,4,5-tris(oxidanyl)oxan-2-yl]oxy-3-[6-methyl-3,4,5-tris(oxidanyl)oxan-2-yl]oxy-5-oxidanyl-chromen-4-one

>  <PUBCHEM_IUPAC_TRADITIONAL_NAME>
2-(3,4-dihydroxyphenyl)-5-hydroxy-7-(3,4,5-trihydroxy-6-methylol-tetrahydropyran-2-yl)oxy-3-(3,4,5-trihydroxy-6-methyl-tetrahydropyran-2-yl)oxy-chromone

>  <PUBCHEM_IUPAC_INCHI>
InChI=1S/C27H30O16/c1-8-17(32)20(35)22(37)26(39-8)43-25-19(34)16-13(31)5-10(40-27-23(38)21(36)18(33)15(7-28)42-27)6-14(16)41-24(25)9-2-3-11(29)12(30)4-9/h2-6,8,15,17-18,20-23,26-33,35-38H,7H2,1H3

>  <PUBCHEM_IUPAC_INCHIKEY>
MCTZMXCUYPDYNE-UHFFFAOYSA-N

>  <PUBCHEM_XLOGP3_AA>
-0.9

>  <PUBCHEM_EXACT_MASS>
610.153

>  <PUBCHEM_MOLECULAR_FORMULA>
C27H30O16

>  <PUBCHEM_MOLECULAR_WEIGHT>
610.521

>  <PUBCHEM_OPENEYE_CAN_SMILES>
CC1C(C(C(C(O1)OC2=C(OC3=CC(=CC(=C3C2=O)O)OC4C(C(C(C(O4)CO)O)O)O)C5=CC(=C(C=C5)O)O)O)O)O

>  <PUBCHEM_OPENEYE_ISO_SMILES>
CC1C(C(C(C(O1)OC2=C(OC3=CC(=CC(=C3C2=O)O)OC4C(C(C(C(O4)CO)O)O)O)C5=CC(=C(C=C5)O)O)O)O)O

>  <PUBCHEM_CACTVS_TPSA>
266

>  <PUBCHEM_MONOISOTOPIC_WEIGHT>
610.153

>  <PUBCHEM_TOTAL_CHARGE>
0

>  <PUBCHEM_HEAVY_ATOM_COUNT>
43

>  <PUBCHEM_ATOM_DEF_STEREO_COUNT>
0

>  <PUBCHEM_ATOM_UDEF_STEREO_COUNT>
10

>  <PUBCHEM_BOND_DEF_STEREO_COUNT>
0

>  <PUBCHEM_BOND_UDEF_STEREO_COUNT>
0

>  <PUBCHEM_ISOTOPIC_ATOM_COUNT>
0

>  <PUBCHEM_COMPONENT_COUNT>
1

>  <PUBCHEM_CACTVS_TAUTO_COUNT>
68

>  <PUBCHEM_COORDINATE_TYPE>
1
5
255

>  <PUBCHEM_BONDANNOTATIONS>
23  10  3
12  32  8
12  34  8
22  27  3
24  28  3
29  33  8
29  34  8
25  3  3
30  35  8
30  36  8
31  32  8
31  33  8
31  37  8
32  35  8
36  37  8
38  39  8
38  40  8
39  41  8
26  4  3
40  42  8
41  43  8
42  43  8
17  5  3
18  6  3
19  7  3
20  8  3
21  9  3

$$$$
