14500869
 OpenBabel06101807152D

 58 61  0  0  1  0  0  0  0  0999 V2000
    8.5991   -2.7819    0.0000 O   0  0  0  0  0  0  0  0  0  0  0  0
    6.8671   -4.7819    0.0000 O   0  0  0  0  0  0  0  0  0  0  0  0
   10.3312   -2.7819    0.0000 O   0  0  0  0  0  0  0  0  0  0  0  0
    8.5991   -5.7819    0.0000 O   0  0  0  0  0  0  0  0  0  0  0  0
   10.3312   -4.7819    0.0000 O   0  0  0  0  0  0  0  0  0  0  0  0
    6.0010   -3.2819    0.0000 O   0  0  0  0  0  0  0  0  0  0  0  0
   12.0871    0.2806    0.0000 O   0  0  0  0  0  0  0  0  0  0  0  0
    5.1350   -1.7819    0.0000 O   0  0  0  0  0  0  0  0  0  0  0  0
    9.4948    1.7906    0.0000 O   0  0  0  0  0  0  0  0  0  0  0  0
    2.5369   -3.2819    0.0000 O   0  0  0  0  0  0  0  0  0  0  0  0
    3.4030   -1.7819    0.0000 O   0  0  0  0  0  0  0  0  0  0  0  0
   11.2423    5.7839    0.0000 O   0  0  0  0  0  0  0  0  0  0  0  0
    7.7331   -4.2819    0.0000 C   0  0  3  0  0  0  0  0  0  0  0  0
    8.5991   -4.7819    0.0000 C   0  0  3  0  0  0  0  0  0  0  0  0
    7.7331   -3.2819    0.0000 C   0  0  3  0  0  0  0  0  0  0  0  0
    9.4651   -4.2819    0.0000 C   0  0  3  0  0  0  0  0  0  0  0  0
    9.4651   -3.2819    0.0000 C   0  0  3  0  0  0  0  0  0  0  0  0
    6.8671   -2.7819    0.0000 C   0  0  0  0  0  0  0  0  0  0  0  0
   10.3312   -1.7819    0.0000 C   0  0  0  0  0  0  0  0  0  0  0  0
   11.2312   -1.2576    0.0000 C   0  0  0  0  0  0  0  0  0  0  0  0
    9.4311   -1.2576    0.0000 C   0  0  0  0  0  0  0  0  0  0  0  0
    5.1350   -2.7819    0.0000 C   0  0  0  0  0  0  0  0  0  0  0  0
   11.2192   -0.2160    0.0000 C   0  0  0  0  0  0  0  0  0  0  0  0
   10.3551    0.2873    0.0000 C   0  0  0  0  0  0  0  0  0  0  0  0
    9.4431   -0.2160    0.0000 C   0  0  0  0  0  0  0  0  0  0  0  0
    4.2690   -3.2819    0.0000 C   0  0  0  0  0  0  0  0  0  0  0  0
   10.3589    1.2873    0.0000 C   0  0  0  0  0  0  0  0  0  0  0  0
   11.2269    1.7840    0.0000 C   0  0  0  0  0  0  0  0  0  0  0  0
   12.0910    1.2806    0.0000 C   0  0  0  0  0  0  0  0  0  0  0  0
   11.2307    2.7840    0.0000 C   0  0  0  0  0  0  0  0  0  0  0  0
    3.4030   -2.7819    0.0000 C   0  0  0  0  0  0  0  0  0  0  0  0
   12.0987    3.2806    0.0000 C   0  0  0  0  0  0  0  0  0  0  0  0
   10.3667    3.2873    0.0000 C   0  0  0  0  0  0  0  0  0  0  0  0
   12.1025    4.2806    0.0000 C   0  0  0  0  0  0  0  0  0  0  0  0
   10.3705    4.2873    0.0000 C   0  0  0  0  0  0  0  0  0  0  0  0
   11.2385    4.7840    0.0000 C   0  0  0  0  0  0  0  0  0  0  0  0
    7.7331   -4.9019    0.0000 H   0  0  0  0  0  0  0  0  0  0  0  0
    9.1360   -5.0919    0.0000 H   0  0  0  0  0  0  0  0  0  0  0  0
    7.7331   -2.6619    0.0000 H   0  0  0  0  0  0  0  0  0  0  0  0
   10.0021   -3.9719    0.0000 H   0  0  0  0  0  0  0  0  0  0  0  0
    9.4651   -2.6619    0.0000 H   0  0  0  0  0  0  0  0  0  0  0  0
    7.2656   -2.3069    0.0000 H   0  0  0  0  0  0  0  0  0  0  0  0
    6.4685   -2.3069    0.0000 H   0  0  0  0  0  0  0  0  0  0  0  0
    6.8671   -5.4019    0.0000 H   0  0  0  0  0  0  0  0  0  0  0  0
    8.0622   -6.0919    0.0000 H   0  0  0  0  0  0  0  0  0  0  0  0
   10.3312   -5.4019    0.0000 H   0  0  0  0  0  0  0  0  0  0  0  0
   11.7705   -1.5634    0.0000 H   0  0  0  0  0  0  0  0  0  0  0  0
    8.8918   -1.5634    0.0000 H   0  0  0  0  0  0  0  0  0  0  0  0
    8.9110    0.1022    0.0000 H   0  0  0  0  0  0  0  0  0  0  0  0
    3.8705   -3.7568    0.0000 H   0  0  0  0  0  0  0  0  0  0  0  0
    4.6675   -3.7568    0.0000 H   0  0  0  0  0  0  0  0  0  0  0  0
   12.6291    1.5886    0.0000 H   0  0  0  0  0  0  0  0  0  0  0  0
   12.6344    2.9686    0.0000 H   0  0  0  0  0  0  0  0  0  0  0  0
    9.8285    2.9794    0.0000 H   0  0  0  0  0  0  0  0  0  0  0  0
   12.6407    4.5885    0.0000 H   0  0  0  0  0  0  0  0  0  0  0  0
    9.8348    4.5994    0.0000 H   0  0  0  0  0  0  0  0  0  0  0  0
    2.0000   -2.9719    0.0000 H   0  0  0  0  0  0  0  0  0  0  0  0
   11.7804    6.0919    0.0000 H   0  0  0  0  0  0  0  0  0  0  0  0
  1 15  1  0  0  0  0
  1 17  1  0  0  0  0
  2 13  1  0  0  0  0
  2 44  1  0  0  0  0
  3 17  1  0  0  0  0
  3 19  1  0  0  0  0
  4 14  1  0  0  0  0
  4 45  1  0  0  0  0
  5 16  1  0  0  0  0
  5 46  1  0  0  0  0
  6 18  1  0  0  0  0
  6 22  1  0  0  0  0
  7 23  1  0  0  0  0
  7 29  1  0  0  0  0
  8 22  2  0  0  0  0
  9 27  2  0  0  0  0
 10 31  1  0  0  0  0
 10 57  1  0  0  0  0
 11 31  2  0  0  0  0
 12 36  1  0  0  0  0
 12 58  1  0  0  0  0
 13 14  1  0  0  0  0
 13 15  1  0  0  0  0
 13 37  1  0  0  0  0
 14 16  1  0  0  0  0
 14 38  1  0  0  0  0
 15 18  1  0  0  0  0
 15 39  1  0  0  0  0
 16 17  1  0  0  0  0
 16 40  1  0  0  0  0
 17 41  1  0  0  0  0
 18 42  1  0  0  0  0
 18 43  1  0  0  0  0
 19 20  2  0  0  0  0
 19 21  1  0  0  0  0
 20 23  1  0  0  0  0
 20 47  1  0  0  0  0
 21 25  2  0  0  0  0
 21 48  1  0  0  0  0
 22 26  1  0  0  0  0
 23 24  2  0  0  0  0
 24 25  1  0  0  0  0
 24 27  1  0  0  0  0
 25 49  1  0  0  0  0
 26 31  1  0  0  0  0
 26 50  1  0  0  0  0
 26 51  1  0  0  0  0
 27 28  1  0  0  0  0
 28 29  2  0  0  0  0
 28 30  1  0  0  0  0
 29 52  1  0  0  0  0
 30 32  2  0  0  0  0
 30 33  1  0  0  0  0
 32 34  1  0  0  0  0
 32 53  1  0  0  0  0
 33 35  2  0  0  0  0
 33 54  1  0  0  0  0
 34 36  2  0  0  0  0
 34 55  1  0  0  0  0
 35 36  1  0  0  0  0
 35 56  1  0  0  0  0
M  END
>  <PUBCHEM_COMPOUND_CID>
14500869

>  <PUBCHEM_COMPOUND_CANONICALIZED>
1

>  <PUBCHEM_CACTVS_COMPLEXITY>
850

>  <PUBCHEM_CACTVS_HBOND_ACCEPTOR>
12

>  <PUBCHEM_CACTVS_HBOND_DONOR>
5

>  <PUBCHEM_CACTVS_ROTATABLE_BOND>
8

>  <PUBCHEM_CACTVS_SUBSKEYS>
AAADceB4PAAAAAAAAAAAAAAAAAAAAAAAAAA0YIEAAAAAAACBQAAAGgAACAAADBSwmAMwDoAABgCIAqDSCAACCAAkIAAIiAEGCMgdNzaONRqieWCl4BUPuYfI7PzOIAAACAAIAABAAAAQABAAAAAAAAAAAA==

>  <PUBCHEM_IUPAC_OPENEYE_NAME>
3-oxo-3-[[3,4,5-trihydroxy-6-[3-(4-hydroxyphenyl)-4-oxo-chromen-7-yl]oxy-tetrahydropyran-2-yl]methoxy]propanoic acid

>  <PUBCHEM_IUPAC_CAS_NAME>
3-oxo-3-[[3,4,5-trihydroxy-6-[[3-(4-hydroxyphenyl)-4-oxo-1-benzopyran-7-yl]oxy]-2-oxanyl]methoxy]propanoic acid

>  <PUBCHEM_IUPAC_NAME>
3-oxo-3-[[3,4,5-trihydroxy-6-[3-(4-hydroxyphenyl)-4-oxochromen-7-yl]oxyoxan-2-yl]methoxy]propanoic acid

>  <PUBCHEM_IUPAC_SYSTEMATIC_NAME>
3-[[6-[3-(4-hydroxyphenyl)-4-oxidanylidene-chromen-7-yl]oxy-3,4,5-tris(oxidanyl)oxan-2-yl]methoxy]-3-oxidanylidene-propanoic acid

>  <PUBCHEM_IUPAC_TRADITIONAL_NAME>
3-keto-3-[[3,4,5-trihydroxy-6-[3-(4-hydroxyphenyl)-4-keto-chromen-7-yl]oxy-tetrahydropyran-2-yl]methoxy]propionic acid

>  <PUBCHEM_IUPAC_INCHI>
InChI=1S/C24H22O12/c25-12-3-1-11(2-4-12)15-9-33-16-7-13(5-6-14(16)20(15)29)35-24-23(32)22(31)21(30)17(36-24)10-34-19(28)8-18(26)27/h1-7,9,17,21-25,30-32H,8,10H2,(H,26,27)

>  <PUBCHEM_IUPAC_INCHIKEY>
MTXMHWSVSZKYBT-UHFFFAOYSA-N

>  <PUBCHEM_XLOGP3_AA>
0.4

>  <PUBCHEM_EXACT_MASS>
502.111

>  <PUBCHEM_MOLECULAR_FORMULA>
C24H22O12

>  <PUBCHEM_MOLECULAR_WEIGHT>
502.428

>  <PUBCHEM_OPENEYE_CAN_SMILES>
C1=CC(=CC=C1C2=COC3=C(C2=O)C=CC(=C3)OC4C(C(C(C(O4)COC(=O)CC(=O)O)O)O)O)O

>  <PUBCHEM_OPENEYE_ISO_SMILES>
C1=CC(=CC=C1C2=COC3=C(C2=O)C=CC(=C3)OC4C(C(C(C(O4)COC(=O)CC(=O)O)O)O)O)O

>  <PUBCHEM_CACTVS_TPSA>
189

>  <PUBCHEM_MONOISOTOPIC_WEIGHT>
502.111

>  <PUBCHEM_TOTAL_CHARGE>
0

>  <PUBCHEM_HEAVY_ATOM_COUNT>
36

>  <PUBCHEM_ATOM_DEF_STEREO_COUNT>
0

>  <PUBCHEM_ATOM_UDEF_STEREO_COUNT>
5

>  <PUBCHEM_BOND_DEF_STEREO_COUNT>
0

>  <PUBCHEM_BOND_UDEF_STEREO_COUNT>
0

>  <PUBCHEM_ISOTOPIC_ATOM_COUNT>
0

>  <PUBCHEM_COMPONENT_COUNT>
1

>  <PUBCHEM_CACTVS_TAUTO_COUNT>
2

>  <PUBCHEM_COORDINATE_TYPE>
1
5
255

>  <PUBCHEM_BONDANNOTATIONS>
15  18  3
19  20  8
19  21  8
13  2  3
20  23  8
21  25  8
23  24  8
24  25  8
24  27  8
27  28  8
28  29  8
17  3  3
30  32  8
30  33  8
32  34  8
33  35  8
34  36  8
35  36  8
14  4  3
16  5  3
7  23  8
7  29  8

$$$$
