14514
 OpenBabel06101807152D

 17 17  0  0  0  0  0  0  0  0999 V2000
    3.7601   -0.4197    0.0000 O   0  0  0  0  0  0  0  0  0  0  0  0
    5.7281   -1.1191    0.0000 O   0  0  0  0  0  0  0  0  0  0  0  0
    4.5691    0.1681    0.0000 C   0  0  0  0  0  0  0  0  0  0  0  0
    2.9511    0.1681    0.0000 C   0  0  0  0  0  0  0  0  0  0  0  0
    4.2601    1.1191    0.0000 C   0  0  0  0  0  0  0  0  0  0  0  0
    3.2601    1.1191    0.0000 C   0  0  0  0  0  0  0  0  0  0  0  0
    5.5202   -0.1410    0.0000 C   0  0  0  0  0  0  0  0  0  0  0  0
    2.0000   -0.1410    0.0000 C   0  0  0  0  0  0  0  0  0  0  0  0
    6.2633    0.5282    0.0000 C   0  0  0  0  0  0  0  0  0  0  0  0
    4.6245    1.6207    0.0000 H   0  0  0  0  0  0  0  0  0  0  0  0
    2.8956    1.6207    0.0000 H   0  0  0  0  0  0  0  0  0  0  0  0
    1.8084    0.4487    0.0000 H   0  0  0  0  0  0  0  0  0  0  0  0
    1.4103   -0.3326    0.0000 H   0  0  0  0  0  0  0  0  0  0  0  0
    2.1916   -0.7306    0.0000 H   0  0  0  0  0  0  0  0  0  0  0  0
    6.6782    0.0674    0.0000 H   0  0  0  0  0  0  0  0  0  0  0  0
    6.7240    0.9430    0.0000 H   0  0  0  0  0  0  0  0  0  0  0  0
    5.8484    0.9889    0.0000 H   0  0  0  0  0  0  0  0  0  0  0  0
  1  3  1  0  0  0  0
  1  4  1  0  0  0  0
  2  7  2  0  0  0  0
  3  5  2  0  0  0  0
  3  7  1  0  0  0  0
  4  6  2  0  0  0  0
  4  8  1  0  0  0  0
  5  6  1  0  0  0  0
  5 10  1  0  0  0  0
  6 11  1  0  0  0  0
  7  9  1  0  0  0  0
  8 12  1  0  0  0  0
  8 13  1  0  0  0  0
  8 14  1  0  0  0  0
  9 15  1  0  0  0  0
  9 16  1  0  0  0  0
  9 17  1  0  0  0  0
M  END
>  <PUBCHEM_COMPOUND_CID>
14514

>  <PUBCHEM_COMPOUND_CANONICALIZED>
1

>  <PUBCHEM_CACTVS_COMPLEXITY>
120

>  <PUBCHEM_CACTVS_HBOND_ACCEPTOR>
2

>  <PUBCHEM_CACTVS_HBOND_DONOR>
0

>  <PUBCHEM_CACTVS_ROTATABLE_BOND>
1

>  <PUBCHEM_CACTVS_SUBSKEYS>
AAADccBgMAAAAAAAAAAAAAAAAAAAASAAAAAAAAAAAAAAAAABgAAAGgAAAAAACASAkAAyBIAABECIAKBSAAICCAAkIAAIiAFGCMgMJjKENR6CGSCkwBEIqYeIzgBgAAAAAAAAAAAAAAAAAAAAAAAAAAAAAA==

>  <PUBCHEM_IUPAC_OPENEYE_NAME>
1-(5-methyl-2-furyl)ethanone

>  <PUBCHEM_IUPAC_CAS_NAME>
1-(5-methyl-2-furanyl)ethanone

>  <PUBCHEM_IUPAC_NAME>
1-(5-methylfuran-2-yl)ethanone

>  <PUBCHEM_IUPAC_SYSTEMATIC_NAME>
1-(5-methylfuran-2-yl)ethanone

>  <PUBCHEM_IUPAC_TRADITIONAL_NAME>
1-(5-methyl-2-furyl)ethanone

>  <PUBCHEM_IUPAC_INCHI>
InChI=1S/C7H8O2/c1-5-3-4-7(9-5)6(2)8/h3-4H,1-2H3

>  <PUBCHEM_IUPAC_INCHIKEY>
KEFJLCGVTHRGAH-UHFFFAOYSA-N

>  <PUBCHEM_XLOGP3_AA>
1.4

>  <PUBCHEM_EXACT_MASS>
124.052

>  <PUBCHEM_MOLECULAR_FORMULA>
C7H8O2

>  <PUBCHEM_MOLECULAR_WEIGHT>
124.139

>  <PUBCHEM_OPENEYE_CAN_SMILES>
CC1=CC=C(O1)C(=O)C

>  <PUBCHEM_OPENEYE_ISO_SMILES>
CC1=CC=C(O1)C(=O)C

>  <PUBCHEM_CACTVS_TPSA>
30.2

>  <PUBCHEM_MONOISOTOPIC_WEIGHT>
124.052

>  <PUBCHEM_TOTAL_CHARGE>
0

>  <PUBCHEM_HEAVY_ATOM_COUNT>
9

>  <PUBCHEM_ATOM_DEF_STEREO_COUNT>
0

>  <PUBCHEM_ATOM_UDEF_STEREO_COUNT>
0

>  <PUBCHEM_BOND_DEF_STEREO_COUNT>
0

>  <PUBCHEM_BOND_UDEF_STEREO_COUNT>
0

>  <PUBCHEM_ISOTOPIC_ATOM_COUNT>
0

>  <PUBCHEM_COMPONENT_COUNT>
1

>  <PUBCHEM_CACTVS_TAUTO_COUNT>
7

>  <PUBCHEM_COORDINATE_TYPE>
1
5
255

>  <PUBCHEM_BONDANNOTATIONS>
1  3  8
1  4  8
3  5  8
4  6  8
5  6  8

$$$$
