14522983
 OpenBabel06101807152D

 72 72  0  0  0  0  0  0  0  0999 V2000
    7.1962    2.0950    0.0000 O   0  0  0  0  0  0  0  0  0  0  0  0
    6.3301    0.5950    0.0000 O   0  0  0  0  0  0  0  0  0  0  0  0
    2.8660   -1.4050    0.0000 O   0  0  0  0  0  0  0  0  0  0  0  0
    4.5981   -2.4050    0.0000 O   0  0  0  0  0  0  0  0  0  0  0  0
   14.1244    2.0950    0.0000 C   0  0  0  0  0  0  0  0  0  0  0  0
   14.9904    1.5950    0.0000 C   0  0  0  0  0  0  0  0  0  0  0  0
   13.2583    1.5950    0.0000 C   0  0  0  0  0  0  0  0  0  0  0  0
   15.8564    2.0950    0.0000 C   0  0  0  0  0  0  0  0  0  0  0  0
   12.3923    2.0950    0.0000 C   0  0  0  0  0  0  0  0  0  0  0  0
   16.7224    1.5950    0.0000 C   0  0  0  0  0  0  0  0  0  0  0  0
   11.5263    1.5950    0.0000 C   0  0  0  0  0  0  0  0  0  0  0  0
   17.5885    2.0950    0.0000 C   0  0  0  0  0  0  0  0  0  0  0  0
   10.6603    2.0950    0.0000 C   0  0  0  0  0  0  0  0  0  0  0  0
   18.4545    1.5950    0.0000 C   0  0  0  0  0  0  0  0  0  0  0  0
    9.7942    1.5950    0.0000 C   0  0  0  0  0  0  0  0  0  0  0  0
   19.3205    2.0950    0.0000 C   0  0  0  0  0  0  0  0  0  0  0  0
    8.9282    2.0950    0.0000 C   0  0  0  0  0  0  0  0  0  0  0  0
   20.1865    1.5950    0.0000 C   0  0  0  0  0  0  0  0  0  0  0  0
    8.0622    1.5950    0.0000 C   0  0  0  0  0  0  0  0  0  0  0  0
   21.0526    2.0950    0.0000 C   0  0  0  0  0  0  0  0  0  0  0  0
    6.3301    1.5950    0.0000 C   0  0  0  0  0  0  0  0  0  0  0  0
    5.4641    2.0950    0.0000 C   0  0  0  0  0  0  0  0  0  0  0  0
    4.5981    1.5950    0.0000 C   0  0  0  0  0  0  0  0  0  0  0  0
    4.5981    0.5950    0.0000 C   0  0  0  0  0  0  0  0  0  0  0  0
    3.7320    0.0950    0.0000 C   0  0  0  0  0  0  0  0  0  0  0  0
    5.4641    0.0950    0.0000 C   0  0  0  0  0  0  0  0  0  0  0  0
    3.7320   -0.9050    0.0000 C   0  0  0  0  0  0  0  0  0  0  0  0
    5.4641   -0.9050    0.0000 C   0  0  0  0  0  0  0  0  0  0  0  0
    4.5981   -1.4050    0.0000 C   0  0  0  0  0  0  0  0  0  0  0  0
    2.0000   -0.9050    0.0000 C   0  0  0  0  0  0  0  0  0  0  0  0
   14.5229    2.5700    0.0000 H   0  0  0  0  0  0  0  0  0  0  0  0
   13.7258    2.5700    0.0000 H   0  0  0  0  0  0  0  0  0  0  0  0
   14.5919    1.1200    0.0000 H   0  0  0  0  0  0  0  0  0  0  0  0
   15.3889    1.1200    0.0000 H   0  0  0  0  0  0  0  0  0  0  0  0
   12.8598    1.1200    0.0000 H   0  0  0  0  0  0  0  0  0  0  0  0
   13.6569    1.1200    0.0000 H   0  0  0  0  0  0  0  0  0  0  0  0
   16.2549    2.5700    0.0000 H   0  0  0  0  0  0  0  0  0  0  0  0
   15.4579    2.5700    0.0000 H   0  0  0  0  0  0  0  0  0  0  0  0
   12.7908    2.5700    0.0000 H   0  0  0  0  0  0  0  0  0  0  0  0
   11.9938    2.5700    0.0000 H   0  0  0  0  0  0  0  0  0  0  0  0
   16.3239    1.1200    0.0000 H   0  0  0  0  0  0  0  0  0  0  0  0
   17.1210    1.1200    0.0000 H   0  0  0  0  0  0  0  0  0  0  0  0
   11.1278    1.1200    0.0000 H   0  0  0  0  0  0  0  0  0  0  0  0
   11.9248    1.1200    0.0000 H   0  0  0  0  0  0  0  0  0  0  0  0
   17.9870    2.5700    0.0000 H   0  0  0  0  0  0  0  0  0  0  0  0
   17.1899    2.5700    0.0000 H   0  0  0  0  0  0  0  0  0  0  0  0
   11.0588    2.5700    0.0000 H   0  0  0  0  0  0  0  0  0  0  0  0
   10.2617    2.5700    0.0000 H   0  0  0  0  0  0  0  0  0  0  0  0
   18.0560    1.1200    0.0000 H   0  0  0  0  0  0  0  0  0  0  0  0
   18.8530    1.1200    0.0000 H   0  0  0  0  0  0  0  0  0  0  0  0
    9.3957    1.1200    0.0000 H   0  0  0  0  0  0  0  0  0  0  0  0
   10.1928    1.1200    0.0000 H   0  0  0  0  0  0  0  0  0  0  0  0
   19.7190    2.5700    0.0000 H   0  0  0  0  0  0  0  0  0  0  0  0
   18.9220    2.5700    0.0000 H   0  0  0  0  0  0  0  0  0  0  0  0
    9.3267    2.5700    0.0000 H   0  0  0  0  0  0  0  0  0  0  0  0
    8.5297    2.5700    0.0000 H   0  0  0  0  0  0  0  0  0  0  0  0
   19.7880    1.1200    0.0000 H   0  0  0  0  0  0  0  0  0  0  0  0
   20.5851    1.1200    0.0000 H   0  0  0  0  0  0  0  0  0  0  0  0
    7.6636    1.1200    0.0000 H   0  0  0  0  0  0  0  0  0  0  0  0
    8.4607    1.1200    0.0000 H   0  0  0  0  0  0  0  0  0  0  0  0
   21.3626    1.5581    0.0000 H   0  0  0  0  0  0  0  0  0  0  0  0
   21.5895    2.4050    0.0000 H   0  0  0  0  0  0  0  0  0  0  0  0
   20.7426    2.6319    0.0000 H   0  0  0  0  0  0  0  0  0  0  0  0
    5.4641    2.7150    0.0000 H   0  0  0  0  0  0  0  0  0  0  0  0
    4.0611    1.9050    0.0000 H   0  0  0  0  0  0  0  0  0  0  0  0
    3.1951    0.4050    0.0000 H   0  0  0  0  0  0  0  0  0  0  0  0
    6.0010    0.4050    0.0000 H   0  0  0  0  0  0  0  0  0  0  0  0
    6.0010   -1.2150    0.0000 H   0  0  0  0  0  0  0  0  0  0  0  0
    5.1350   -2.7150    0.0000 H   0  0  0  0  0  0  0  0  0  0  0  0
    2.3100   -0.3681    0.0000 H   0  0  0  0  0  0  0  0  0  0  0  0
    1.4631   -0.5950    0.0000 H   0  0  0  0  0  0  0  0  0  0  0  0
    1.6900   -1.4419    0.0000 H   0  0  0  0  0  0  0  0  0  0  0  0
  1 19  1  0  0  0  0
  1 21  1  0  0  0  0
  2 21  2  0  0  0  0
  3 27  1  0  0  0  0
  3 30  1  0  0  0  0
  4 29  1  0  0  0  0
  4 69  1  0  0  0  0
  5  6  1  0  0  0  0
  5  7  1  0  0  0  0
  5 31  1  0  0  0  0
  5 32  1  0  0  0  0
  6  8  1  0  0  0  0
  6 33  1  0  0  0  0
  6 34  1  0  0  0  0
  7  9  1  0  0  0  0
  7 35  1  0  0  0  0
  7 36  1  0  0  0  0
  8 10  1  0  0  0  0
  8 37  1  0  0  0  0
  8 38  1  0  0  0  0
  9 11  1  0  0  0  0
  9 39  1  0  0  0  0
  9 40  1  0  0  0  0
 10 12  1  0  0  0  0
 10 41  1  0  0  0  0
 10 42  1  0  0  0  0
 11 13  1  0  0  0  0
 11 43  1  0  0  0  0
 11 44  1  0  0  0  0
 12 14  1  0  0  0  0
 12 45  1  0  0  0  0
 12 46  1  0  0  0  0
 13 15  1  0  0  0  0
 13 47  1  0  0  0  0
 13 48  1  0  0  0  0
 14 16  1  0  0  0  0
 14 49  1  0  0  0  0
 14 50  1  0  0  0  0
 15 17  1  0  0  0  0
 15 51  1  0  0  0  0
 15 52  1  0  0  0  0
 16 18  1  0  0  0  0
 16 53  1  0  0  0  0
 16 54  1  0  0  0  0
 17 19  1  0  0  0  0
 17 55  1  0  0  0  0
 17 56  1  0  0  0  0
 18 20  1  0  0  0  0
 18 57  1  0  0  0  0
 18 58  1  0  0  0  0
 19 59  1  0  0  0  0
 19 60  1  0  0  0  0
 20 61  1  0  0  0  0
 20 62  1  0  0  0  0
 20 63  1  0  0  0  0
 21 22  1  0  0  0  0
 22 23  2  0  0  0  0
 22 64  1  0  0  0  0
 23 24  1  0  0  0  0
 23 65  1  0  0  0  0
 24 25  2  0  0  0  0
 24 26  1  0  0  0  0
 25 27  1  0  0  0  0
 25 66  1  0  0  0  0
 26 28  2  0  0  0  0
 26 67  1  0  0  0  0
 27 29  2  0  0  0  0
 28 29  1  0  0  0  0
 28 68  1  0  0  0  0
 30 70  1  0  0  0  0
 30 71  1  0  0  0  0
 30 72  1  0  0  0  0
M  END
>  <PUBCHEM_COMPOUND_CID>
14522983

>  <PUBCHEM_COMPOUND_CANONICALIZED>
1

>  <PUBCHEM_CACTVS_COMPLEXITY>
435

>  <PUBCHEM_CACTVS_HBOND_ACCEPTOR>
4

>  <PUBCHEM_CACTVS_HBOND_DONOR>
1

>  <PUBCHEM_CACTVS_ROTATABLE_BOND>
19

>  <PUBCHEM_CACTVS_SUBSKEYS>
AAADcfB4OAAAAAAAAAAAAAAAAAAAAAAAAAAwAAAAAAAAAAABAAAAGgAACAAADASgmAIyDoAABgCIAiDSCAACCAAgIAAIiAAGiMgNJiKGMRqCcCMkwBELuYeAwLAOIAABAAAAQABAAAIAAACAAAAAAAAAAA==

>  <PUBCHEM_IUPAC_OPENEYE_NAME>
hexadecyl (Z)-3-(4-hydroxy-3-methoxy-phenyl)prop-2-enoate

>  <PUBCHEM_IUPAC_CAS_NAME>
(Z)-3-(4-hydroxy-3-methoxyphenyl)-2-propenoic acid hexadecyl ester

>  <PUBCHEM_IUPAC_NAME>
hexadecyl (Z)-3-(4-hydroxy-3-methoxyphenyl)prop-2-enoate

>  <PUBCHEM_IUPAC_SYSTEMATIC_NAME>
hexadecyl (Z)-3-(3-methoxy-4-oxidanyl-phenyl)prop-2-enoate

>  <PUBCHEM_IUPAC_TRADITIONAL_NAME>
(Z)-3-(4-hydroxy-3-methoxy-phenyl)acrylic acid cetyl ester

>  <PUBCHEM_IUPAC_INCHI>
InChI=1S/C26H42O4/c1-3-4-5-6-7-8-9-10-11-12-13-14-15-16-21-30-26(28)20-18-23-17-19-24(27)25(22-23)29-2/h17-20,22,27H,3-16,21H2,1-2H3/b20-18-

>  <PUBCHEM_IUPAC_INCHIKEY>
ZISDTRGMDDVTKY-ZZEZOPTASA-N

>  <PUBCHEM_XLOGP3>
9.6

>  <PUBCHEM_EXACT_MASS>
418.308

>  <PUBCHEM_MOLECULAR_FORMULA>
C26H42O4

>  <PUBCHEM_MOLECULAR_WEIGHT>
418.618

>  <PUBCHEM_OPENEYE_CAN_SMILES>
CCCCCCCCCCCCCCCCOC(=O)C=CC1=CC(=C(C=C1)O)OC

>  <PUBCHEM_OPENEYE_ISO_SMILES>
CCCCCCCCCCCCCCCCOC(=O)/C=C\C1=CC(=C(C=C1)O)OC

>  <PUBCHEM_CACTVS_TPSA>
55.8

>  <PUBCHEM_MONOISOTOPIC_WEIGHT>
418.308

>  <PUBCHEM_TOTAL_CHARGE>
0

>  <PUBCHEM_HEAVY_ATOM_COUNT>
30

>  <PUBCHEM_ATOM_DEF_STEREO_COUNT>
0

>  <PUBCHEM_ATOM_UDEF_STEREO_COUNT>
0

>  <PUBCHEM_BOND_DEF_STEREO_COUNT>
1

>  <PUBCHEM_BOND_UDEF_STEREO_COUNT>
0

>  <PUBCHEM_ISOTOPIC_ATOM_COUNT>
0

>  <PUBCHEM_COMPONENT_COUNT>
1

>  <PUBCHEM_CACTVS_TAUTO_COUNT>
5

>  <PUBCHEM_COORDINATE_TYPE>
1
5
255

>  <PUBCHEM_BONDANNOTATIONS>
24  25  8
24  26  8
25  27  8
26  28  8
27  29  8
28  29  8

$$$$
