14542431
 OpenBabel06101807152D

 71 74  0  0  0  0  0  0  0  0999 V2000
   10.4263   -1.8797    0.0000 O   0  0  0  0  0  0  0  0  0  0  0  0
    6.0682   -0.3450    0.0000 O   0  0  0  0  0  0  0  0  0  0  0  0
    8.6663   -2.8450    0.0000 O   0  0  0  0  0  0  0  0  0  0  0  0
    7.8003    1.6550    0.0000 O   0  0  0  0  0  0  0  0  0  0  0  0
    2.5381   -0.3692    0.0000 O   0  0  0  0  0  0  0  0  0  0  0  0
    4.3198    2.6896    0.0000 O   0  0  0  0  0  0  0  0  0  0  0  0
    6.0682    2.6550    0.0000 O   0  0  0  0  0  0  0  0  0  0  0  0
   11.3324   -1.3658    0.0000 C   0  0  0  0  0  0  0  0  0  0  0  0
   11.3324   -0.3242    0.0000 C   0  0  0  0  0  0  0  0  0  0  0  0
   10.4263    0.1897    0.0000 C   0  0  0  0  0  0  0  0  0  0  0  0
    9.5323   -0.3450    0.0000 C   0  0  0  0  0  0  0  0  0  0  0  0
    9.5323   -1.3450    0.0000 C   0  0  0  0  0  0  0  0  0  0  0  0
    8.6663    0.1550    0.0000 C   0  0  0  0  0  0  0  0  0  0  0  0
   12.3324   -1.3697    0.0000 C   0  0  0  0  0  0  0  0  0  0  0  0
   11.8290   -2.2338    0.0000 C   0  0  0  0  0  0  0  0  0  0  0  0
    7.8003   -0.3450    0.0000 C   0  0  0  0  0  0  0  0  0  0  0  0
    8.6663   -1.8450    0.0000 C   0  0  0  0  0  0  0  0  0  0  0  0
    8.6663    1.1550    0.0000 C   0  0  0  0  0  0  0  0  0  0  0  0
    7.8003   -1.3450    0.0000 C   0  0  0  0  0  0  0  0  0  0  0  0
    6.9343    0.1550    0.0000 C   0  0  0  0  0  0  0  0  0  0  0  0
    4.3198   -1.3796    0.0000 C   0  0  0  0  0  0  0  0  0  0  0  0
    4.3083   -0.3797    0.0000 C   0  0  0  0  0  0  0  0  0  0  0  0
    5.2022    0.1550    0.0000 C   0  0  0  0  0  0  0  0  0  0  0  0
    5.2022    1.1550    0.0000 C   0  0  0  0  0  0  0  0  0  0  0  0
    6.9343    1.1550    0.0000 C   0  0  0  0  0  0  0  0  0  0  0  0
    9.5323    1.6550    0.0000 C   0  0  0  0  0  0  0  0  0  0  0  0
    3.3199   -1.3912    0.0000 C   0  0  0  0  0  0  0  0  0  0  0  0
    5.3198   -1.3680    0.0000 C   0  0  0  0  0  0  0  0  0  0  0  0
    6.0682    1.6550    0.0000 C   0  0  0  0  0  0  0  0  0  0  0  0
    3.4022    0.1342    0.0000 C   0  0  0  0  0  0  0  0  0  0  0  0
    4.3314   -2.3795    0.0000 C   0  0  0  0  0  0  0  0  0  0  0  0
    4.3083    1.6897    0.0000 C   0  0  0  0  0  0  0  0  0  0  0  0
    3.4022    1.1758    0.0000 C   0  0  0  0  0  0  0  0  0  0  0  0
    9.5323    2.6550    0.0000 C   0  0  0  0  0  0  0  0  0  0  0  0
    3.4712   -2.8895    0.0000 C   0  0  0  0  0  0  0  0  0  0  0  0
   10.3984    3.1550    0.0000 C   0  0  0  0  0  0  0  0  0  0  0  0
    8.6663    3.1550    0.0000 C   0  0  0  0  0  0  0  0  0  0  0  0
   11.9432   -0.4303    0.0000 H   0  0  0  0  0  0  0  0  0  0  0  0
   11.5414    0.2595    0.0000 H   0  0  0  0  0  0  0  0  0  0  0  0
   10.8199    0.6687    0.0000 H   0  0  0  0  0  0  0  0  0  0  0  0
   10.0217    0.6594    0.0000 H   0  0  0  0  0  0  0  0  0  0  0  0
   11.2909   -2.5417    0.0000 H   0  0  0  0  0  0  0  0  0  0  0  0
   12.1369   -2.7719    0.0000 H   0  0  0  0  0  0  0  0  0  0  0  0
   12.3671   -1.9258    0.0000 H   0  0  0  0  0  0  0  0  0  0  0  0
   12.3300   -1.9897    0.0000 H   0  0  0  0  0  0  0  0  0  0  0  0
   12.9524   -1.3721    0.0000 H   0  0  0  0  0  0  0  0  0  0  0  0
   12.3347   -0.7497    0.0000 H   0  0  0  0  0  0  0  0  0  0  0  0
    8.4543    1.7376    0.0000 H   0  0  0  0  0  0  0  0  0  0  0  0
    8.0558    1.0473    0.0000 H   0  0  0  0  0  0  0  0  0  0  0  0
    7.2634   -1.6550    0.0000 H   0  0  0  0  0  0  0  0  0  0  0  0
   10.0693    1.3450    0.0000 H   0  0  0  0  0  0  0  0  0  0  0  0
    5.3270   -1.9880    0.0000 H   0  0  0  0  0  0  0  0  0  0  0  0
    5.9397   -1.3609    0.0000 H   0  0  0  0  0  0  0  0  0  0  0  0
    5.3126   -0.7481    0.0000 H   0  0  0  0  0  0  0  0  0  0  0  0
    3.3128   -0.7712    0.0000 H   0  0  0  0  0  0  0  0  0  0  0  0
    2.7000   -1.3983    0.0000 H   0  0  0  0  0  0  0  0  0  0  0  0
    3.3271   -2.0111    0.0000 H   0  0  0  0  0  0  0  0  0  0  0  0
    4.8719   -2.6833    0.0000 H   0  0  0  0  0  0  0  0  0  0  0  0
    8.1294   -3.1550    0.0000 H   0  0  0  0  0  0  0  0  0  0  0  0
    2.8665    1.4879    0.0000 H   0  0  0  0  0  0  0  0  0  0  0  0
    7.8003    2.2750    0.0000 H   0  0  0  0  0  0  0  0  0  0  0  0
    2.9307   -2.5857    0.0000 H   0  0  0  0  0  0  0  0  0  0  0  0
    3.4784   -3.5095    0.0000 H   0  0  0  0  0  0  0  0  0  0  0  0
   10.7084    2.6181    0.0000 H   0  0  0  0  0  0  0  0  0  0  0  0
    8.9763    3.6919    0.0000 H   0  0  0  0  0  0  0  0  0  0  0  0
    8.1294    3.4650    0.0000 H   0  0  0  0  0  0  0  0  0  0  0  0
    8.3563    2.6181    0.0000 H   0  0  0  0  0  0  0  0  0  0  0  0
   10.9353    3.4650    0.0000 H   0  0  0  0  0  0  0  0  0  0  0  0
   10.0884    3.6919    0.0000 H   0  0  0  0  0  0  0  0  0  0  0  0
    2.0000   -0.0612    0.0000 H   0  0  0  0  0  0  0  0  0  0  0  0
    3.7865    3.0058    0.0000 H   0  0  0  0  0  0  0  0  0  0  0  0
  1  8  1  0  0  0  0
  1 12  1  0  0  0  0
  2 20  1  0  0  0  0
  2 23  1  0  0  0  0
  3 17  1  0  0  0  0
  3 59  1  0  0  0  0
  4 25  1  0  0  0  0
  4 61  1  0  0  0  0
  5 30  1  0  0  0  0
  5 70  1  0  0  0  0
  6 32  1  0  0  0  0
  6 71  1  0  0  0  0
  7 29  2  0  0  0  0
  8  9  1  0  0  0  0
  8 14  1  0  0  0  0
  8 15  1  0  0  0  0
  9 10  1  0  0  0  0
  9 38  1  0  0  0  0
  9 39  1  0  0  0  0
 10 11  1  0  0  0  0
 10 40  1  0  0  0  0
 10 41  1  0  0  0  0
 11 12  1  0  0  0  0
 11 13  2  0  0  0  0
 12 17  2  0  0  0  0
 13 16  1  0  0  0  0
 13 18  1  0  0  0  0
 14 45  1  0  0  0  0
 14 46  1  0  0  0  0
 14 47  1  0  0  0  0
 15 42  1  0  0  0  0
 15 43  1  0  0  0  0
 15 44  1  0  0  0  0
 16 19  2  0  0  0  0
 16 20  1  0  0  0  0
 17 19  1  0  0  0  0
 18 26  1  0  0  0  0
 18 48  1  0  0  0  0
 18 49  1  0  0  0  0
 19 50  1  0  0  0  0
 20 25  2  0  0  0  0
 21 22  1  0  0  0  0
 21 27  1  0  0  0  0
 21 28  1  0  0  0  0
 21 31  1  0  0  0  0
 22 23  1  0  0  0  0
 22 30  2  0  0  0  0
 23 24  2  0  0  0  0
 24 29  1  0  0  0  0
 24 32  1  0  0  0  0
 25 29  1  0  0  0  0
 26 34  2  0  0  0  0
 26 51  1  0  0  0  0
 27 55  1  0  0  0  0
 27 56  1  0  0  0  0
 27 57  1  0  0  0  0
 28 52  1  0  0  0  0
 28 53  1  0  0  0  0
 28 54  1  0  0  0  0
 30 33  1  0  0  0  0
 31 35  2  0  0  0  0
 31 58  1  0  0  0  0
 32 33  2  0  0  0  0
 33 60  1  0  0  0  0
 34 36  1  0  0  0  0
 34 37  1  0  0  0  0
 35 62  1  0  0  0  0
 35 63  1  0  0  0  0
 36 64  1  0  0  0  0
 36 68  1  0  0  0  0
 36 69  1  0  0  0  0
 37 65  1  0  0  0  0
 37 66  1  0  0  0  0
 37 67  1  0  0  0  0
M  END
>  <PUBCHEM_COMPOUND_CID>
14542431

>  <PUBCHEM_COMPOUND_CANONICALIZED>
1

>  <PUBCHEM_CACTVS_COMPLEXITY>
959

>  <PUBCHEM_CACTVS_HBOND_ACCEPTOR>
7

>  <PUBCHEM_CACTVS_HBOND_DONOR>
4

>  <PUBCHEM_CACTVS_ROTATABLE_BOND>
5

>  <PUBCHEM_CACTVS_SUBSKEYS>
AAADcfB4OAAAAAAAAAAAAAAAAAAAAAAAAAA0YIEAAAAAAACRQAAAGgAACAAADkSAmAAyBoAABgCIAqBSAAICCAAkIAAIiAFGiMgNJzaGNRqCeWOl4BULuQfI7PzPoAADCAAYQABAAAYQADCAAAAAAAAAAA==

>  <PUBCHEM_IUPAC_OPENEYE_NAME>
8-(1,1-dimethylallyl)-3,5,7-trihydroxy-2-[8-hydroxy-2,2-dimethyl-5-(3-methylbut-2-enyl)chroman-6-yl]chromen-4-one

>  <PUBCHEM_IUPAC_CAS_NAME>
3,5,7-trihydroxy-2-[8-hydroxy-2,2-dimethyl-5-(3-methylbut-2-enyl)-3,4-dihydro-2H-1-benzopyran-6-yl]-8-(2-methylbut-3-en-2-yl)-1-benzopyran-4-one

>  <PUBCHEM_IUPAC_NAME>
3,5,7-trihydroxy-2-[8-hydroxy-2,2-dimethyl-5-(3-methylbut-2-enyl)-3,4-dihydrochromen-6-yl]-8-(2-methylbut-3-en-2-yl)chromen-4-one

>  <PUBCHEM_IUPAC_SYSTEMATIC_NAME>
2-[2,2-dimethyl-5-(3-methylbut-2-enyl)-8-oxidanyl-3,4-dihydrochromen-6-yl]-8-(2-methylbut-3-en-2-yl)-3,5,7-tris(oxidanyl)chromen-4-one

>  <PUBCHEM_IUPAC_TRADITIONAL_NAME>
8-(1,1-dimethylallyl)-3,5,7-trihydroxy-2-[8-hydroxy-2,2-dimethyl-5-(3-methylbut-2-enyl)chroman-6-yl]chromone

>  <PUBCHEM_IUPAC_INCHI>
InChI=1S/C30H34O7/c1-8-29(4,5)23-20(32)14-19(31)22-24(34)25(35)27(36-28(22)23)18-13-21(33)26-17(11-12-30(6,7)37-26)16(18)10-9-15(2)3/h8-9,13-14,31-33,35H,1,10-12H2,2-7H3

>  <PUBCHEM_IUPAC_INCHIKEY>
MROPLXAKUPCFHK-UHFFFAOYSA-N

>  <PUBCHEM_XLOGP3_AA>
7.4

>  <PUBCHEM_EXACT_MASS>
506.23

>  <PUBCHEM_MOLECULAR_FORMULA>
C30H34O7

>  <PUBCHEM_MOLECULAR_WEIGHT>
506.595

>  <PUBCHEM_OPENEYE_CAN_SMILES>
CC(=CCC1=C2CCC(OC2=C(C=C1C3=C(C(=O)C4=C(O3)C(=C(C=C4O)O)C(C)(C)C=C)O)O)(C)C)C

>  <PUBCHEM_OPENEYE_ISO_SMILES>
CC(=CCC1=C2CCC(OC2=C(C=C1C3=C(C(=O)C4=C(O3)C(=C(C=C4O)O)C(C)(C)C=C)O)O)(C)C)C

>  <PUBCHEM_CACTVS_TPSA>
116

>  <PUBCHEM_MONOISOTOPIC_WEIGHT>
506.23

>  <PUBCHEM_TOTAL_CHARGE>
0

>  <PUBCHEM_HEAVY_ATOM_COUNT>
37

>  <PUBCHEM_ATOM_DEF_STEREO_COUNT>
0

>  <PUBCHEM_ATOM_UDEF_STEREO_COUNT>
0

>  <PUBCHEM_BOND_DEF_STEREO_COUNT>
0

>  <PUBCHEM_BOND_UDEF_STEREO_COUNT>
0

>  <PUBCHEM_ISOTOPIC_ATOM_COUNT>
0

>  <PUBCHEM_COMPONENT_COUNT>
1

>  <PUBCHEM_CACTVS_TAUTO_COUNT>
699

>  <PUBCHEM_COORDINATE_TYPE>
1
5
255

>  <PUBCHEM_BONDANNOTATIONS>
11  12  8
11  13  8
12  17  8
13  16  8
16  19  8
17  19  8
2  20  8
2  23  8
20  25  8
22  23  8
22  30  8
23  24  8
24  29  8
24  32  8
25  29  8
30  33  8
32  33  8

$$$$
