14565841
 OpenBabel06101807152D

 54 57  0  0  1  0  0  0  0  0999 V2000
    3.7230   -2.8763    0.0000 O   0  0  0  0  0  0  0  0  0  0  0  0
    4.5447    0.2891    0.0000 O   0  0  0  0  0  0  0  0  0  0  0  0
    2.0000   -2.4441    0.0000 O   0  0  0  0  0  0  0  0  0  0  0  0
    8.0559   -2.9564    0.0000 O   0  0  0  0  0  0  0  0  0  0  0  0
    5.1318   -5.4506    0.0000 O   0  0  0  0  0  0  0  0  0  0  0  0
    6.1053    1.0406    0.0000 O   0  0  0  0  0  0  0  0  0  0  0  0
    6.9275    5.3213    0.0000 O   0  0  0  0  0  0  0  0  0  0  0  0
    4.3551   -1.3937    0.0000 C   0  0  3  0  0  0  0  0  0  0  0  0
    4.5777   -2.3686    0.0000 C   0  0  3  0  0  0  0  0  0  0  0  0
    5.4786   -2.8025    0.0000 C   0  0  3  0  0  0  0  0  0  0  0  0
    4.9786   -0.6119    0.0000 C   0  0  3  0  0  0  0  0  0  0  0  0
    3.3648   -1.3072    0.0000 C   0  0  3  0  0  0  0  0  0  0  0  0
    6.3796   -2.3686    0.0000 C   0  0  0  0  0  0  0  0  0  0  0  0
    5.9786   -0.6119    0.0000 C   0  0  0  0  0  0  0  0  0  0  0  0
    6.6021   -1.3937    0.0000 C   0  0  0  0  0  0  0  0  0  0  0  0
    5.6146   -3.7872    0.0000 C   0  0  0  0  0  0  0  0  0  0  0  0
    2.9749   -2.2216    0.0000 C   0  0  0  0  0  0  0  0  0  0  0  0
    2.8504   -0.4496    0.0000 C   0  0  0  0  0  0  0  0  0  0  0  0
    7.0647   -3.0889    0.0000 C   0  0  0  0  0  0  0  0  0  0  0  0
    6.5929   -3.9639    0.0000 C   0  0  0  0  0  0  0  0  0  0  0  0
    4.8930   -4.4796    0.0000 C   0  0  0  0  0  0  0  0  0  0  0  0
    7.5770   -1.1712    0.0000 C   0  0  0  0  0  0  0  0  0  0  0  0
    5.1081    1.1153    0.0000 C   0  0  0  0  0  0  0  0  0  0  0  0
    4.6742    2.0163    0.0000 C   0  0  0  0  0  0  0  0  0  0  0  0
    5.2375    2.8426    0.0000 C   0  0  0  0  0  0  0  0  0  0  0  0
    6.2347    2.7678    0.0000 C   0  0  0  0  0  0  0  0  0  0  0  0
    4.8036    3.7435    0.0000 C   0  0  0  0  0  0  0  0  0  0  0  0
    6.7980    3.5941    0.0000 C   0  0  0  0  0  0  0  0  0  0  0  0
    5.3669    4.5698    0.0000 C   0  0  0  0  0  0  0  0  0  0  0  0
    6.3641    4.4950    0.0000 C   0  0  0  0  0  0  0  0  0  0  0  0
    4.1107   -0.8239    0.0000 H   0  0  0  0  0  0  0  0  0  0  0  0
    4.6047   -2.9880    0.0000 H   0  0  0  0  0  0  0  0  0  0  0  0
    4.9775   -3.1676    0.0000 H   0  0  0  0  0  0  0  0  0  0  0  0
    5.3085   -0.0869    0.0000 H   0  0  0  0  0  0  0  0  0  0  0  0
    3.6936   -0.7815    0.0000 H   0  0  0  0  0  0  0  0  0  0  0  0
    6.5372   -0.3429    0.0000 H   0  0  0  0  0  0  0  0  0  0  0  0
    5.8407   -0.0074    0.0000 H   0  0  0  0  0  0  0  0  0  0  0  0
    3.3821   -0.1307    0.0000 H   0  0  0  0  0  0  0  0  0  0  0  0
    2.5315    0.0821    0.0000 H   0  0  0  0  0  0  0  0  0  0  0  0
    2.3188   -0.7685    0.0000 H   0  0  0  0  0  0  0  0  0  0  0  0
    6.8619   -4.5225    0.0000 H   0  0  0  0  0  0  0  0  0  0  0  0
    4.5480   -3.9644    0.0000 H   0  0  0  0  0  0  0  0  0  0  0  0
    4.3258   -4.7299    0.0000 H   0  0  0  0  0  0  0  0  0  0  0  0
    7.7150   -1.7756    0.0000 H   0  0  0  0  0  0  0  0  0  0  0  0
    8.1815   -1.0332    0.0000 H   0  0  0  0  0  0  0  0  0  0  0  0
    7.4391   -0.5667    0.0000 H   0  0  0  0  0  0  0  0  0  0  0  0
    4.6844   -5.8799    0.0000 H   0  0  0  0  0  0  0  0  0  0  0  0
    4.2303    2.4492    0.0000 H   0  0  0  0  0  0  0  0  0  0  0  0
    4.1708    1.6544    0.0000 H   0  0  0  0  0  0  0  0  0  0  0  0
    6.5037    2.2092    0.0000 H   0  0  0  0  0  0  0  0  0  0  0  0
    4.1854    3.7898    0.0000 H   0  0  0  0  0  0  0  0  0  0  0  0
    7.4163    3.5477    0.0000 H   0  0  0  0  0  0  0  0  0  0  0  0
    5.0979    5.1284    0.0000 H   0  0  0  0  0  0  0  0  0  0  0  0
    6.6584    5.8799    0.0000 H   0  0  0  0  0  0  0  0  0  0  0  0
  1  9  1  0  0  0  0
  1 17  1  0  0  0  0
  2 11  1  0  0  0  0
  2 23  1  0  0  0  0
  3 17  2  0  0  0  0
  4 19  2  0  0  0  0
  5 21  1  0  0  0  0
  5 47  1  0  0  0  0
  6 23  2  0  0  0  0
  7 30  1  0  0  0  0
  7 54  1  0  0  0  0
  8  9  1  0  0  0  0
  8 11  1  0  0  0  0
  8 12  1  0  0  0  0
  8 31  1  0  0  0  0
  9 10  1  0  0  0  0
  9 32  1  0  0  0  0
 10 13  1  0  0  0  0
 10 16  1  0  0  0  0
 10 33  1  0  0  0  0
 11 14  1  0  0  0  0
 11 34  1  0  0  0  0
 12 17  1  0  0  0  0
 12 18  1  0  0  0  0
 12 35  1  0  0  0  0
 13 15  2  0  0  0  0
 13 19  1  0  0  0  0
 14 15  1  0  0  0  0
 14 36  1  0  0  0  0
 14 37  1  0  0  0  0
 15 22  1  0  0  0  0
 16 20  2  0  0  0  0
 16 21  1  0  0  0  0
 18 38  1  0  0  0  0
 18 39  1  0  0  0  0
 18 40  1  0  0  0  0
 19 20  1  0  0  0  0
 20 41  1  0  0  0  0
 21 42  1  0  0  0  0
 21 43  1  0  0  0  0
 22 44  1  0  0  0  0
 22 45  1  0  0  0  0
 22 46  1  0  0  0  0
 23 24  1  0  0  0  0
 24 25  1  0  0  0  0
 24 48  1  0  0  0  0
 24 49  1  0  0  0  0
 25 26  2  0  0  0  0
 25 27  1  0  0  0  0
 26 28  1  0  0  0  0
 26 50  1  0  0  0  0
 27 29  2  0  0  0  0
 27 51  1  0  0  0  0
 28 30  2  0  0  0  0
 28 52  1  0  0  0  0
 29 30  1  0  0  0  0
 29 53  1  0  0  0  0
M  END
>  <PUBCHEM_COMPOUND_CID>
14565841

>  <PUBCHEM_COMPOUND_CANONICALIZED>
1

>  <PUBCHEM_CACTVS_COMPLEXITY>
802

>  <PUBCHEM_CACTVS_HBOND_ACCEPTOR>
7

>  <PUBCHEM_CACTVS_HBOND_DONOR>
2

>  <PUBCHEM_CACTVS_ROTATABLE_BOND>
5

>  <PUBCHEM_CACTVS_SUBSKEYS>
AAADceB4OAAAAAAAAAAAAAAAAAAAASIAAAAwAAAABAAAAACBAAAAGgAACAAADRSgmAIyDoAABgCIAqDSCAACAAAgIAAIiAEGCMgINjKCFRKCcAAlwBEImQfKzPCOoAAAAAAAAABAAAAAAAAAAAAAAAAAAA==

>  <PUBCHEM_IUPAC_OPENEYE_NAME>
[9-(hydroxymethyl)-3,6-dimethyl-2,7-dioxo-3,3a,4,5,9a,9b-hexahydroazuleno[4,5-b]furan-4-yl] 2-(4-hydroxyphenyl)acetate

>  <PUBCHEM_IUPAC_CAS_NAME>
2-(4-hydroxyphenyl)acetic acid [9-(hydroxymethyl)-3,6-dimethyl-2,7-dioxo-3,3a,4,5,9a,9b-hexahydroazuleno[4,5-b]furan-4-yl] ester

>  <PUBCHEM_IUPAC_NAME>
[9-(hydroxymethyl)-3,6-dimethyl-2,7-dioxo-3,3a,4,5,9a,9b-hexahydroazuleno[4,5-b]furan-4-yl] 2-(4-hydroxyphenyl)acetate

>  <PUBCHEM_IUPAC_SYSTEMATIC_NAME>
[9-(hydroxymethyl)-3,6-dimethyl-2,7-bis(oxidanylidene)-3,3a,4,5,9a,9b-hexahydroazuleno[4,5-b]furan-4-yl] 2-(4-hydroxyphenyl)ethanoate

>  <PUBCHEM_IUPAC_TRADITIONAL_NAME>
2-(4-hydroxyphenyl)acetic acid (2,7-diketo-3,6-dimethyl-9-methylol-3,3a,4,5,9a,9b-hexahydroazuleno[4,5-b]furan-4-yl) ester

>  <PUBCHEM_IUPAC_INCHI>
InChI=1S/C23H24O7/c1-11-7-17(29-18(27)8-13-3-5-15(25)6-4-13)20-12(2)23(28)30-22(20)21-14(10-24)9-16(26)19(11)21/h3-6,9,12,17,20-22,24-25H,7-8,10H2,1-2H3

>  <PUBCHEM_IUPAC_INCHIKEY>
ICJJPTZLMALYBH-UHFFFAOYSA-N

>  <PUBCHEM_XLOGP3_AA>
1.2

>  <PUBCHEM_EXACT_MASS>
412.152

>  <PUBCHEM_MOLECULAR_FORMULA>
C23H24O7

>  <PUBCHEM_MOLECULAR_WEIGHT>
412.438

>  <PUBCHEM_OPENEYE_CAN_SMILES>
CC1C2C(CC(=C3C(C2OC1=O)C(=CC3=O)CO)C)OC(=O)CC4=CC=C(C=C4)O

>  <PUBCHEM_OPENEYE_ISO_SMILES>
CC1C2C(CC(=C3C(C2OC1=O)C(=CC3=O)CO)C)OC(=O)CC4=CC=C(C=C4)O

>  <PUBCHEM_CACTVS_TPSA>
110

>  <PUBCHEM_MONOISOTOPIC_WEIGHT>
412.152

>  <PUBCHEM_TOTAL_CHARGE>
0

>  <PUBCHEM_HEAVY_ATOM_COUNT>
30

>  <PUBCHEM_ATOM_DEF_STEREO_COUNT>
0

>  <PUBCHEM_ATOM_UDEF_STEREO_COUNT>
5

>  <PUBCHEM_BOND_DEF_STEREO_COUNT>
0

>  <PUBCHEM_BOND_UDEF_STEREO_COUNT>
0

>  <PUBCHEM_ISOTOPIC_ATOM_COUNT>
0

>  <PUBCHEM_COMPONENT_COUNT>
1

>  <PUBCHEM_CACTVS_TAUTO_COUNT>
72

>  <PUBCHEM_COORDINATE_TYPE>
1
5
255

>  <PUBCHEM_BONDANNOTATIONS>
9  1  3
10  16  3
12  18  3
11  2  3
25  26  8
25  27  8
26  28  8
27  29  8
28  30  8
29  30  8
8  12  3

$$$$
