145745
 OpenBabel06101807152D

 23 24  0  0  1  0  0  0  0  0999 V2000
    2.0000   -1.4584    0.0000 O   0  0  0  0  0  0  0  0  0  0  0  0
    4.5120    1.1386    0.0000 N   0  0  0  0  0  0  0  0  0  0  0  0
    4.9898   -0.8099    0.0000 C   0  0  3  0  0  0  0  0  0  0  0  0
    5.2486    0.1560    0.0000 C   0  0  3  0  0  0  0  0  0  0  0  0
    6.2614   -1.6046    0.0000 C   0  0  0  0  0  0  0  0  0  0  0  0
    6.6802   -0.0416    0.0000 C   0  0  0  0  0  0  0  0  0  0  0  0
    7.0386   -0.9752    0.0000 C   0  0  0  0  0  0  0  0  0  0  0  0
    3.2153   -0.1551    0.0000 C   0  0  0  0  0  0  0  0  0  0  0  0
    3.7687   -1.6756    0.0000 C   0  0  0  0  0  0  0  0  0  0  0  0
    2.9397   -1.1164    0.0000 C   0  0  0  0  0  0  0  0  0  0  0  0
    5.2531   -0.4640    0.0000 H   0  0  0  0  0  0  0  0  0  0  0  0
    5.4920   -0.4465    0.0000 H   0  0  0  0  0  0  0  0  0  0  0  0
    5.8769   -2.0909    0.0000 H   0  0  0  0  0  0  0  0  0  0  0  0
    6.7024   -2.0404    0.0000 H   0  0  0  0  0  0  0  0  0  0  0  0
    7.2880    0.0807    0.0000 H   0  0  0  0  0  0  0  0  0  0  0  0
    6.6612    0.5781    0.0000 H   0  0  0  0  0  0  0  0  0  0  0  0
    7.3763   -1.4952    0.0000 H   0  0  0  0  0  0  0  0  0  0  0  0
    7.5910   -0.6938    0.0000 H   0  0  0  0  0  0  0  0  0  0  0  0
    4.2020    1.6756    0.0000 H   0  0  0  0  0  0  0  0  0  0  0  0
    3.2103    0.4649    0.0000 H   0  0  0  0  0  0  0  0  0  0  0  0
    2.6010   -0.0713    0.0000 H   0  0  0  0  0  0  0  0  0  0  0  0
    3.3629   -2.1443    0.0000 H   0  0  0  0  0  0  0  0  0  0  0  0
    4.1854   -2.1347    0.0000 H   0  0  0  0  0  0  0  0  0  0  0  0
  1 10  2  0  0  0  0
  2  3  1  0  0  0  0
  2  4  1  0  0  0  0
  2 19  1  0  0  0  0
  3  5  1  0  0  0  0
  3  9  1  0  0  0  0
  3 12  1  0  0  0  0
  4  6  1  0  0  0  0
  4  8  1  0  0  0  0
  4 11  1  0  0  0  0
  5  7  1  0  0  0  0
  5 13  1  0  0  0  0
  5 14  1  0  0  0  0
  6  7  1  0  0  0  0
  6 15  1  0  0  0  0
  6 16  1  0  0  0  0
  7 17  1  0  0  0  0
  7 18  1  0  0  0  0
  8 10  1  0  0  0  0
  8 20  1  0  0  0  0
  8 21  1  0  0  0  0
  9 10  1  0  0  0  0
  9 22  1  0  0  0  0
  9 23  1  0  0  0  0
M  END
>  <PUBCHEM_COMPOUND_CID>
145745

>  <PUBCHEM_COMPOUND_CANONICALIZED>
1

>  <PUBCHEM_CACTVS_COMPLEXITY>
141

>  <PUBCHEM_CACTVS_HBOND_ACCEPTOR>
2

>  <PUBCHEM_CACTVS_HBOND_DONOR>
1

>  <PUBCHEM_CACTVS_ROTATABLE_BOND>
0

>  <PUBCHEM_CACTVS_SUBSKEYS>
AAADccByIAAAAAAAAAAAAAAAAAAAAAAAAAAsWAAAAAAYAAAAAAAAHgAQAAAACCzBgAQAAALAAAAIAIAQAAAAAAAAAAAAAIEIAAAAABoAgAAEAAAAEACAAAEYiICAAAAAAAAAAAAAAAAAAAAAAAAAAAAAAA==

>  <PUBCHEM_IUPAC_OPENEYE_NAME>
9-azabicyclo[3.3.1]nonan-3-one

>  <PUBCHEM_IUPAC_CAS_NAME>
9-azabicyclo[3.3.1]nonan-3-one

>  <PUBCHEM_IUPAC_NAME>
9-azabicyclo[3.3.1]nonan-3-one

>  <PUBCHEM_IUPAC_SYSTEMATIC_NAME>
9-azabicyclo[3.3.1]nonan-3-one

>  <PUBCHEM_IUPAC_TRADITIONAL_NAME>
9-azabicyclo[3.3.1]nonan-3-one

>  <PUBCHEM_IUPAC_INCHI>
InChI=1S/C8H13NO/c10-8-4-6-2-1-3-7(5-8)9-6/h6-7,9H,1-5H2

>  <PUBCHEM_IUPAC_INCHIKEY>
JIYPUEZSSJAXBO-UHFFFAOYSA-N

>  <PUBCHEM_XLOGP3_AA>
0.2

>  <PUBCHEM_EXACT_MASS>
139.1

>  <PUBCHEM_MOLECULAR_FORMULA>
C8H13NO

>  <PUBCHEM_MOLECULAR_WEIGHT>
139.198

>  <PUBCHEM_OPENEYE_CAN_SMILES>
C1CC2CC(=O)CC(C1)N2

>  <PUBCHEM_OPENEYE_ISO_SMILES>
C1CC2CC(=O)CC(C1)N2

>  <PUBCHEM_CACTVS_TPSA>
29.1

>  <PUBCHEM_MONOISOTOPIC_WEIGHT>
139.1

>  <PUBCHEM_TOTAL_CHARGE>
0

>  <PUBCHEM_HEAVY_ATOM_COUNT>
10

>  <PUBCHEM_ATOM_DEF_STEREO_COUNT>
0

>  <PUBCHEM_ATOM_UDEF_STEREO_COUNT>
2

>  <PUBCHEM_BOND_DEF_STEREO_COUNT>
0

>  <PUBCHEM_BOND_UDEF_STEREO_COUNT>
0

>  <PUBCHEM_ISOTOPIC_ATOM_COUNT>
0

>  <PUBCHEM_COMPONENT_COUNT>
1

>  <PUBCHEM_CACTVS_TAUTO_COUNT>
2

>  <PUBCHEM_COORDINATE_TYPE>
1
5
255

>  <PUBCHEM_BONDANNOTATIONS>
3  5  3
4  6  3

$$$$
