14583601
 OpenBabel06101807152D

 52 56  0  0  0  0  0  0  0  0999 V2000
   11.8342    1.0148    0.0000 O   0  0  0  0  0  0  0  0  0  0  0  0
    3.9080   -2.5610    0.0000 O   0  0  0  0  0  0  0  0  0  0  0  0
    8.2982    1.0426    0.0000 O   0  0  0  0  0  0  0  0  0  0  0  0
   10.0582   -1.9921    0.0000 O   0  0  0  0  0  0  0  0  0  0  0  0
    8.3098   -2.0266    0.0000 O   0  0  0  0  0  0  0  0  0  0  0  0
   11.8423    2.0564    0.0000 C   0  0  0  0  0  0  0  0  0  0  0  0
    3.0000   -2.0506    0.0000 C   0  0  0  0  0  0  0  0  0  0  0  0
   10.0582    1.0079    0.0000 C   0  0  0  0  0  0  0  0  0  0  0  0
   10.9242    0.5079    0.0000 C   0  0  0  0  0  0  0  0  0  0  0  0
    9.1922    0.5079    0.0000 C   0  0  0  0  0  0  0  0  0  0  0  0
   10.9402    2.5772    0.0000 C   0  0  0  0  0  0  0  0  0  0  0  0
    9.1922   -0.4921    0.0000 C   0  0  0  0  0  0  0  0  0  0  0  0
   10.0421    2.0495    0.0000 C   0  0  0  0  0  0  0  0  0  0  0  0
    4.7960   -1.0229    0.0000 C   0  0  0  0  0  0  0  0  0  0  0  0
   12.3456    2.9205    0.0000 C   0  0  0  0  0  0  0  0  0  0  0  0
   12.8422    2.0525    0.0000 C   0  0  0  0  0  0  0  0  0  0  0  0
    4.7999   -2.0229    0.0000 C   0  0  0  0  0  0  0  0  0  0  0  0
    7.3922   -0.5129    0.0000 C   0  0  0  0  0  0  0  0  0  0  0  0
    6.5281   -1.0162    0.0000 C   0  0  0  0  0  0  0  0  0  0  0  0
    2.9960   -1.0090    0.0000 C   0  0  0  0  0  0  0  0  0  0  0  0
   10.9242   -0.4921    0.0000 C   0  0  0  0  0  0  0  0  0  0  0  0
    8.2982   -1.0267    0.0000 C   0  0  0  0  0  0  0  0  0  0  0  0
   10.0582   -0.9921    0.0000 C   0  0  0  0  0  0  0  0  0  0  0  0
    5.6601   -0.5195    0.0000 C   0  0  0  0  0  0  0  0  0  0  0  0
    2.0000   -2.0583    0.0000 C   0  0  0  0  0  0  0  0  0  0  0  0
    2.5067   -2.9205    0.0000 C   0  0  0  0  0  0  0  0  0  0  0  0
    3.9000   -0.4917    0.0000 C   0  0  0  0  0  0  0  0  0  0  0  0
    5.6678   -2.5195    0.0000 C   0  0  0  0  0  0  0  0  0  0  0  0
    6.5319   -2.0162    0.0000 C   0  0  0  0  0  0  0  0  0  0  0  0
    7.3922    0.5288    0.0000 C   0  0  0  0  0  0  0  0  0  0  0  0
   10.9378    3.1972    0.0000 H   0  0  0  0  0  0  0  0  0  0  0  0
    9.5016    2.3532    0.0000 H   0  0  0  0  0  0  0  0  0  0  0  0
   12.8399    1.4325    0.0000 H   0  0  0  0  0  0  0  0  0  0  0  0
   13.4622    2.0502    0.0000 H   0  0  0  0  0  0  0  0  0  0  0  0
   12.8446    2.6725    0.0000 H   0  0  0  0  0  0  0  0  0  0  0  0
   12.8813    2.6084    0.0000 H   0  0  0  0  0  0  0  0  0  0  0  0
   12.6577    3.4562    0.0000 H   0  0  0  0  0  0  0  0  0  0  0  0
   11.8098    3.2325    0.0000 H   0  0  0  0  0  0  0  0  0  0  0  0
    2.4590   -0.6990    0.0000 H   0  0  0  0  0  0  0  0  0  0  0  0
   11.4612   -0.8021    0.0000 H   0  0  0  0  0  0  0  0  0  0  0  0
    5.6577    0.1004    0.0000 H   0  0  0  0  0  0  0  0  0  0  0  0
    1.9674   -2.6146    0.0000 H   0  0  0  0  0  0  0  0  0  0  0  0
    1.9952   -1.4384    0.0000 H   0  0  0  0  0  0  0  0  0  0  0  0
    1.3800   -2.0631    0.0000 H   0  0  0  0  0  0  0  0  0  0  0  0
    2.0048   -2.6783    0.0000 H   0  0  0  0  0  0  0  0  0  0  0  0
    2.2008   -3.4598    0.0000 H   0  0  0  0  0  0  0  0  0  0  0  0
    3.0460   -3.2263    0.0000 H   0  0  0  0  0  0  0  0  0  0  0  0
    3.9048    0.1283    0.0000 H   0  0  0  0  0  0  0  0  0  0  0  0
    5.6702   -3.1395    0.0000 H   0  0  0  0  0  0  0  0  0  0  0  0
    7.0700   -2.3241    0.0000 H   0  0  0  0  0  0  0  0  0  0  0  0
    6.8564    0.8408    0.0000 H   0  0  0  0  0  0  0  0  0  0  0  0
   10.5951   -2.3021    0.0000 H   0  0  0  0  0  0  0  0  0  0  0  0
  1  6  1  0  0  0  0
  1  9  1  0  0  0  0
  2  7  1  0  0  0  0
  2 17  1  0  0  0  0
  3 10  1  0  0  0  0
  3 30  1  0  0  0  0
  4 23  1  0  0  0  0
  4 52  1  0  0  0  0
  5 22  2  0  0  0  0
  6 11  1  0  0  0  0
  6 15  1  0  0  0  0
  6 16  1  0  0  0  0
  7 20  1  0  0  0  0
  7 25  1  0  0  0  0
  7 26  1  0  0  0  0
  8  9  2  0  0  0  0
  8 10  1  0  0  0  0
  8 13  1  0  0  0  0
  9 21  1  0  0  0  0
 10 12  2  0  0  0  0
 11 13  2  0  0  0  0
 11 31  1  0  0  0  0
 12 22  1  0  0  0  0
 12 23  1  0  0  0  0
 13 32  1  0  0  0  0
 14 17  2  0  0  0  0
 14 24  1  0  0  0  0
 14 27  1  0  0  0  0
 15 36  1  0  0  0  0
 15 37  1  0  0  0  0
 15 38  1  0  0  0  0
 16 33  1  0  0  0  0
 16 34  1  0  0  0  0
 16 35  1  0  0  0  0
 17 28  1  0  0  0  0
 18 19  1  0  0  0  0
 18 22  1  0  0  0  0
 18 30  2  0  0  0  0
 19 24  2  0  0  0  0
 19 29  1  0  0  0  0
 20 27  2  0  0  0  0
 20 39  1  0  0  0  0
 21 23  2  0  0  0  0
 21 40  1  0  0  0  0
 24 41  1  0  0  0  0
 25 43  1  0  0  0  0
 25 44  1  0  0  0  0
 25 45  1  0  0  0  0
 26 42  1  0  0  0  0
 26 46  1  0  0  0  0
 26 47  1  0  0  0  0
 27 48  1  0  0  0  0
 28 29  2  0  0  0  0
 28 49  1  0  0  0  0
 29 50  1  0  0  0  0
 30 51  1  0  0  0  0
M  END
>  <PUBCHEM_COMPOUND_CID>
14583601

>  <PUBCHEM_COMPOUND_CANONICALIZED>
1

>  <PUBCHEM_CACTVS_COMPLEXITY>
806

>  <PUBCHEM_CACTVS_HBOND_ACCEPTOR>
5

>  <PUBCHEM_CACTVS_HBOND_DONOR>
1

>  <PUBCHEM_CACTVS_ROTATABLE_BOND>
1

>  <PUBCHEM_CACTVS_SUBSKEYS>
AAADceB4OAAAAAAAAAAAAAAAAAAAAAAAAAAwYIECAAAAAACBQAAAGgAACAAADESgmAIyBoAABgCIAqBSAAACCAAkIAAIiAEGCMgMJzaGNRqCeWCl4BUIuYeI7PzOIAACCAAIAABAAAQQABAAAAAAAAAAAA==

>  <PUBCHEM_IUPAC_OPENEYE_NAME>
3-(2,2-dimethylchromen-6-yl)-5-hydroxy-8,8-dimethyl-pyrano[2,3-h]chromen-4-one

>  <PUBCHEM_IUPAC_CAS_NAME>
3-(2,2-dimethyl-1-benzopyran-6-yl)-5-hydroxy-8,8-dimethyl-4-pyrano[2,3-h][1]benzopyranone

>  <PUBCHEM_IUPAC_NAME>
3-(2,2-dimethylchromen-6-yl)-5-hydroxy-8,8-dimethylpyrano[2,3-h]chromen-4-one

>  <PUBCHEM_IUPAC_SYSTEMATIC_NAME>
3-(2,2-dimethylchromen-6-yl)-8,8-dimethyl-5-oxidanyl-pyrano[2,3-h]chromen-4-one

>  <PUBCHEM_IUPAC_TRADITIONAL_NAME>
3-(2,2-dimethylchromen-6-yl)-5-hydroxy-8,8-dimethyl-pyrano[2,3-h]chromen-4-one

>  <PUBCHEM_IUPAC_INCHI>
InChI=1S/C25H22O5/c1-24(2)9-7-15-11-14(5-6-19(15)29-24)17-13-28-23-16-8-10-25(3,4)30-20(16)12-18(26)21(23)22(17)27/h5-13,26H,1-4H3

>  <PUBCHEM_IUPAC_INCHIKEY>
ACNNVOPYPNMOSB-UHFFFAOYSA-N

>  <PUBCHEM_XLOGP3_AA>
5.2

>  <PUBCHEM_EXACT_MASS>
402.147

>  <PUBCHEM_MOLECULAR_FORMULA>
C25H22O5

>  <PUBCHEM_MOLECULAR_WEIGHT>
402.446

>  <PUBCHEM_OPENEYE_CAN_SMILES>
CC1(C=CC2=C(O1)C=CC(=C2)C3=COC4=C5C=CC(OC5=CC(=C4C3=O)O)(C)C)C

>  <PUBCHEM_OPENEYE_ISO_SMILES>
CC1(C=CC2=C(O1)C=CC(=C2)C3=COC4=C5C=CC(OC5=CC(=C4C3=O)O)(C)C)C

>  <PUBCHEM_CACTVS_TPSA>
65

>  <PUBCHEM_MONOISOTOPIC_WEIGHT>
402.147

>  <PUBCHEM_TOTAL_CHARGE>
0

>  <PUBCHEM_HEAVY_ATOM_COUNT>
30

>  <PUBCHEM_ATOM_DEF_STEREO_COUNT>
0

>  <PUBCHEM_ATOM_UDEF_STEREO_COUNT>
0

>  <PUBCHEM_BOND_DEF_STEREO_COUNT>
0

>  <PUBCHEM_BOND_UDEF_STEREO_COUNT>
0

>  <PUBCHEM_ISOTOPIC_ATOM_COUNT>
0

>  <PUBCHEM_COMPONENT_COUNT>
1

>  <PUBCHEM_CACTVS_TAUTO_COUNT>
6

>  <PUBCHEM_COORDINATE_TYPE>
1
5
255

>  <PUBCHEM_BONDANNOTATIONS>
10  12  8
12  22  8
12  23  8
14  17  8
14  24  8
17  28  8
18  22  8
18  30  8
19  24  8
19  29  8
21  23  8
28  29  8
3  10  8
3  30  8
8  10  8
8  9  8
9  21  8

$$$$
