14583642
 OpenBabel06101807152D

 51 54  0  0  1  0  0  0  0  0999 V2000
    5.1350   -0.1945    0.0000 O   0  0  0  0  0  0  0  0  0  0  0  0
    6.8671   -0.1945    0.0000 O   0  0  0  0  0  0  0  0  0  0  0  0
    5.1350   -3.1945    0.0000 O   0  0  0  0  0  0  0  0  0  0  0  0
    3.4030   -2.1945    0.0000 O   0  0  0  0  0  0  0  0  0  0  0  0
    6.8671   -2.1945    0.0000 O   0  0  0  0  0  0  0  0  0  0  0  0
    2.5369   -0.6945    0.0000 O   0  0  0  0  0  0  0  0  0  0  0  0
    8.6504    2.8196    0.0000 O   0  0  0  0  0  0  0  0  0  0  0  0
    5.1208    2.8846    0.0000 O   0  0  0  0  0  0  0  0  0  0  0  0
    8.6158   -0.1802    0.0000 O   0  0  0  0  0  0  0  0  0  0  0  0
   12.9398   -0.7302    0.0000 O   0  0  0  0  0  0  0  0  0  0  0  0
    5.1350   -2.1945    0.0000 C   0  0  3  0  0  0  0  0  0  0  0  0
    4.2690   -1.6945    0.0000 C   0  0  3  0  0  0  0  0  0  0  0  0
    6.0010   -1.6945    0.0000 C   0  0  3  0  0  0  0  0  0  0  0  0
    4.2690   -0.6945    0.0000 C   0  0  3  0  0  0  0  0  0  0  0  0
    6.0010   -0.6945    0.0000 C   0  0  3  0  0  0  0  0  0  0  0  0
    3.4030   -0.1945    0.0000 C   0  0  0  0  0  0  0  0  0  0  0  0
    6.8671    0.8055    0.0000 C   0  0  0  0  0  0  0  0  0  0  0  0
    7.7671    1.3298    0.0000 C   0  0  0  0  0  0  0  0  0  0  0  0
    5.9670    1.3298    0.0000 C   0  0  0  0  0  0  0  0  0  0  0  0
    7.7787    2.3297    0.0000 C   0  0  0  0  0  0  0  0  0  0  0  0
    8.6273    0.8198    0.0000 C   0  0  0  0  0  0  0  0  0  0  0  0
    5.9790    2.3713    0.0000 C   0  0  0  0  0  0  0  0  0  0  0  0
    6.8910    2.8746    0.0000 C   0  0  0  0  0  0  0  0  0  0  0  0
    9.4991    1.3097    0.0000 C   0  0  0  0  0  0  0  0  0  0  0  0
    9.5106    2.3097    0.0000 C   0  0  0  0  0  0  0  0  0  0  0  0
   10.3592    0.7997    0.0000 C   0  0  0  0  0  0  0  0  0  0  0  0
   10.3477   -0.2002    0.0000 C   0  0  0  0  0  0  0  0  0  0  0  0
   11.2310    1.2897    0.0000 C   0  0  0  0  0  0  0  0  0  0  0  0
   11.2079   -0.7102    0.0000 C   0  0  0  0  0  0  0  0  0  0  0  0
   12.0912    0.7797    0.0000 C   0  0  0  0  0  0  0  0  0  0  0  0
   12.0796   -0.2202    0.0000 C   0  0  0  0  0  0  0  0  0  0  0  0
    5.6720   -2.5045    0.0000 H   0  0  0  0  0  0  0  0  0  0  0  0
    4.2690   -2.3145    0.0000 H   0  0  0  0  0  0  0  0  0  0  0  0
    6.5380   -1.3845    0.0000 H   0  0  0  0  0  0  0  0  0  0  0  0
    4.2690   -0.0745    0.0000 H   0  0  0  0  0  0  0  0  0  0  0  0
    6.0010   -0.0745    0.0000 H   0  0  0  0  0  0  0  0  0  0  0  0
    3.8015    0.2804    0.0000 H   0  0  0  0  0  0  0  0  0  0  0  0
    3.0044    0.2804    0.0000 H   0  0  0  0  0  0  0  0  0  0  0  0
    4.5981   -3.5045    0.0000 H   0  0  0  0  0  0  0  0  0  0  0  0
    3.4030   -2.8145    0.0000 H   0  0  0  0  0  0  0  0  0  0  0  0
    6.8671   -2.8145    0.0000 H   0  0  0  0  0  0  0  0  0  0  0  0
    2.0000   -0.3845    0.0000 H   0  0  0  0  0  0  0  0  0  0  0  0
    5.4277    1.0239    0.0000 H   0  0  0  0  0  0  0  0  0  0  0  0
    6.9053    3.4945    0.0000 H   0  0  0  0  0  0  0  0  0  0  0  0
   10.0511    2.6134    0.0000 H   0  0  0  0  0  0  0  0  0  0  0  0
    9.8072   -0.5040    0.0000 H   0  0  0  0  0  0  0  0  0  0  0  0
   11.2382    1.9097    0.0000 H   0  0  0  0  0  0  0  0  0  0  0  0
    5.1304    3.5045    0.0000 H   0  0  0  0  0  0  0  0  0  0  0  0
   11.2007   -1.3301    0.0000 H   0  0  0  0  0  0  0  0  0  0  0  0
   12.6317    1.0835    0.0000 H   0  0  0  0  0  0  0  0  0  0  0  0
   13.4803   -0.4264    0.0000 H   0  0  0  0  0  0  0  0  0  0  0  0
  1 14  1  0  0  0  0
  1 15  1  0  0  0  0
  2 15  1  0  0  0  0
  2 17  1  0  0  0  0
  3 11  1  0  0  0  0
  3 39  1  0  0  0  0
  4 12  1  0  0  0  0
  4 40  1  0  0  0  0
  5 13  1  0  0  0  0
  5 41  1  0  0  0  0
  6 16  1  0  0  0  0
  6 42  1  0  0  0  0
  7 20  1  0  0  0  0
  7 25  1  0  0  0  0
  8 22  1  0  0  0  0
  8 48  1  0  0  0  0
  9 21  2  0  0  0  0
 10 31  1  0  0  0  0
 10 51  1  0  0  0  0
 11 12  1  0  0  0  0
 11 13  1  0  0  0  0
 11 32  1  0  0  0  0
 12 14  1  0  0  0  0
 12 33  1  0  0  0  0
 13 15  1  0  0  0  0
 13 34  1  0  0  0  0
 14 16  1  0  0  0  0
 14 35  1  0  0  0  0
 15 36  1  0  0  0  0
 16 37  1  0  0  0  0
 16 38  1  0  0  0  0
 17 18  1  0  0  0  0
 17 19  2  0  0  0  0
 18 20  2  0  0  0  0
 18 21  1  0  0  0  0
 19 22  1  0  0  0  0
 19 43  1  0  0  0  0
 20 23  1  0  0  0  0
 21 24  1  0  0  0  0
 22 23  2  0  0  0  0
 23 44  1  0  0  0  0
 24 25  2  0  0  0  0
 24 26  1  0  0  0  0
 25 45  1  0  0  0  0
 26 27  2  0  0  0  0
 26 28  1  0  0  0  0
 27 29  1  0  0  0  0
 27 46  1  0  0  0  0
 28 30  2  0  0  0  0
 28 47  1  0  0  0  0
 29 31  2  0  0  0  0
 29 49  1  0  0  0  0
 30 31  1  0  0  0  0
 30 50  1  0  0  0  0
M  END
>  <PUBCHEM_COMPOUND_CID>
14583642

>  <PUBCHEM_COMPOUND_CANONICALIZED>
1

>  <PUBCHEM_CACTVS_COMPLEXITY>
675

>  <PUBCHEM_CACTVS_HBOND_ACCEPTOR>
10

>  <PUBCHEM_CACTVS_HBOND_DONOR>
6

>  <PUBCHEM_CACTVS_ROTATABLE_BOND>
4

>  <PUBCHEM_CACTVS_SUBSKEYS>
AAADceB4PAAAAAAAAAAAAAAAAAAAAAAAAAA0YIEAAAAAAACBQAAAGgAACAAADBSwmAMwDoAABgCIAqBSAAACCAAkIAAIiAEGCMgdNzaGNRqieWCl4BUPuYfI7PzOIAAACAAIAABAAAAQABAAAAAAAAAAAA==

>  <PUBCHEM_IUPAC_OPENEYE_NAME>
7-hydroxy-3-(4-hydroxyphenyl)-5-[3,4,5-trihydroxy-6-(hydroxymethyl)tetrahydropyran-2-yl]oxy-chromen-4-one

>  <PUBCHEM_IUPAC_CAS_NAME>
7-hydroxy-3-(4-hydroxyphenyl)-5-[[3,4,5-trihydroxy-6-(hydroxymethyl)-2-oxanyl]oxy]-1-benzopyran-4-one

>  <PUBCHEM_IUPAC_NAME>
7-hydroxy-3-(4-hydroxyphenyl)-5-[3,4,5-trihydroxy-6-(hydroxymethyl)oxan-2-yl]oxychromen-4-one

>  <PUBCHEM_IUPAC_SYSTEMATIC_NAME>
5-[6-(hydroxymethyl)-3,4,5-tris(oxidanyl)oxan-2-yl]oxy-3-(4-hydroxyphenyl)-7-oxidanyl-chromen-4-one

>  <PUBCHEM_IUPAC_TRADITIONAL_NAME>
7-hydroxy-3-(4-hydroxyphenyl)-5-(3,4,5-trihydroxy-6-methylol-tetrahydropyran-2-yl)oxy-chromone

>  <PUBCHEM_IUPAC_INCHI>
InChI=1S/C21H20O10/c22-7-15-18(26)19(27)20(28)21(31-15)30-14-6-11(24)5-13-16(14)17(25)12(8-29-13)9-1-3-10(23)4-2-9/h1-6,8,15,18-24,26-28H,7H2

>  <PUBCHEM_IUPAC_INCHIKEY>
TXLQONQJSWSJJX-UHFFFAOYSA-N

>  <PUBCHEM_XLOGP3_AA>
0.3

>  <PUBCHEM_EXACT_MASS>
432.106

>  <PUBCHEM_MOLECULAR_FORMULA>
C21H20O10

>  <PUBCHEM_MOLECULAR_WEIGHT>
432.381

>  <PUBCHEM_OPENEYE_CAN_SMILES>
C1=CC(=CC=C1C2=COC3=CC(=CC(=C3C2=O)OC4C(C(C(C(O4)CO)O)O)O)O)O

>  <PUBCHEM_OPENEYE_ISO_SMILES>
C1=CC(=CC=C1C2=COC3=CC(=CC(=C3C2=O)OC4C(C(C(C(O4)CO)O)O)O)O)O

>  <PUBCHEM_CACTVS_TPSA>
166

>  <PUBCHEM_MONOISOTOPIC_WEIGHT>
432.106

>  <PUBCHEM_TOTAL_CHARGE>
0

>  <PUBCHEM_HEAVY_ATOM_COUNT>
31

>  <PUBCHEM_ATOM_DEF_STEREO_COUNT>
0

>  <PUBCHEM_ATOM_UDEF_STEREO_COUNT>
5

>  <PUBCHEM_BOND_DEF_STEREO_COUNT>
0

>  <PUBCHEM_BOND_UDEF_STEREO_COUNT>
0

>  <PUBCHEM_ISOTOPIC_ATOM_COUNT>
0

>  <PUBCHEM_COMPONENT_COUNT>
1

>  <PUBCHEM_CACTVS_TAUTO_COUNT>
10

>  <PUBCHEM_COORDINATE_TYPE>
1
5
255

>  <PUBCHEM_BONDANNOTATIONS>
14  16  3
17  18  8
17  19  8
18  20  8
18  21  8
19  22  8
15  2  3
20  23  8
21  24  8
22  23  8
24  25  8
26  27  8
26  28  8
27  29  8
28  30  8
29  31  8
11  3  3
30  31  8
12  4  3
13  5  3
7  20  8
7  25  8

$$$$
