14607938
 OpenBabel06101807152D

 81 84  0  0  1  0  0  0  0  0999 V2000
    6.1847   -4.2942    0.0000 O   0  0  0  0  0  0  0  0  0  0  0  0
    2.5357   -3.2773    0.0000 O   0  0  0  0  0  0  0  0  0  0  0  0
   10.8321    0.4922    0.0000 O   0  0  0  0  0  0  0  0  0  0  0  0
    9.8070    2.9313    0.0000 O   0  0  0  0  0  0  0  0  0  0  0  0
    7.9288   -0.2250    0.0000 C   0  0  1  0  0  0  0  0  0  0  0  0
    7.9288   -1.2250    0.0000 C   0  0  2  0  0  0  0  0  0  0  0  0
    7.0628   -1.7250    0.0000 C   0  0  1  0  0  0  0  0  0  0  0  0
    6.1968   -1.2250    0.0000 C   0  0  1  0  0  0  0  0  0  0  0  0
    5.2868   -1.7318    0.0000 C   0  0  2  0  0  0  0  0  0  0  0  0
    8.8750    0.0797    0.0000 C   0  0  2  0  0  0  0  0  0  0  0  0
    7.0628    0.2750    0.0000 C   0  0  0  0  0  0  0  0  0  0  0  0
    6.1968   -0.2250    0.0000 C   0  0  0  0  0  0  0  0  0  0  0  0
    8.8750   -1.5297    0.0000 C   0  0  0  0  0  0  0  0  0  0  0  0
    9.4586   -0.7250    0.0000 C   0  0  0  0  0  0  0  0  0  0  0  0
    5.2787   -2.7734    0.0000 C   0  0  1  0  0  0  0  0  0  0  0  0
    7.0789   -2.7665    0.0000 C   0  0  0  0  0  0  0  0  0  0  0  0
    4.3599   -1.1678    0.0000 C   0  0  0  0  0  0  0  0  0  0  0  0
    9.1857    1.0303    0.0000 C   0  0  1  0  0  0  0  0  0  0  0  0
    7.9288    0.7750    0.0000 C   0  0  0  0  0  0  0  0  0  0  0  0
    6.1808   -3.2943    0.0000 C   0  0  0  0  0  0  0  0  0  0  0  0
    4.3433   -3.3232    0.0000 C   0  0  0  0  0  0  0  0  0  0  0  0
    5.2945   -0.7319    0.0000 C   0  0  0  0  0  0  0  0  0  0  0  0
    3.4120   -1.6957    0.0000 C   0  0  0  0  0  0  0  0  0  0  0  0
    3.4037   -2.7807    0.0000 C   0  0  1  0  0  0  0  0  0  0  0  0
   10.1642    1.2365    0.0000 C   0  0  2  0  0  0  0  0  0  0  0  0
    8.5179    1.7746    0.0000 C   0  0  0  0  0  0  0  0  0  0  0  0
   10.4749    2.1870    0.0000 C   0  0  1  0  0  0  0  0  0  0  0  0
   11.4534    2.3932    0.0000 C   0  0  0  0  0  0  0  0  0  0  0  0
   11.7640    3.3437    0.0000 C   0  0  0  0  0  0  0  0  0  0  0  0
   12.1212    1.6489    0.0000 C   0  0  0  0  0  0  0  0  0  0  0  0
   12.0747    4.2942    0.0000 C   0  0  0  0  0  0  0  0  0  0  0  0
   12.7146    3.0331    0.0000 C   0  0  0  0  0  0  0  0  0  0  0  0
   10.8135    3.6544    0.0000 C   0  0  0  0  0  0  0  0  0  0  0  0
    8.0188   -2.0702    0.0000 H   0  0  0  0  0  0  0  0  0  0  0  0
    7.8022   -2.1443    0.0000 H   0  0  0  0  0  0  0  0  0  0  0  0
    6.9329   -0.8000    0.0000 H   0  0  0  0  0  0  0  0  0  0  0  0
    9.7148    0.2116    0.0000 H   0  0  0  0  0  0  0  0  0  0  0  0
    7.4613    0.7499    0.0000 H   0  0  0  0  0  0  0  0  0  0  0  0
    6.6643    0.7499    0.0000 H   0  0  0  0  0  0  0  0  0  0  0  0
    5.9847    0.3576    0.0000 H   0  0  0  0  0  0  0  0  0  0  0  0
    5.5862   -0.3327    0.0000 H   0  0  0  0  0  0  0  0  0  0  0  0
    8.6240   -2.0966    0.0000 H   0  0  0  0  0  0  0  0  0  0  0  0
    9.4124   -1.8390    0.0000 H   0  0  0  0  0  0  0  0  0  0  0  0
    9.9195   -1.1397    0.0000 H   0  0  0  0  0  0  0  0  0  0  0  0
    9.9195   -0.3103    0.0000 H   0  0  0  0  0  0  0  0  0  0  0  0
    5.2820   -3.6234    0.0000 H   0  0  0  0  0  0  0  0  0  0  0  0
    7.2969   -3.3469    0.0000 H   0  0  0  0  0  0  0  0  0  0  0  0
    7.6880   -2.6510    0.0000 H   0  0  0  0  0  0  0  0  0  0  0  0
    4.7681   -0.7011    0.0000 H   0  0  0  0  0  0  0  0  0  0  0  0
    3.9700   -0.6857    0.0000 H   0  0  0  0  0  0  0  0  0  0  0  0
    9.3783    1.6196    0.0000 H   0  0  0  0  0  0  0  0  0  0  0  0
    8.5488    0.7750    0.0000 H   0  0  0  0  0  0  0  0  0  0  0  0
    7.9288    1.3950    0.0000 H   0  0  0  0  0  0  0  0  0  0  0  0
    7.3088    0.7750    0.0000 H   0  0  0  0  0  0  0  0  0  0  0  0
    3.9460   -3.7991    0.0000 H   0  0  0  0  0  0  0  0  0  0  0  0
    4.7443   -3.7961    0.0000 H   0  0  0  0  0  0  0  0  0  0  0  0
    5.9145   -0.7367    0.0000 H   0  0  0  0  0  0  0  0  0  0  0  0
    5.2993   -0.1119    0.0000 H   0  0  0  0  0  0  0  0  0  0  0  0
    4.6745   -0.7271    0.0000 H   0  0  0  0  0  0  0  0  0  0  0  0
    3.2075   -1.1104    0.0000 H   0  0  0  0  0  0  0  0  0  0  0  0
    2.8004   -1.7971    0.0000 H   0  0  0  0  0  0  0  0  0  0  0  0
    2.8686   -2.4676    0.0000 H   0  0  0  0  0  0  0  0  0  0  0  0
    9.9716    0.6472    0.0000 H   0  0  0  0  0  0  0  0  0  0  0  0
    8.9793    2.1886    0.0000 H   0  0  0  0  0  0  0  0  0  0  0  0
    8.1038    2.2360    0.0000 H   0  0  0  0  0  0  0  0  0  0  0  0
    8.0564    1.3605    0.0000 H   0  0  0  0  0  0  0  0  0  0  0  0
   10.6675    2.7763    0.0000 H   0  0  0  0  0  0  0  0  0  0  0  0
    2.0000   -2.9653    0.0000 H   0  0  0  0  0  0  0  0  0  0  0  0
   11.4387    0.6200    0.0000 H   0  0  0  0  0  0  0  0  0  0  0  0
    9.9996    3.5206    0.0000 H   0  0  0  0  0  0  0  0  0  0  0  0
   11.9286    1.0596    0.0000 H   0  0  0  0  0  0  0  0  0  0  0  0
   12.7279    1.7768    0.0000 H   0  0  0  0  0  0  0  0  0  0  0  0
   11.0061    4.2437    0.0000 H   0  0  0  0  0  0  0  0  0  0  0  0
   10.2242    3.8470    0.0000 H   0  0  0  0  0  0  0  0  0  0  0  0
   10.6209    3.0651    0.0000 H   0  0  0  0  0  0  0  0  0  0  0  0
   12.5219    2.4438    0.0000 H   0  0  0  0  0  0  0  0  0  0  0  0
   13.3039    2.8405    0.0000 H   0  0  0  0  0  0  0  0  0  0  0  0
   12.9072    3.6224    0.0000 H   0  0  0  0  0  0  0  0  0  0  0  0
   12.6640    4.1016    0.0000 H   0  0  0  0  0  0  0  0  0  0  0  0
   12.2673    4.8836    0.0000 H   0  0  0  0  0  0  0  0  0  0  0  0
   11.4854    4.4869    0.0000 H   0  0  0  0  0  0  0  0  0  0  0  0
  1 20  2  0  0  0  0
  2 68  1  0  0  0  0
  3 69  1  0  0  0  0
  4 70  1  0  0  0  0
  5  6  1  1  0  0  0
  5 11  1  0  0  0  0
  5 19  1  0  0  0  0
  6  7  1  1  0  0  0
  6 13  1  0  0  0  0
  6 34  1  0  0  0  0
  7  8  1  1  0  0  0
  7 16  1  0  0  0  0
  7 35  1  0  0  0  0
  8  9  1  6  0  0  0
  8 12  1  0  0  0  0
  8 36  1  0  0  0  0
  9 15  1  1  0  0  0
  9 17  1  0  0  0  0
  9 22  1  0  0  0  0
 10  5  1  6  0  0  0
 10 14  1  0  0  0  0
 10 18  1  0  0  0  0
 10 37  1  0  0  0  0
 11 12  1  0  0  0  0
 11 38  1  0  0  0  0
 11 39  1  0  0  0  0
 12 40  1  0  0  0  0
 12 41  1  0  0  0  0
 13 14  1  0  0  0  0
 13 42  1  0  0  0  0
 13 43  1  0  0  0  0
 14 44  1  0  0  0  0
 14 45  1  0  0  0  0
 15 20  1  0  0  0  0
 15 21  1  0  0  0  0
 15 46  1  6  0  0  0
 16 20  1  0  0  0  0
 16 47  1  0  0  0  0
 16 48  1  0  0  0  0
 17 23  1  0  0  0  0
 17 49  1  0  0  0  0
 17 50  1  0  0  0  0
 18 25  1  0  0  0  0
 18 26  1  0  0  0  0
 18 51  1  1  0  0  0
 19 52  1  0  0  0  0
 19 53  1  0  0  0  0
 19 54  1  0  0  0  0
 21 24  1  0  0  0  0
 21 55  1  0  0  0  0
 21 56  1  0  0  0  0
 22 57  1  0  0  0  0
 22 58  1  0  0  0  0
 22 59  1  0  0  0  0
 23 24  1  0  0  0  0
 23 60  1  0  0  0  0
 23 61  1  0  0  0  0
 24  2  1  0  0  0  0
 24 62  1  1  0  0  0
 25  3  1  0  0  0  0
 25 27  1  0  0  0  0
 25 63  1  1  0  0  0
 26 64  1  0  0  0  0
 26 65  1  0  0  0  0
 26 66  1  0  0  0  0
 27  4  1  0  0  0  0
 27 28  1  0  0  0  0
 27 67  1  1  0  0  0
 28 29  1  0  0  0  0
 28 30  2  0  0  0  0
 29 31  1  0  0  0  0
 29 32  1  0  0  0  0
 29 33  1  0  0  0  0
 30 71  1  0  0  0  0
 30 72  1  0  0  0  0
 31 79  1  0  0  0  0
 31 80  1  0  0  0  0
 31 81  1  0  0  0  0
 32 76  1  0  0  0  0
 32 77  1  0  0  0  0
 32 78  1  0  0  0  0
 33 73  1  0  0  0  0
 33 74  1  0  0  0  0
 33 75  1  0  0  0  0
M  END
>  <PUBCHEM_COMPOUND_CID>
14607938

>  <PUBCHEM_COMPOUND_CANONICALIZED>
1

>  <PUBCHEM_CACTVS_COMPLEXITY>
783

>  <PUBCHEM_CACTVS_HBOND_ACCEPTOR>
4

>  <PUBCHEM_CACTVS_HBOND_DONOR>
3

>  <PUBCHEM_CACTVS_ROTATABLE_BOND>
5

>  <PUBCHEM_CACTVS_SUBSKEYS>
AAADcfB4OAAAAAAAAAAAAAAAAAAAAYAAAAAwYMAAAAAAAGDAAAAAGgAACAAADxSggAICAAAAAgCIAoBSAAAAAAAgAAAAAAEAAAgBFBIAAQAAQAAEwAABEAGKyPCPgAAAAAAAAADAAAYAACAAAQAACAAAAA==

>  <PUBCHEM_IUPAC_OPENEYE_NAME>
(3R,5S,8S,9S,10R,13S,14S,17R)-17-[(1S,2R,3R)-2,3-dihydroxy-1,5,5-trimethyl-4-methylene-hexyl]-3-hydroxy-10,13-dimethyl-1,2,3,4,5,7,8,9,11,12,14,15,16,17-tetradecahydrocyclopenta[a]phenanthren-6-one

>  <PUBCHEM_IUPAC_CAS_NAME>
(3R,5S,8S,9S,10R,13S,14S,17R)-17-[(2S,3R,4R)-3,4-dihydroxy-6,6-dimethyl-5-methyleneheptan-2-yl]-3-hydroxy-10,13-dimethyl-1,2,3,4,5,7,8,9,11,12,14,15,16,17-tetradecahydrocyclopenta[a]phenanthren-6-one

>  <PUBCHEM_IUPAC_NAME>
(3R,5S,8S,9S,10R,13S,14S,17R)-17-[(2S,3R,4R)-3,4-dihydroxy-6,6-dimethyl-5-methylideneheptan-2-yl]-3-hydroxy-10,13-dimethyl-1,2,3,4,5,7,8,9,11,12,14,15,16,17-tetradecahydrocyclopenta[a]phenanthren-6-one

>  <PUBCHEM_IUPAC_SYSTEMATIC_NAME>
(3R,5S,8S,9S,10R,13S,14S,17R)-17-[(2S,3R,4R)-6,6-dimethyl-5-methylidene-3,4-bis(oxidanyl)heptan-2-yl]-10,13-dimethyl-3-oxidanyl-1,2,3,4,5,7,8,9,11,12,14,15,16,17-tetradecahydrocyclopenta[a]phenanthren-6-one

>  <PUBCHEM_IUPAC_TRADITIONAL_NAME>
(3R,5S,8S,9S,10R,13S,14S,17R)-17-[(1S,2R,3R)-4-tert-butyl-2,3-dihydroxy-1-methyl-pent-4-enyl]-3-hydroxy-10,13-dimethyl-1,2,3,4,5,7,8,9,11,12,14,15,16,17-tetradecahydrocyclopenta[a]phenanthren-6-one

>  <PUBCHEM_IUPAC_INCHI>
InChI=1S/C29H48O4/c1-16(25(32)26(33)17(2)27(3,4)5)20-8-9-21-19-15-24(31)23-14-18(30)10-12-29(23,7)22(19)11-13-28(20,21)6/h16,18-23,25-26,30,32-33H,2,8-15H2,1,3-7H3/t16-,18+,19-,20+,21-,22-,23+,25+,26+,28+,29+/m0/s1

>  <PUBCHEM_IUPAC_INCHIKEY>
VWEHHIHNZFXYIU-DFEYTUJKSA-N

>  <PUBCHEM_XLOGP3_AA>
6.1

>  <PUBCHEM_EXACT_MASS>
460.355

>  <PUBCHEM_MOLECULAR_FORMULA>
C29H48O4

>  <PUBCHEM_MOLECULAR_WEIGHT>
460.699

>  <PUBCHEM_OPENEYE_CAN_SMILES>
CC(C1CCC2C1(CCC3C2CC(=O)C4C3(CCC(C4)O)C)C)C(C(C(=C)C(C)(C)C)O)O

>  <PUBCHEM_OPENEYE_ISO_SMILES>
C[C@@H]([C@H]1CC[C@@H]2[C@@]1(CC[C@H]3[C@H]2CC(=O)[C@@H]4[C@@]3(CC[C@H](C4)O)C)C)[C@H]([C@@H](C(=C)C(C)(C)C)O)O

>  <PUBCHEM_CACTVS_TPSA>
77.8

>  <PUBCHEM_MONOISOTOPIC_WEIGHT>
460.355

>  <PUBCHEM_TOTAL_CHARGE>
0

>  <PUBCHEM_HEAVY_ATOM_COUNT>
33

>  <PUBCHEM_ATOM_DEF_STEREO_COUNT>
11

>  <PUBCHEM_ATOM_UDEF_STEREO_COUNT>
0

>  <PUBCHEM_BOND_DEF_STEREO_COUNT>
0

>  <PUBCHEM_BOND_UDEF_STEREO_COUNT>
0

>  <PUBCHEM_ISOTOPIC_ATOM_COUNT>
0

>  <PUBCHEM_COMPONENT_COUNT>
1

>  <PUBCHEM_CACTVS_TAUTO_COUNT>
3

>  <PUBCHEM_COORDINATE_TYPE>
1
5
255

>  <PUBCHEM_BONDANNOTATIONS>
10  37  6
15  46  6
18  26  6
24  2  6
25  3  6
27  4  6
5  19  5
6  34  6
7  35  5
8  36  6
9  22  5

$$$$
