14610541
 OpenBabel06101807152D

 98 99  0  0  1  0  0  0  0  0999 V2000
    8.0622   -6.4050    0.0000 O   0  0  0  0  0  0  0  0  0  0  0  0
    6.3301   -4.4050    0.0000 O   0  0  0  0  0  0  0  0  0  0  0  0
    8.9282   -4.9050    0.0000 O   0  0  0  0  0  0  0  0  0  0  0  0
    8.0622   -4.4050    0.0000 O   0  0  0  0  0  0  0  0  0  0  0  0
    6.3301   -7.4050    0.0000 O   0  0  0  0  0  0  0  0  0  0  0  0
    4.5981   -6.4050    0.0000 O   0  0  0  0  0  0  0  0  0  0  0  0
    9.7942   -7.4050    0.0000 O   0  0  0  0  0  0  0  0  0  0  0  0
   11.5263   -6.4050    0.0000 O   0  0  0  0  0  0  0  0  0  0  0  0
   11.5263   -4.4050    0.0000 O   0  0  0  0  0  0  0  0  0  0  0  0
    4.5981   -3.4050    0.0000 O   0  0  0  0  0  0  0  0  0  0  0  0
   10.6603   -2.9050    0.0000 O   0  0  0  0  0  0  0  0  0  0  0  0
    2.8660    3.5950    0.0000 O   0  0  0  0  0  0  0  0  0  0  0  0
    2.0000    7.0950    0.0000 O   0  0  0  0  0  0  0  0  0  0  0  0
    3.7320    7.0950    0.0000 O   0  0  0  0  0  0  0  0  0  0  0  0
    7.1962   -5.9050    0.0000 C   0  0  3  0  0  0  0  0  0  0  0  0
    6.3301   -6.4050    0.0000 C   0  0  3  0  0  0  0  0  0  0  0  0
    7.1962   -4.9050    0.0000 C   0  0  3  0  0  0  0  0  0  0  0  0
    5.4641   -5.9050    0.0000 C   0  0  3  0  0  0  0  0  0  0  0  0
    5.4641   -4.9050    0.0000 C   0  0  3  0  0  0  0  0  0  0  0  0
    8.9282   -5.9050    0.0000 C   0  0  3  0  0  0  0  0  0  0  0  0
    9.7942   -6.4050    0.0000 C   0  0  3  0  0  0  0  0  0  0  0  0
   10.6603   -5.9050    0.0000 C   0  0  3  0  0  0  0  0  0  0  0  0
   10.6603   -4.9050    0.0000 C   0  0  3  0  0  0  0  0  0  0  0  0
    9.7942   -4.4050    0.0000 C   0  0  3  0  0  0  0  0  0  0  0  0
    8.0622   -3.4050    0.0000 C   0  0  3  0  0  0  0  0  0  0  0  0
    4.5981   -4.4050    0.0000 C   0  0  0  0  0  0  0  0  0  0  0  0
    9.7942   -3.4050    0.0000 C   0  0  0  0  0  0  0  0  0  0  0  0
    8.0622   -2.4050    0.0000 C   0  0  0  0  0  0  0  0  0  0  0  0
    7.0622   -3.4050    0.0000 C   0  0  0  0  0  0  0  0  0  0  0  0
    9.0622   -3.4050    0.0000 C   0  0  0  0  0  0  0  0  0  0  0  0
    7.1962   -1.9050    0.0000 C   0  0  0  0  0  0  0  0  0  0  0  0
    7.1962   -0.9050    0.0000 C   0  0  0  0  0  0  0  0  0  0  0  0
    9.5622   -2.5390    0.0000 C   0  0  0  0  0  0  0  0  0  0  0  0
    6.3301   -0.4050    0.0000 C   0  0  0  0  0  0  0  0  0  0  0  0
    6.3301    0.5950    0.0000 C   0  0  0  0  0  0  0  0  0  0  0  0
    5.4641   -0.9050    0.0000 C   0  0  0  0  0  0  0  0  0  0  0  0
    5.4641    1.0950    0.0000 C   0  0  0  0  0  0  0  0  0  0  0  0
    5.4641    2.0950    0.0000 C   0  0  0  0  0  0  0  0  0  0  0  0
    4.5981    2.5950    0.0000 C   0  0  0  0  0  0  0  0  0  0  0  0
    4.5981    3.5950    0.0000 C   0  0  0  0  0  0  0  0  0  0  0  0
    3.7320    4.0950    0.0000 C   0  0  3  0  0  0  0  0  0  0  0  0
    3.7320    2.0950    0.0000 C   0  0  0  0  0  0  0  0  0  0  0  0
    3.7320    5.0950    0.0000 C   0  0  0  0  0  0  0  0  0  0  0  0
    2.8660    5.5950    0.0000 C   0  0  0  0  0  0  0  0  0  0  0  0
    2.0000    5.0950    0.0000 C   0  0  0  0  0  0  0  0  0  0  0  0
    2.8660    6.5950    0.0000 C   0  0  0  0  0  0  0  0  0  0  0  0
    7.7331   -5.5950    0.0000 H   0  0  0  0  0  0  0  0  0  0  0  0
    6.8671   -6.7150    0.0000 H   0  0  0  0  0  0  0  0  0  0  0  0
    7.1962   -4.2850    0.0000 H   0  0  0  0  0  0  0  0  0  0  0  0
    5.4641   -6.5250    0.0000 H   0  0  0  0  0  0  0  0  0  0  0  0
    5.4641   -4.2850    0.0000 H   0  0  0  0  0  0  0  0  0  0  0  0
    8.3913   -5.5950    0.0000 H   0  0  0  0  0  0  0  0  0  0  0  0
    9.2573   -6.7150    0.0000 H   0  0  0  0  0  0  0  0  0  0  0  0
   11.1972   -5.5950    0.0000 H   0  0  0  0  0  0  0  0  0  0  0  0
   10.6603   -4.2850    0.0000 H   0  0  0  0  0  0  0  0  0  0  0  0
    9.2573   -4.0950    0.0000 H   0  0  0  0  0  0  0  0  0  0  0  0
    3.9875   -4.2973    0.0000 H   0  0  0  0  0  0  0  0  0  0  0  0
    4.3860   -4.9876    0.0000 H   0  0  0  0  0  0  0  0  0  0  0  0
    9.5822   -2.8224    0.0000 H   0  0  0  0  0  0  0  0  0  0  0  0
    9.1836   -3.5127    0.0000 H   0  0  0  0  0  0  0  0  0  0  0  0
    5.7932   -7.7150    0.0000 H   0  0  0  0  0  0  0  0  0  0  0  0
    8.6728   -2.5127    0.0000 H   0  0  0  0  0  0  0  0  0  0  0  0
    8.2742   -1.8224    0.0000 H   0  0  0  0  0  0  0  0  0  0  0  0
    4.0611   -6.0950    0.0000 H   0  0  0  0  0  0  0  0  0  0  0  0
    7.0622   -2.7850    0.0000 H   0  0  0  0  0  0  0  0  0  0  0  0
    6.4422   -3.4050    0.0000 H   0  0  0  0  0  0  0  0  0  0  0  0
    7.0622   -4.0250    0.0000 H   0  0  0  0  0  0  0  0  0  0  0  0
   10.3312   -7.7150    0.0000 H   0  0  0  0  0  0  0  0  0  0  0  0
   12.0632   -6.0950    0.0000 H   0  0  0  0  0  0  0  0  0  0  0  0
   12.0632   -4.7150    0.0000 H   0  0  0  0  0  0  0  0  0  0  0  0
    9.3722   -3.9419    0.0000 H   0  0  0  0  0  0  0  0  0  0  0  0
    6.5856   -1.7973    0.0000 H   0  0  0  0  0  0  0  0  0  0  0  0
    6.9841   -2.4876    0.0000 H   0  0  0  0  0  0  0  0  0  0  0  0
    4.0611   -3.0950    0.0000 H   0  0  0  0  0  0  0  0  0  0  0  0
   10.6603   -2.2850    0.0000 H   0  0  0  0  0  0  0  0  0  0  0  0
    7.7331   -0.5950    0.0000 H   0  0  0  0  0  0  0  0  0  0  0  0
   10.1822   -2.5390    0.0000 H   0  0  0  0  0  0  0  0  0  0  0  0
    9.2522   -2.0020    0.0000 H   0  0  0  0  0  0  0  0  0  0  0  0
    6.9407    0.4873    0.0000 H   0  0  0  0  0  0  0  0  0  0  0  0
    6.5422    1.1776    0.0000 H   0  0  0  0  0  0  0  0  0  0  0  0
    5.1541   -0.3681    0.0000 H   0  0  0  0  0  0  0  0  0  0  0  0
    4.9272   -1.2150    0.0000 H   0  0  0  0  0  0  0  0  0  0  0  0
    5.7741   -1.4419    0.0000 H   0  0  0  0  0  0  0  0  0  0  0  0
    4.8535    1.2027    0.0000 H   0  0  0  0  0  0  0  0  0  0  0  0
    5.2520    0.5124    0.0000 H   0  0  0  0  0  0  0  0  0  0  0  0
    6.0010    2.4050    0.0000 H   0  0  0  0  0  0  0  0  0  0  0  0
    5.2087    3.4873    0.0000 H   0  0  0  0  0  0  0  0  0  0  0  0
    4.8101    4.1776    0.0000 H   0  0  0  0  0  0  0  0  0  0  0  0
    3.7320    3.4750    0.0000 H   0  0  0  0  0  0  0  0  0  0  0  0
    3.4220    2.6319    0.0000 H   0  0  0  0  0  0  0  0  0  0  0  0
    3.1951    1.7850    0.0000 H   0  0  0  0  0  0  0  0  0  0  0  0
    4.0420    1.5581    0.0000 H   0  0  0  0  0  0  0  0  0  0  0  0
    4.2690    5.4050    0.0000 H   0  0  0  0  0  0  0  0  0  0  0  0
    2.3291    3.9050    0.0000 H   0  0  0  0  0  0  0  0  0  0  0  0
    1.6900    5.6319    0.0000 H   0  0  0  0  0  0  0  0  0  0  0  0
    1.4631    4.7850    0.0000 H   0  0  0  0  0  0  0  0  0  0  0  0
    2.3100    4.5581    0.0000 H   0  0  0  0  0  0  0  0  0  0  0  0
    2.0000    7.7150    0.0000 H   0  0  0  0  0  0  0  0  0  0  0  0
  1 15  1  0  0  0  0
  1 20  1  0  0  0  0
  2 17  1  0  0  0  0
  2 19  1  0  0  0  0
  3 20  1  0  0  0  0
  3 24  1  0  0  0  0
  4 17  1  0  0  0  0
  4 25  1  0  0  0  0
  5 16  1  0  0  0  0
  5 61  1  0  0  0  0
  6 18  1  0  0  0  0
  6 64  1  0  0  0  0
  7 21  1  0  0  0  0
  7 68  1  0  0  0  0
  8 22  1  0  0  0  0
  8 69  1  0  0  0  0
  9 23  1  0  0  0  0
  9 70  1  0  0  0  0
 10 26  1  0  0  0  0
 10 74  1  0  0  0  0
 11 27  1  0  0  0  0
 11 75  1  0  0  0  0
 12 41  1  0  0  0  0
 12 94  1  0  0  0  0
 13 46  1  0  0  0  0
 13 98  1  0  0  0  0
 14 46  2  0  0  0  0
 15 16  1  0  0  0  0
 15 17  1  0  0  0  0
 15 47  1  0  0  0  0
 16 18  1  0  0  0  0
 16 48  1  0  0  0  0
 17 49  1  0  0  0  0
 18 19  1  0  0  0  0
 18 50  1  0  0  0  0
 19 26  1  0  0  0  0
 19 51  1  0  0  0  0
 20 21  1  0  0  0  0
 20 52  1  0  0  0  0
 21 22  1  0  0  0  0
 21 53  1  0  0  0  0
 22 23  1  0  0  0  0
 22 54  1  0  0  0  0
 23 24  1  0  0  0  0
 23 55  1  0  0  0  0
 24 27  1  0  0  0  0
 24 56  1  0  0  0  0
 25 28  1  0  0  0  0
 25 29  1  0  0  0  0
 25 30  1  0  0  0  0
 26 57  1  0  0  0  0
 26 58  1  0  0  0  0
 27 59  1  0  0  0  0
 27 60  1  0  0  0  0
 28 31  1  0  0  0  0
 28 62  1  0  0  0  0
 28 63  1  0  0  0  0
 29 65  1  0  0  0  0
 29 66  1  0  0  0  0
 29 67  1  0  0  0  0
 30 33  2  0  0  0  0
 30 71  1  0  0  0  0
 31 32  1  0  0  0  0
 31 72  1  0  0  0  0
 31 73  1  0  0  0  0
 32 34  2  0  0  0  0
 32 76  1  0  0  0  0
 33 77  1  0  0  0  0
 33 78  1  0  0  0  0
 34 35  1  0  0  0  0
 34 36  1  0  0  0  0
 35 37  1  0  0  0  0
 35 79  1  0  0  0  0
 35 80  1  0  0  0  0
 36 81  1  0  0  0  0
 36 82  1  0  0  0  0
 36 83  1  0  0  0  0
 37 38  1  0  0  0  0
 37 84  1  0  0  0  0
 37 85  1  0  0  0  0
 38 39  2  0  0  0  0
 38 86  1  0  0  0  0
 39 40  1  0  0  0  0
 39 42  1  0  0  0  0
 40 41  1  0  0  0  0
 40 87  1  0  0  0  0
 40 88  1  0  0  0  0
 41 43  1  0  0  0  0
 41 89  1  0  0  0  0
 42 90  1  0  0  0  0
 42 91  1  0  0  0  0
 42 92  1  0  0  0  0
 43 44  2  0  0  0  0
 43 93  1  0  0  0  0
 44 45  1  0  0  0  0
 44 46  1  0  0  0  0
 45 95  1  0  0  0  0
 45 96  1  0  0  0  0
 45 97  1  0  0  0  0
M  END
>  <PUBCHEM_COMPOUND_CID>
14610541

>  <PUBCHEM_COMPOUND_CANONICALIZED>
1

>  <PUBCHEM_CACTVS_COMPLEXITY>
1080

>  <PUBCHEM_CACTVS_HBOND_ACCEPTOR>
14

>  <PUBCHEM_CACTVS_HBOND_DONOR>
9

>  <PUBCHEM_CACTVS_ROTATABLE_BOND>
17

>  <PUBCHEM_CACTVS_SUBSKEYS>
AAADcfB8PAAAAAAAAAAAAAAAAAAAAAAAAAAkSAAAAAAAAAAAAAAAGgAACAAADFSwgAMCCAAABgCIAiDSCAAAAAAgAAAICAEAAEgRFAIAIQAiUAAFwAAPMYPAYAwMAAAAAAAAAAAAAAAAAAAAAAAAAAAAAA==

>  <PUBCHEM_IUPAC_OPENEYE_NAME>
(2E,6E,10E)-14-[4,5-dihydroxy-6-(hydroxymethyl)-3-[3,4,5-trihydroxy-6-(hydroxymethyl)tetrahydropyran-2-yl]oxy-tetrahydropyran-2-yl]oxy-4-hydroxy-2,6,10,14-tetramethyl-hexadeca-2,6,10,15-tetraenoic acid

>  <PUBCHEM_IUPAC_CAS_NAME>
(2E,6E,10E)-14-[[4,5-dihydroxy-6-(hydroxymethyl)-3-[[3,4,5-trihydroxy-6-(hydroxymethyl)-2-oxanyl]oxy]-2-oxanyl]oxy]-4-hydroxy-2,6,10,14-tetramethylhexadeca-2,6,10,15-tetraenoic acid

>  <PUBCHEM_IUPAC_NAME>
(2E,6E,10E)-14-[4,5-dihydroxy-6-(hydroxymethyl)-3-[3,4,5-trihydroxy-6-(hydroxymethyl)oxan-2-yl]oxyoxan-2-yl]oxy-4-hydroxy-2,6,10,14-tetramethylhexadeca-2,6,10,15-tetraenoic acid

>  <PUBCHEM_IUPAC_SYSTEMATIC_NAME>
(2E,6E,10E)-14-[6-(hydroxymethyl)-3-[6-(hydroxymethyl)-3,4,5-tris(oxidanyl)oxan-2-yl]oxy-4,5-bis(oxidanyl)oxan-2-yl]oxy-2,6,10,14-tetramethyl-4-oxidanyl-hexadeca-2,6,10,15-tetraenoic acid

>  <PUBCHEM_IUPAC_TRADITIONAL_NAME>
(2E,6E,10E)-14-[4,5-dihydroxy-6-methylol-3-(3,4,5-trihydroxy-6-methylol-tetrahydropyran-2-yl)oxy-tetrahydropyran-2-yl]oxy-4-hydroxy-2,6,10,14-tetramethyl-hexadeca-2,6,10,15-tetraenoic acid

>  <PUBCHEM_IUPAC_INCHI>
InChI=1S/C32H52O14/c1-6-32(5,12-8-11-17(2)9-7-10-18(3)13-20(35)14-19(4)29(41)42)46-31-28(26(39)24(37)22(16-34)44-31)45-30-27(40)25(38)23(36)21(15-33)43-30/h6,10-11,14,20-28,30-31,33-40H,1,7-9,12-13,15-16H2,2-5H3,(H,41,42)/b17-11+,18-10+,19-14+

>  <PUBCHEM_IUPAC_INCHIKEY>
ISQUNAAALVXWGI-DFTZOVBQSA-N

>  <PUBCHEM_XLOGP3_AA>
0.8

>  <PUBCHEM_EXACT_MASS>
660.336

>  <PUBCHEM_MOLECULAR_FORMULA>
C32H52O14

>  <PUBCHEM_MOLECULAR_WEIGHT>
660.754

>  <PUBCHEM_OPENEYE_CAN_SMILES>
CC(=CCCC(C)(C=C)OC1C(C(C(C(O1)CO)O)O)OC2C(C(C(C(O2)CO)O)O)O)CCC=C(C)CC(C=C(C)C(=O)O)O

>  <PUBCHEM_OPENEYE_ISO_SMILES>
C/C(=C\CCC(C)(C=C)OC1C(C(C(C(O1)CO)O)O)OC2C(C(C(C(O2)CO)O)O)O)/CC/C=C(\C)/CC(/C=C(\C)/C(=O)O)O

>  <PUBCHEM_CACTVS_TPSA>
236

>  <PUBCHEM_MONOISOTOPIC_WEIGHT>
660.336

>  <PUBCHEM_TOTAL_CHARGE>
0

>  <PUBCHEM_HEAVY_ATOM_COUNT>
46

>  <PUBCHEM_ATOM_DEF_STEREO_COUNT>
0

>  <PUBCHEM_ATOM_UDEF_STEREO_COUNT>
12

>  <PUBCHEM_BOND_DEF_STEREO_COUNT>
3

>  <PUBCHEM_BOND_UDEF_STEREO_COUNT>
0

>  <PUBCHEM_ISOTOPIC_ATOM_COUNT>
0

>  <PUBCHEM_COMPONENT_COUNT>
1

>  <PUBCHEM_CACTVS_TAUTO_COUNT>
1

>  <PUBCHEM_COORDINATE_TYPE>
1
5
255

>  <PUBCHEM_BONDANNOTATIONS>
15  1  3
20  1  3
41  12  3
19  26  3
24  27  3
25  29  3
17  4  3
16  5  3
18  6  3
21  7  3
22  8  3
23  9  3

$$$$
