14630497
 OpenBabel06101807152D

 59 62  0  0  0  0  0  0  0  0999 V2000
    6.9059    1.2830    0.0000 O   0  0  0  0  0  0  0  0  0  0  0  0
   10.4419    1.2552    0.0000 O   0  0  0  0  0  0  0  0  0  0  0  0
    3.4114   -2.7825    0.0000 O   0  0  0  0  0  0  0  0  0  0  0  0
    6.9174   -1.7863    0.0000 O   0  0  0  0  0  0  0  0  0  0  0  0
    8.6658   -1.7517    0.0000 O   0  0  0  0  0  0  0  0  0  0  0  0
    6.0075    2.7691    0.0000 O   0  0  0  0  0  0  0  0  0  0  0  0
    2.5357    0.7825    0.0000 O   0  0  0  0  0  0  0  0  0  0  0  0
    2.5434    2.7825    0.0000 O   0  0  0  0  0  0  0  0  0  0  0  0
    5.1396   -1.7758    0.0000 C   0  0  0  0  0  0  0  0  0  0  0  0
    4.2755   -2.2792    0.0000 C   0  0  0  0  0  0  0  0  0  0  0  0
    5.1357   -0.7758    0.0000 C   0  0  0  0  0  0  0  0  0  0  0  0
    5.9998   -0.2725    0.0000 C   0  0  0  0  0  0  0  0  0  0  0  0
   10.4499    2.2968    0.0000 C   0  0  0  0  0  0  0  0  0  0  0  0
    7.7998    0.7483    0.0000 C   0  0  0  0  0  0  0  0  0  0  0  0
    7.7998   -0.2517    0.0000 C   0  0  0  0  0  0  0  0  0  0  0  0
    8.6658    1.2483    0.0000 C   0  0  0  0  0  0  0  0  0  0  0  0
    5.9998    0.7691    0.0000 C   0  0  0  0  0  0  0  0  0  0  0  0
    6.9059   -0.7863    0.0000 C   0  0  0  0  0  0  0  0  0  0  0  0
    9.5319    0.7483    0.0000 C   0  0  0  0  0  0  0  0  0  0  0  0
    4.7788   -3.1432    0.0000 C   0  0  0  0  0  0  0  0  0  0  0  0
    3.7722   -1.4151    0.0000 C   0  0  0  0  0  0  0  0  0  0  0  0
    9.5478    2.8176    0.0000 C   0  0  0  0  0  0  0  0  0  0  0  0
    8.6498    2.2898    0.0000 C   0  0  0  0  0  0  0  0  0  0  0  0
    8.6658   -0.7517    0.0000 C   0  0  0  0  0  0  0  0  0  0  0  0
    9.5319   -0.2517    0.0000 C   0  0  0  0  0  0  0  0  0  0  0  0
    5.1357    1.2725    0.0000 C   0  0  0  0  0  0  0  0  0  0  0  0
   10.9532    3.1609    0.0000 C   0  0  0  0  0  0  0  0  0  0  0  0
   11.4499    2.2929    0.0000 C   0  0  0  0  0  0  0  0  0  0  0  0
    5.1396    2.2725    0.0000 C   0  0  0  0  0  0  0  0  0  0  0  0
    4.2678    0.7758    0.0000 C   0  0  0  0  0  0  0  0  0  0  0  0
    3.4037    1.2792    0.0000 C   0  0  0  0  0  0  0  0  0  0  0  0
    4.2755    2.7758    0.0000 C   0  0  0  0  0  0  0  0  0  0  0  0
    3.4075    2.2792    0.0000 C   0  0  0  0  0  0  0  0  0  0  0  0
    5.3539   -2.3576    0.0000 H   0  0  0  0  0  0  0  0  0  0  0  0
    5.7497   -1.6658    0.0000 H   0  0  0  0  0  0  0  0  0  0  0  0
    4.9214   -0.1940    0.0000 H   0  0  0  0  0  0  0  0  0  0  0  0
    4.5256   -0.8858    0.0000 H   0  0  0  0  0  0  0  0  0  0  0  0
    4.2431   -3.4553    0.0000 H   0  0  0  0  0  0  0  0  0  0  0  0
    5.0909   -3.6790    0.0000 H   0  0  0  0  0  0  0  0  0  0  0  0
    5.3146   -2.8312    0.0000 H   0  0  0  0  0  0  0  0  0  0  0  0
    4.3079   -1.1030    0.0000 H   0  0  0  0  0  0  0  0  0  0  0  0
    3.4601   -0.8793    0.0000 H   0  0  0  0  0  0  0  0  0  0  0  0
    3.2364   -1.7271    0.0000 H   0  0  0  0  0  0  0  0  0  0  0  0
    9.5454    3.4376    0.0000 H   0  0  0  0  0  0  0  0  0  0  0  0
    8.1093    2.5936    0.0000 H   0  0  0  0  0  0  0  0  0  0  0  0
   10.0688   -0.5617    0.0000 H   0  0  0  0  0  0  0  0  0  0  0  0
   11.4890    2.8488    0.0000 H   0  0  0  0  0  0  0  0  0  0  0  0
   11.4475    1.6729    0.0000 H   0  0  0  0  0  0  0  0  0  0  0  0
   12.0699    2.2905    0.0000 H   0  0  0  0  0  0  0  0  0  0  0  0
   11.4523    2.9129    0.0000 H   0  0  0  0  0  0  0  0  0  0  0  0
   11.2653    3.6966    0.0000 H   0  0  0  0  0  0  0  0  0  0  0  0
   10.4175    3.4729    0.0000 H   0  0  0  0  0  0  0  0  0  0  0  0
    3.4138   -3.4025    0.0000 H   0  0  0  0  0  0  0  0  0  0  0  0
    4.2654    0.1558    0.0000 H   0  0  0  0  0  0  0  0  0  0  0  0
    9.2028   -2.0617    0.0000 H   0  0  0  0  0  0  0  0  0  0  0  0
    4.2779    3.3958    0.0000 H   0  0  0  0  0  0  0  0  0  0  0  0
    6.0099    3.3891    0.0000 H   0  0  0  0  0  0  0  0  0  0  0  0
    2.0000    1.0946    0.0000 H   0  0  0  0  0  0  0  0  0  0  0  0
    2.5458    3.4025    0.0000 H   0  0  0  0  0  0  0  0  0  0  0  0
  1 14  1  0  0  0  0
  1 17  1  0  0  0  0
  2 13  1  0  0  0  0
  2 19  1  0  0  0  0
  3 10  1  0  0  0  0
  3 53  1  0  0  0  0
  4 18  2  0  0  0  0
  5 24  1  0  0  0  0
  5 55  1  0  0  0  0
  6 29  1  0  0  0  0
  6 57  1  0  0  0  0
  7 31  1  0  0  0  0
  7 58  1  0  0  0  0
  8 33  1  0  0  0  0
  8 59  1  0  0  0  0
  9 10  1  0  0  0  0
  9 11  1  0  0  0  0
  9 34  1  0  0  0  0
  9 35  1  0  0  0  0
 10 20  1  0  0  0  0
 10 21  1  0  0  0  0
 11 12  1  0  0  0  0
 11 36  1  0  0  0  0
 11 37  1  0  0  0  0
 12 17  2  0  0  0  0
 12 18  1  0  0  0  0
 13 22  1  0  0  0  0
 13 27  1  0  0  0  0
 13 28  1  0  0  0  0
 14 15  2  0  0  0  0
 14 16  1  0  0  0  0
 15 18  1  0  0  0  0
 15 24  1  0  0  0  0
 16 19  2  0  0  0  0
 16 23  1  0  0  0  0
 17 26  1  0  0  0  0
 19 25  1  0  0  0  0
 20 38  1  0  0  0  0
 20 39  1  0  0  0  0
 20 40  1  0  0  0  0
 21 41  1  0  0  0  0
 21 42  1  0  0  0  0
 21 43  1  0  0  0  0
 22 23  2  0  0  0  0
 22 44  1  0  0  0  0
 23 45  1  0  0  0  0
 24 25  2  0  0  0  0
 25 46  1  0  0  0  0
 26 29  1  0  0  0  0
 26 30  2  0  0  0  0
 27 47  1  0  0  0  0
 27 51  1  0  0  0  0
 27 52  1  0  0  0  0
 28 48  1  0  0  0  0
 28 49  1  0  0  0  0
 28 50  1  0  0  0  0
 29 32  2  0  0  0  0
 30 31  1  0  0  0  0
 30 54  1  0  0  0  0
 31 33  2  0  0  0  0
 32 33  1  0  0  0  0
 32 56  1  0  0  0  0
M  END
>  <PUBCHEM_COMPOUND_CID>
14630497

>  <PUBCHEM_COMPOUND_CANONICALIZED>
1

>  <PUBCHEM_CACTVS_COMPLEXITY>
830

>  <PUBCHEM_CACTVS_HBOND_ACCEPTOR>
8

>  <PUBCHEM_CACTVS_HBOND_DONOR>
5

>  <PUBCHEM_CACTVS_ROTATABLE_BOND>
4

>  <PUBCHEM_CACTVS_SUBSKEYS>
AAADceB4PAAAAAAAAAAAAAAAAAAAAAAAAAAwYIEAAAAAAACBQAAAGgAACAAADESAmAAyBoAABgCIAqBSAAACCAAkIAAIiAEGiMgNJzaGNBqCeWGl4BUJuQfI7PzOIQADCAAIQABCAAYQABCAAAAAAAAAAA==

>  <PUBCHEM_IUPAC_OPENEYE_NAME>
5-hydroxy-3-(3-hydroxy-3-methyl-butyl)-8,8-dimethyl-2-(2,4,5-trihydroxyphenyl)pyrano[2,3-h]chromen-4-one

>  <PUBCHEM_IUPAC_CAS_NAME>
5-hydroxy-3-(3-hydroxy-3-methylbutyl)-8,8-dimethyl-2-(2,4,5-trihydroxyphenyl)-4-pyrano[2,3-h][1]benzopyranone

>  <PUBCHEM_IUPAC_NAME>
5-hydroxy-3-(3-hydroxy-3-methylbutyl)-8,8-dimethyl-2-(2,4,5-trihydroxyphenyl)pyrano[2,3-h]chromen-4-one

>  <PUBCHEM_IUPAC_SYSTEMATIC_NAME>
8,8-dimethyl-3-(3-methyl-3-oxidanyl-butyl)-5-oxidanyl-2-[2,4,5-tris(oxidanyl)phenyl]pyrano[2,3-h]chromen-4-one

>  <PUBCHEM_IUPAC_TRADITIONAL_NAME>
5-hydroxy-3-(3-hydroxy-3-methyl-butyl)-8,8-dimethyl-2-(2,4,5-trihydroxyphenyl)pyrano[2,3-h]chromen-4-one

>  <PUBCHEM_IUPAC_INCHI>
InChI=1S/C25H26O8/c1-24(2,31)7-5-13-21(30)20-18(29)11-19-12(6-8-25(3,4)33-19)23(20)32-22(13)14-9-16(27)17(28)10-15(14)26/h6,8-11,26-29,31H,5,7H2,1-4H3

>  <PUBCHEM_IUPAC_INCHIKEY>
HENAAGIOPZLIKO-UHFFFAOYSA-N

>  <PUBCHEM_XLOGP3_AA>
3.8

>  <PUBCHEM_EXACT_MASS>
454.163

>  <PUBCHEM_MOLECULAR_FORMULA>
C25H26O8

>  <PUBCHEM_MOLECULAR_WEIGHT>
454.475

>  <PUBCHEM_OPENEYE_CAN_SMILES>
CC1(C=CC2=C3C(=C(C=C2O1)O)C(=O)C(=C(O3)C4=CC(=C(C=C4O)O)O)CCC(C)(C)O)C

>  <PUBCHEM_OPENEYE_ISO_SMILES>
CC1(C=CC2=C3C(=C(C=C2O1)O)C(=O)C(=C(O3)C4=CC(=C(C=C4O)O)O)CCC(C)(C)O)C

>  <PUBCHEM_CACTVS_TPSA>
137

>  <PUBCHEM_MONOISOTOPIC_WEIGHT>
454.163

>  <PUBCHEM_TOTAL_CHARGE>
0

>  <PUBCHEM_HEAVY_ATOM_COUNT>
33

>  <PUBCHEM_ATOM_DEF_STEREO_COUNT>
0

>  <PUBCHEM_ATOM_UDEF_STEREO_COUNT>
0

>  <PUBCHEM_BOND_DEF_STEREO_COUNT>
0

>  <PUBCHEM_BOND_UDEF_STEREO_COUNT>
0

>  <PUBCHEM_ISOTOPIC_ATOM_COUNT>
0

>  <PUBCHEM_COMPONENT_COUNT>
1

>  <PUBCHEM_CACTVS_TAUTO_COUNT>
399

>  <PUBCHEM_COORDINATE_TYPE>
1
5
255

>  <PUBCHEM_BONDANNOTATIONS>
1  14  8
1  17  8
12  17  8
12  18  8
14  15  8
14  16  8
15  18  8
15  24  8
16  19  8
19  25  8
24  25  8
26  29  8
26  30  8
29  32  8
30  31  8
31  33  8
32  33  8

$$$$
