14633012
 OpenBabel06101807152D

 40 41  0  0  1  0  0  0  0  0999 V2000
    5.3692    1.2488    0.0000 O   0  0  0  0  0  0  0  0  0  0  0  0
    7.1260    1.1486    0.0000 O   0  0  0  0  0  0  0  0  0  0  0  0
    2.1861   -0.2671    0.0000 O   0  0  0  0  0  0  0  0  0  0  0  0
    5.3742    0.2488    0.0000 C   0  0  1  0  0  0  0  0  0  0  0  0
    6.3189    0.5582    0.0000 C   0  0  2  0  0  0  0  0  0  0  0  0
    5.3792   -0.7512    0.0000 C   0  0  1  0  0  0  0  0  0  0  0  0
    6.9065   -0.2436    0.0000 C   0  0  0  0  0  0  0  0  0  0  0  0
    6.3269   -1.0512    0.0000 C   0  0  0  0  0  0  0  0  0  0  0  0
    4.5893    0.8684    0.0000 C   0  0  0  0  0  0  0  0  0  0  0  0
    4.6005   -1.3786    0.0000 C   0  0  0  0  0  0  0  0  0  0  0  0
    6.0068    1.5083    0.0000 C   0  0  0  0  0  0  0  0  0  0  0  0
    3.6155    0.6410    0.0000 C   0  0  0  0  0  0  0  0  0  0  0  0
    3.6244   -1.1609    0.0000 C   0  0  0  0  0  0  0  0  0  0  0  0
    4.8278   -2.3524    0.0000 C   0  0  0  0  0  0  0  0  0  0  0  0
    3.1861   -0.2621    0.0000 C   0  0  0  0  0  0  0  0  0  0  0  0
    2.9881    1.4197    0.0000 C   0  0  0  0  0  0  0  0  0  0  0  0
    2.0000    1.2657    0.0000 C   0  0  0  0  0  0  0  0  0  0  0  0
    3.3488    2.3524    0.0000 C   0  0  0  0  0  0  0  0  0  0  0  0
    5.5362   -1.5866    0.0000 H   0  0  0  0  0  0  0  0  0  0  0  0
    7.3694   -0.6560    0.0000 H   0  0  0  0  0  0  0  0  0  0  0  0
    7.3653    0.1734    0.0000 H   0  0  0  0  0  0  0  0  0  0  0  0
    6.0787   -1.6194    0.0000 H   0  0  0  0  0  0  0  0  0  0  0  0
    6.8658   -1.3578    0.0000 H   0  0  0  0  0  0  0  0  0  0  0  0
    5.0721    1.2574    0.0000 H   0  0  0  0  0  0  0  0  0  0  0  0
    4.3175    1.4256    0.0000 H   0  0  0  0  0  0  0  0  0  0  0  0
    6.5958    1.7018    0.0000 H   0  0  0  0  0  0  0  0  0  0  0  0
    5.8133    2.0973    0.0000 H   0  0  0  0  0  0  0  0  0  0  0  0
    5.4177    1.3148    0.0000 H   0  0  0  0  0  0  0  0  0  0  0  0
    4.8307    1.5561    0.0000 H   0  0  0  0  0  0  0  0  0  0  0  0
    7.6932    0.8983    0.0000 H   0  0  0  0  0  0  0  0  0  0  0  0
    3.2403   -1.6476    0.0000 H   0  0  0  0  0  0  0  0  0  0  0  0
    4.2241   -2.4934    0.0000 H   0  0  0  0  0  0  0  0  0  0  0  0
    4.9688   -2.9562    0.0000 H   0  0  0  0  0  0  0  0  0  0  0  0
    5.4316   -2.2114    0.0000 H   0  0  0  0  0  0  0  0  0  0  0  0
    1.9045    1.8783    0.0000 H   0  0  0  0  0  0  0  0  0  0  0  0
    1.3874    1.1703    0.0000 H   0  0  0  0  0  0  0  0  0  0  0  0
    2.0955    0.6531    0.0000 H   0  0  0  0  0  0  0  0  0  0  0  0
    3.9270    2.1288    0.0000 H   0  0  0  0  0  0  0  0  0  0  0  0
    3.5724    2.9306    0.0000 H   0  0  0  0  0  0  0  0  0  0  0  0
    2.7705    2.5760    0.0000 H   0  0  0  0  0  0  0  0  0  0  0  0
  1 29  1  0  0  0  0
  2 30  1  0  0  0  0
  3 15  2  0  0  0  0
  4  1  1  0  0  0  0
  4  5  1  6  0  0  0
  4  9  1  0  0  0  0
  5  2  1  1  0  0  0
  5  7  1  0  0  0  0
  5 11  1  0  0  0  0
  6  4  1  6  0  0  0
  6  8  1  0  0  0  0
  6 10  1  0  0  0  0
  6 19  1  0  0  0  0
  7  8  1  0  0  0  0
  7 20  1  0  0  0  0
  7 21  1  0  0  0  0
  8 22  1  0  0  0  0
  8 23  1  0  0  0  0
  9 12  1  0  0  0  0
  9 24  1  0  0  0  0
  9 25  1  0  0  0  0
 10 13  2  0  0  0  0
 10 14  1  0  0  0  0
 11 26  1  0  0  0  0
 11 27  1  0  0  0  0
 11 28  1  0  0  0  0
 12 15  1  0  0  0  0
 12 16  2  0  0  0  0
 13 15  1  0  0  0  0
 13 31  1  0  0  0  0
 14 32  1  0  0  0  0
 14 33  1  0  0  0  0
 14 34  1  0  0  0  0
 16 17  1  0  0  0  0
 16 18  1  0  0  0  0
 17 35  1  0  0  0  0
 17 36  1  0  0  0  0
 17 37  1  0  0  0  0
 18 38  1  0  0  0  0
 18 39  1  0  0  0  0
 18 40  1  0  0  0  0
M  END
>  <PUBCHEM_COMPOUND_CID>
14633012

>  <PUBCHEM_COMPOUND_CANONICALIZED>
1

>  <PUBCHEM_CACTVS_COMPLEXITY>
456

>  <PUBCHEM_CACTVS_HBOND_ACCEPTOR>
3

>  <PUBCHEM_CACTVS_HBOND_DONOR>
2

>  <PUBCHEM_CACTVS_ROTATABLE_BOND>
0

>  <PUBCHEM_CACTVS_SUBSKEYS>
AAADceBwMAAAAAAAAAAAAAAAAAAAAYAAAAAAAAAABAAAAACAAAAAGgAACAAADUSAgAACAAAAAgCIAqBSAAAAAAAgAAAACAEAAEgBABIAAQAAQAAEwAAJAQOK7OTOgAAAAAAAAAAAAAAAAAAAAYAADCAAAA==

>  <PUBCHEM_IUPAC_OPENEYE_NAME>
(3S,3aR,8aS)-3,3a-dihydroxy-5-isopropylidene-3,8-dimethyl-1,2,4,8a-tetrahydroazulen-6-one

>  <PUBCHEM_IUPAC_CAS_NAME>
(3S,3aR,8aS)-3,3a-dihydroxy-3,8-dimethyl-5-propan-2-ylidene-1,2,4,8a-tetrahydroazulen-6-one

>  <PUBCHEM_IUPAC_NAME>
(3S,3aR,8aS)-3,3a-dihydroxy-3,8-dimethyl-5-propan-2-ylidene-1,2,4,8a-tetrahydroazulen-6-one

>  <PUBCHEM_IUPAC_SYSTEMATIC_NAME>
(3S,3aR,8aS)-3,8-dimethyl-3,3a-bis(oxidanyl)-5-propan-2-ylidene-1,2,4,8a-tetrahydroazulen-6-one

>  <PUBCHEM_IUPAC_TRADITIONAL_NAME>
(3S,3aR,8aS)-3,3a-dihydroxy-5-isopropylidene-3,8-dimethyl-1,2,4,8a-tetrahydroazulen-6-one

>  <PUBCHEM_IUPAC_INCHI>
InChI=1S/C15H22O3/c1-9(2)11-8-15(18)12(5-6-14(15,4)17)10(3)7-13(11)16/h7,12,17-18H,5-6,8H2,1-4H3/t12-,14-,15+/m0/s1

>  <PUBCHEM_IUPAC_INCHIKEY>
MBUWIGIPGMJVMN-AEGPPILISA-N

>  <PUBCHEM_XLOGP3_AA>
1.3

>  <PUBCHEM_EXACT_MASS>
250.157

>  <PUBCHEM_MOLECULAR_FORMULA>
C15H22O3

>  <PUBCHEM_MOLECULAR_WEIGHT>
250.338

>  <PUBCHEM_OPENEYE_CAN_SMILES>
CC1=CC(=O)C(=C(C)C)CC2(C1CCC2(C)O)O

>  <PUBCHEM_OPENEYE_ISO_SMILES>
CC1=CC(=O)C(=C(C)C)C[C@]2([C@H]1CC[C@]2(C)O)O

>  <PUBCHEM_CACTVS_TPSA>
57.5

>  <PUBCHEM_MONOISOTOPIC_WEIGHT>
250.157

>  <PUBCHEM_TOTAL_CHARGE>
0

>  <PUBCHEM_HEAVY_ATOM_COUNT>
18

>  <PUBCHEM_ATOM_DEF_STEREO_COUNT>
3

>  <PUBCHEM_ATOM_UDEF_STEREO_COUNT>
0

>  <PUBCHEM_BOND_DEF_STEREO_COUNT>
0

>  <PUBCHEM_BOND_UDEF_STEREO_COUNT>
0

>  <PUBCHEM_ISOTOPIC_ATOM_COUNT>
0

>  <PUBCHEM_COMPONENT_COUNT>
1

>  <PUBCHEM_CACTVS_TAUTO_COUNT>
13

>  <PUBCHEM_COORDINATE_TYPE>
1
5
255

>  <PUBCHEM_BONDANNOTATIONS>
4  1  5
5  2  5
6  19  6

$$$$
