14681571
 OpenBabel06101807152D

 88 92  0  0  1  0  0  0  0  0999 V2000
   10.5680    0.8545    0.0000 O   0  0  0  0  0  0  0  0  0  0  0  0
   14.2741   -2.2280    0.0000 O   0  0  0  0  0  0  0  0  0  0  0  0
    9.8100   -2.9600    0.0000 O   0  0  0  0  0  0  0  0  0  0  0  0
    9.8100    0.5041    0.0000 O   0  0  0  0  0  0  0  0  0  0  0  0
   10.6500    2.0911    0.0000 O   0  0  0  0  0  0  0  0  0  0  0  0
   16.0062    0.7720    0.0000 O   0  0  0  0  0  0  0  0  0  0  0  0
   13.9052    3.2759    0.0000 O   0  0  0  0  0  0  0  0  0  0  0  0
    8.3100   -3.8260    0.0000 O   0  0  0  0  0  0  0  0  0  0  0  0
    5.3100   -5.5580    0.0000 O   0  0  0  0  0  0  0  0  0  0  0  0
    2.3100   -3.8260    0.0000 O   0  0  0  0  0  0  0  0  0  0  0  0
   11.6760   -0.7280    0.0000 C   0  0  3  0  0  0  0  0  0  0  0  0
   12.5421   -1.2280    0.0000 C   0  0  3  0  0  0  0  0  0  0  0  0
   10.8100   -1.2280    0.0000 C   0  0  3  0  0  0  0  0  0  0  0  0
   12.5421   -2.2280    0.0000 C   0  0  0  0  0  0  0  0  0  0  0  0
   11.6760   -2.7280    0.0000 C   0  0  0  0  0  0  0  0  0  0  0  0
   10.8100   -2.2280    0.0000 C   0  0  0  0  0  0  0  0  0  0  0  0
   13.4081   -0.7280    0.0000 C   0  0  0  0  0  0  0  0  0  0  0  0
    9.8100   -1.2280    0.0000 C   0  0  0  0  0  0  0  0  0  0  0  0
   11.3340    0.2117    0.0000 C   0  0  0  0  0  0  0  0  0  0  0  0
   11.6760   -3.7280    0.0000 C   0  0  0  0  0  0  0  0  0  0  0  0
   11.9768    0.9778    0.0000 C   0  0  0  0  0  0  0  0  0  0  0  0
   14.2741   -1.2280    0.0000 C   0  0  0  0  0  0  0  0  0  0  0  0
    9.3100   -2.0939    0.0000 C   0  0  0  0  0  0  0  0  0  0  0  0
   13.4081    0.2720    0.0000 C   0  0  0  0  0  0  0  0  0  0  0  0
    9.3100   -0.3619    0.0000 C   0  0  0  0  0  0  0  0  0  0  0  0
    8.3100   -2.0940    0.0000 C   0  0  0  0  0  0  0  0  0  0  0  0
   15.1401   -0.7280    0.0000 C   0  0  0  0  0  0  0  0  0  0  0  0
   14.2741    0.7720    0.0000 C   0  0  0  0  0  0  0  0  0  0  0  0
    8.3100   -0.3619    0.0000 C   0  0  0  0  0  0  0  0  0  0  0  0
   11.6348    1.9175    0.0000 C   0  0  0  0  0  0  0  0  0  0  0  0
   12.9616    0.8041    0.0000 C   0  0  0  0  0  0  0  0  0  0  0  0
    7.8100   -1.2280    0.0000 C   0  0  0  0  0  0  0  0  0  0  0  0
   15.1401    0.2720    0.0000 C   0  0  0  0  0  0  0  0  0  0  0  0
   12.2776    2.6835    0.0000 C   0  0  0  0  0  0  0  0  0  0  0  0
   13.6044    1.5702    0.0000 C   0  0  0  0  0  0  0  0  0  0  0  0
    7.8100   -2.9599    0.0000 C   0  0  0  0  0  0  0  0  0  0  0  0
   13.2624    2.5098    0.0000 C   0  0  0  0  0  0  0  0  0  0  0  0
   11.9355    3.6232    0.0000 C   0  0  0  0  0  0  0  0  0  0  0  0
    6.8100   -2.9600    0.0000 C   0  0  0  0  0  0  0  0  0  0  0  0
   12.5783    4.3892    0.0000 C   0  0  0  0  0  0  0  0  0  0  0  0
   12.2363    5.3289    0.0000 C   0  0  0  0  0  0  0  0  0  0  0  0
    6.3100   -3.8260    0.0000 C   0  0  0  0  0  0  0  0  0  0  0  0
   12.8791    6.0950    0.0000 C   0  0  0  0  0  0  0  0  0  0  0  0
   11.2515    5.5026    0.0000 C   0  0  0  0  0  0  0  0  0  0  0  0
    5.3100   -3.8260    0.0000 C   0  0  0  0  0  0  0  0  0  0  0  0
    4.8100   -4.6920    0.0000 C   0  0  0  0  0  0  0  0  0  0  0  0
    4.8100   -2.9600    0.0000 C   0  0  0  0  0  0  0  0  0  0  0  0
    3.8100   -4.6921    0.0000 C   0  0  0  0  0  0  0  0  0  0  0  0
    3.8100   -2.9600    0.0000 C   0  0  0  0  0  0  0  0  0  0  0  0
    3.3100   -3.8260    0.0000 C   0  0  0  0  0  0  0  0  0  0  0  0
   12.1510   -0.3294    0.0000 H   0  0  0  0  0  0  0  0  0  0  0  0
   12.5421   -0.6080    0.0000 H   0  0  0  0  0  0  0  0  0  0  0  0
   10.6495   -0.6291    0.0000 H   0  0  0  0  0  0  0  0  0  0  0  0
   12.7541   -2.8106    0.0000 H   0  0  0  0  0  0  0  0  0  0  0  0
   13.1526   -2.1203    0.0000 H   0  0  0  0  0  0  0  0  0  0  0  0
   10.2731   -2.5380    0.0000 H   0  0  0  0  0  0  0  0  0  0  0  0
   11.0560   -3.7280    0.0000 H   0  0  0  0  0  0  0  0  0  0  0  0
   11.6760   -4.3480    0.0000 H   0  0  0  0  0  0  0  0  0  0  0  0
   12.2960   -3.7280    0.0000 H   0  0  0  0  0  0  0  0  0  0  0  0
   12.8711    0.5820    0.0000 H   0  0  0  0  0  0  0  0  0  0  0  0
   15.6771   -1.0380    0.0000 H   0  0  0  0  0  0  0  0  0  0  0  0
   14.2741    1.3920    0.0000 H   0  0  0  0  0  0  0  0  0  0  0  0
    8.0000    0.1750    0.0000 H   0  0  0  0  0  0  0  0  0  0  0  0
   13.1737    0.2215    0.0000 H   0  0  0  0  0  0  0  0  0  0  0  0
    7.1900   -1.2280    0.0000 H   0  0  0  0  0  0  0  0  0  0  0  0
   14.8110   -2.5380    0.0000 H   0  0  0  0  0  0  0  0  0  0  0  0
    9.5000   -3.4969    0.0000 H   0  0  0  0  0  0  0  0  0  0  0  0
    9.5000    1.0410    0.0000 H   0  0  0  0  0  0  0  0  0  0  0  0
   14.2150    1.4625    0.0000 H   0  0  0  0  0  0  0  0  0  0  0  0
   10.4379    2.6737    0.0000 H   0  0  0  0  0  0  0  0  0  0  0  0
   11.3250    3.7308    0.0000 H   0  0  0  0  0  0  0  0  0  0  0  0
   16.5431    0.4620    0.0000 H   0  0  0  0  0  0  0  0  0  0  0  0
    6.5000   -2.4231    0.0000 H   0  0  0  0  0  0  0  0  0  0  0  0
   13.1889    4.2816    0.0000 H   0  0  0  0  0  0  0  0  0  0  0  0
   13.6931    3.8585    0.0000 H   0  0  0  0  0  0  0  0  0  0  0  0
   12.8469    5.2213    0.0000 H   0  0  0  0  0  0  0  0  0  0  0  0
    6.6200   -4.3629    0.0000 H   0  0  0  0  0  0  0  0  0  0  0  0
   13.3540    5.6964    0.0000 H   0  0  0  0  0  0  0  0  0  0  0  0
   13.2776    6.5699    0.0000 H   0  0  0  0  0  0  0  0  0  0  0  0
   12.4041    6.4935    0.0000 H   0  0  0  0  0  0  0  0  0  0  0  0
   11.3592    6.1132    0.0000 H   0  0  0  0  0  0  0  0  0  0  0  0
   10.6409    5.6102    0.0000 H   0  0  0  0  0  0  0  0  0  0  0  0
   11.1438    4.8920    0.0000 H   0  0  0  0  0  0  0  0  0  0  0  0
    5.1200   -2.4231    0.0000 H   0  0  0  0  0  0  0  0  0  0  0  0
    3.5000   -5.2290    0.0000 H   0  0  0  0  0  0  0  0  0  0  0  0
    3.5000   -2.4231    0.0000 H   0  0  0  0  0  0  0  0  0  0  0  0
    5.0000   -6.0950    0.0000 H   0  0  0  0  0  0  0  0  0  0  0  0
    2.0000   -3.2891    0.0000 H   0  0  0  0  0  0  0  0  0  0  0  0
  1 19  2  0  0  0  0
  2 22  1  0  0  0  0
  2 66  1  0  0  0  0
  3 23  1  0  0  0  0
  3 67  1  0  0  0  0
  4 25  1  0  0  0  0
  4 68  1  0  0  0  0
  5 30  1  0  0  0  0
  5 70  1  0  0  0  0
  6 33  1  0  0  0  0
  6 72  1  0  0  0  0
  7 37  1  0  0  0  0
  7 75  1  0  0  0  0
  8 36  2  0  0  0  0
  9 46  1  0  0  0  0
  9 87  1  0  0  0  0
 10 50  1  0  0  0  0
 10 88  1  0  0  0  0
 11 12  1  0  0  0  0
 11 13  1  0  0  0  0
 11 19  1  0  0  0  0
 11 51  1  0  0  0  0
 12 14  1  0  0  0  0
 12 17  1  0  0  0  0
 12 52  1  0  0  0  0
 13 16  1  0  0  0  0
 13 18  1  0  0  0  0
 13 53  1  0  0  0  0
 14 15  1  0  0  0  0
 14 54  1  0  0  0  0
 14 55  1  0  0  0  0
 15 16  2  0  0  0  0
 15 20  1  0  0  0  0
 16 56  1  0  0  0  0
 17 22  2  0  0  0  0
 17 24  1  0  0  0  0
 18 23  1  0  0  0  0
 18 25  2  0  0  0  0
 19 21  1  0  0  0  0
 20 57  1  0  0  0  0
 20 58  1  0  0  0  0
 20 59  1  0  0  0  0
 21 30  2  0  0  0  0
 21 31  1  0  0  0  0
 22 27  1  0  0  0  0
 23 26  2  0  0  0  0
 24 28  2  0  0  0  0
 24 60  1  0  0  0  0
 25 29  1  0  0  0  0
 26 32  1  0  0  0  0
 26 36  1  0  0  0  0
 27 33  2  0  0  0  0
 27 61  1  0  0  0  0
 28 33  1  0  0  0  0
 28 62  1  0  0  0  0
 29 32  2  0  0  0  0
 29 63  1  0  0  0  0
 30 34  1  0  0  0  0
 31 35  2  0  0  0  0
 31 64  1  0  0  0  0
 32 65  1  0  0  0  0
 34 37  2  0  0  0  0
 34 38  1  0  0  0  0
 35 37  1  0  0  0  0
 35 69  1  0  0  0  0
 36 39  1  0  0  0  0
 38 40  2  0  0  0  0
 38 71  1  0  0  0  0
 39 42  2  0  0  0  0
 39 73  1  0  0  0  0
 40 41  1  0  0  0  0
 40 74  1  0  0  0  0
 41 43  1  0  0  0  0
 41 44  1  0  0  0  0
 41 76  1  0  0  0  0
 42 45  1  0  0  0  0
 42 77  1  0  0  0  0
 43 78  1  0  0  0  0
 43 79  1  0  0  0  0
 43 80  1  0  0  0  0
 44 81  1  0  0  0  0
 44 82  1  0  0  0  0
 44 83  1  0  0  0  0
 45 46  2  0  0  0  0
 45 47  1  0  0  0  0
 46 48  1  0  0  0  0
 47 49  2  0  0  0  0
 47 84  1  0  0  0  0
 48 50  2  0  0  0  0
 48 85  1  0  0  0  0
 49 50  1  0  0  0  0
 49 86  1  0  0  0  0
M  END
>  <PUBCHEM_COMPOUND_CID>
14681571

>  <PUBCHEM_COMPOUND_CANONICALIZED>
1

>  <PUBCHEM_CACTVS_COMPLEXITY>
1260

>  <PUBCHEM_CACTVS_HBOND_ACCEPTOR>
10

>  <PUBCHEM_CACTVS_HBOND_DONOR>
8

>  <PUBCHEM_CACTVS_ROTATABLE_BOND>
9

>  <PUBCHEM_CACTVS_SUBSKEYS>
AAADcfB8PAAAAAAAAAAAAAAAAAAAAAAAAAAwYMGCAAAAAAABVAAAGgAACAAADQSAmAAyBoAAAgCIAqBSAAACAAAkIAAIiAEGCMgIJzaCFRKAcUAl4BUImYeI7PTOoAACCAAIAABAAAQQABAAAAAAAAAAAA==

>  <PUBCHEM_IUPAC_OPENEYE_NAME>
(E)-1-[3-[6-[2,4-dihydroxy-3-[(E)-3-methylbut-1-enyl]benzoyl]-5-(2,4-dihydroxyphenyl)-3-methyl-cyclohex-2-en-1-yl]-2,4-dihydroxy-phenyl]-3-(2,4-dihydroxyphenyl)prop-2-en-1-one

>  <PUBCHEM_IUPAC_CAS_NAME>
(E)-1-[3-[6-[[2,4-dihydroxy-3-[(E)-3-methylbut-1-enyl]phenyl]-oxomethyl]-5-(2,4-dihydroxyphenyl)-3-methyl-1-cyclohex-2-enyl]-2,4-dihydroxyphenyl]-3-(2,4-dihydroxyphenyl)-2-propen-1-one

>  <PUBCHEM_IUPAC_NAME>
(E)-1-[3-[6-[2,4-dihydroxy-3-[(E)-3-methylbut-1-enyl]benzoyl]-5-(2,4-dihydroxyphenyl)-3-methylcyclohex-2-en-1-yl]-2,4-dihydroxyphenyl]-3-(2,4-dihydroxyphenyl)prop-2-en-1-one

>  <PUBCHEM_IUPAC_SYSTEMATIC_NAME>
(E)-3-[2,4-bis(oxidanyl)phenyl]-1-[3-[5-[2,4-bis(oxidanyl)phenyl]-3-methyl-6-[3-[(E)-3-methylbut-1-enyl]-2,4-bis(oxidanyl)phenyl]carbonyl-cyclohex-2-en-1-yl]-2,4-bis(oxidanyl)phenyl]prop-2-en-1-one

>  <PUBCHEM_IUPAC_TRADITIONAL_NAME>
(E)-1-[3-[6-[2,4-dihydroxy-3-[(E)-3-methylbut-1-enyl]benzoyl]-5-(2,4-dihydroxyphenyl)-3-methyl-cyclohex-2-en-1-yl]-2,4-dihydroxy-phenyl]-3-(2,4-dihydroxyphenyl)prop-2-en-1-one

>  <PUBCHEM_IUPAC_INCHI>
InChI=1S/C40H38O10/c1-20(2)4-9-26-32(44)14-12-28(38(26)48)40(50)36-29(25-10-8-24(42)19-35(25)47)16-21(3)17-30(36)37-33(45)15-11-27(39(37)49)31(43)13-6-22-5-7-23(41)18-34(22)46/h4-15,17-20,29-30,36,41-42,44-49H,16H2,1-3H3/b9-4+,13-6+

>  <PUBCHEM_IUPAC_INCHIKEY>
JMWCPXJWKKIWQK-NUTCGYRKSA-N

>  <PUBCHEM_XLOGP3_AA>
7.6

>  <PUBCHEM_EXACT_MASS>
678.246

>  <PUBCHEM_MOLECULAR_FORMULA>
C40H38O10

>  <PUBCHEM_MOLECULAR_WEIGHT>
678.734

>  <PUBCHEM_OPENEYE_CAN_SMILES>
CC1=CC(C(C(C1)C2=C(C=C(C=C2)O)O)C(=O)C3=C(C(=C(C=C3)O)C=CC(C)C)O)C4=C(C=CC(=C4O)C(=O)C=CC5=C(C=C(C=C5)O)O)O

>  <PUBCHEM_OPENEYE_ISO_SMILES>
CC1=CC(C(C(C1)C2=C(C=C(C=C2)O)O)C(=O)C3=C(C(=C(C=C3)O)/C=C/C(C)C)O)C4=C(C=CC(=C4O)C(=O)/C=C/C5=C(C=C(C=C5)O)O)O

>  <PUBCHEM_CACTVS_TPSA>
196

>  <PUBCHEM_MONOISOTOPIC_WEIGHT>
678.246

>  <PUBCHEM_TOTAL_CHARGE>
0

>  <PUBCHEM_HEAVY_ATOM_COUNT>
50

>  <PUBCHEM_ATOM_DEF_STEREO_COUNT>
0

>  <PUBCHEM_ATOM_UDEF_STEREO_COUNT>
3

>  <PUBCHEM_BOND_DEF_STEREO_COUNT>
2

>  <PUBCHEM_BOND_UDEF_STEREO_COUNT>
0

>  <PUBCHEM_ISOTOPIC_ATOM_COUNT>
0

>  <PUBCHEM_COMPONENT_COUNT>
1

>  <PUBCHEM_CACTVS_TAUTO_COUNT>
986

>  <PUBCHEM_COORDINATE_TYPE>
1
5
255

>  <PUBCHEM_BONDANNOTATIONS>
11  19  3
12  17  3
13  18  3
17  22  8
17  24  8
18  23  8
18  25  8
21  30  8
21  31  8
22  27  8
23  26  8
24  28  8
25  29  8
26  32  8
27  33  8
28  33  8
29  32  8
30  34  8
31  35  8
34  37  8
35  37  8
45  46  8
45  47  8
46  48  8
47  49  8
48  50  8
49  50  8

$$$$
