147329
 OpenBabel06101807152D

 41 46  0  0  0  0  0  0  0  0999 V2000
    2.9950    3.5673    0.0000 O   0  0  0  0  0  0  0  0  0  0  0  0
    5.5740   -3.5278    0.0000 O   0  0  0  0  0  0  0  0  0  0  0  0
    4.0684   -4.4125    0.0000 O   0  0  0  0  0  0  0  0  0  0  0  0
    4.4403    4.4167    0.0000 O   0  0  0  0  0  0  0  0  0  0  0  0
    2.9180    0.3368    0.0000 N   0  3  0  0  0  0  0  0  0  0  0  0
    3.7841   -0.1632    0.0000 C   0  0  0  0  0  0  0  0  0  0  0  0
    2.0080   -0.1700    0.0000 C   0  0  0  0  0  0  0  0  0  0  0  0
    2.0000   -1.2116    0.0000 C   0  0  0  0  0  0  0  0  0  0  0  0
    3.8001   -1.2047    0.0000 C   0  0  0  0  0  0  0  0  0  0  0  0
    2.9021   -1.7324    0.0000 C   0  0  0  0  0  0  0  0  0  0  0  0
    4.6501    0.3368    0.0000 C   0  0  0  0  0  0  0  0  0  0  0  0
    4.6501    1.3368    0.0000 C   0  0  0  0  0  0  0  0  0  0  0  0
    3.7841    1.8368    0.0000 C   0  0  0  0  0  0  0  0  0  0  0  0
    2.9180    1.3368    0.0000 C   0  0  0  0  0  0  0  0  0  0  0  0
    4.7520   -1.7253    0.0000 C   0  0  0  0  0  0  0  0  0  0  0  0
    2.8937   -2.8174    0.0000 C   0  0  0  0  0  0  0  0  0  0  0  0
    3.7680    2.8783    0.0000 C   0  0  0  0  0  0  0  0  0  0  0  0
    4.7688   -2.8102    0.0000 C   0  0  0  0  0  0  0  0  0  0  0  0
    3.8334   -3.3599    0.0000 C   0  0  0  0  0  0  0  0  0  0  0  0
    5.5161   -0.1632    0.0000 C   0  0  0  0  0  0  0  0  0  0  0  0
    5.5601    1.8437    0.0000 C   0  0  0  0  0  0  0  0  0  0  0  0
    4.6660    3.4061    0.0000 C   0  0  0  0  0  0  0  0  0  0  0  0
    5.5681    2.8853    0.0000 C   0  0  0  0  0  0  0  0  0  0  0  0
    5.1420   -4.5161    0.0000 C   0  0  0  0  0  0  0  0  0  0  0  0
    3.4096    4.5161    0.0000 C   0  0  0  0  0  0  0  0  0  0  0  0
    1.8035    0.4153    0.0000 H   0  0  0  0  0  0  0  0  0  0  0  0
    1.3964   -0.2714    0.0000 H   0  0  0  0  0  0  0  0  0  0  0  0
    1.3900   -1.1008    0.0000 H   0  0  0  0  0  0  0  0  0  0  0  0
    1.7864   -1.7937    0.0000 H   0  0  0  0  0  0  0  0  0  0  0  0
    2.3811    1.6468    0.0000 H   0  0  0  0  0  0  0  0  0  0  0  0
    5.2829   -1.4050    0.0000 H   0  0  0  0  0  0  0  0  0  0  0  0
    2.3556   -3.1253    0.0000 H   0  0  0  0  0  0  0  0  0  0  0  0
    5.2061   -0.7001    0.0000 H   0  0  0  0  0  0  0  0  0  0  0  0
    6.0530   -0.4732    0.0000 H   0  0  0  0  0  0  0  0  0  0  0  0
    5.8261    0.3738    0.0000 H   0  0  0  0  0  0  0  0  0  0  0  0
    6.0934    1.5275    0.0000 H   0  0  0  0  0  0  0  0  0  0  0  0
    6.1062    3.1932    0.0000 H   0  0  0  0  0  0  0  0  0  0  0  0
    5.0180   -5.1235    0.0000 H   0  0  0  0  0  0  0  0  0  0  0  0
    5.7331   -4.7033    0.0000 H   0  0  0  0  0  0  0  0  0  0  0  0
    3.5337    5.1235    0.0000 H   0  0  0  0  0  0  0  0  0  0  0  0
    2.8186    4.7033    0.0000 H   0  0  0  0  0  0  0  0  0  0  0  0
  1 17  1  0  0  0  0
  1 25  1  0  0  0  0
  2 18  1  0  0  0  0
  2 24  1  0  0  0  0
  3 19  1  0  0  0  0
  3 24  1  0  0  0  0
  4 22  1  0  0  0  0
  4 25  1  0  0  0  0
  5  6  2  0  0  0  0
  5  7  1  0  0  0  0
  5 14  1  0  0  0  0
  6  9  1  0  0  0  0
  6 11  1  0  0  0  0
  7  8  1  0  0  0  0
  7 26  1  0  0  0  0
  7 27  1  0  0  0  0
  8 10  1  0  0  0  0
  8 28  1  0  0  0  0
  8 29  1  0  0  0  0
  9 10  1  0  0  0  0
  9 15  2  0  0  0  0
 10 16  2  0  0  0  0
 11 12  2  0  0  0  0
 11 20  1  0  0  0  0
 12 13  1  0  0  0  0
 12 21  1  0  0  0  0
 13 14  2  0  0  0  0
 13 17  1  0  0  0  0
 14 30  1  0  0  0  0
 15 18  1  0  0  0  0
 15 31  1  0  0  0  0
 16 19  1  0  0  0  0
 16 32  1  0  0  0  0
 17 22  2  0  0  0  0
 18 19  2  0  0  0  0
 20 33  1  0  0  0  0
 20 34  1  0  0  0  0
 20 35  1  0  0  0  0
 21 23  2  0  0  0  0
 21 36  1  0  0  0  0
 22 23  1  0  0  0  0
 23 37  1  0  0  0  0
 24 38  1  0  0  0  0
 24 39  1  0  0  0  0
 25 40  1  0  0  0  0
 25 41  1  0  0  0  0
M  CHG  1   5   1
M  END
>  <PUBCHEM_COMPOUND_CID>
147329

>  <PUBCHEM_COMPOUND_CANONICALIZED>
1

>  <PUBCHEM_CACTVS_COMPLEXITY>
530

>  <PUBCHEM_CACTVS_HBOND_ACCEPTOR>
4

>  <PUBCHEM_CACTVS_HBOND_DONOR>
0

>  <PUBCHEM_CACTVS_ROTATABLE_BOND>
0

>  <PUBCHEM_CACTVS_SUBSKEYS>
AAADceB6OAAAAAAAAAAAAAAAAAAAASJAAAA8eIEAAAAAAEix9AAAHgAAAAAADAzBngc+jtMMFACgAzRnRACCiCAxICAI2CAuzJgdJuLEsZukMCpmwBnO6Aew0PMOoAABAAAYQABAAAIAADCAAAAAAAAAAA==

>  <PUBCHEM_IUPAC_INCHI>
InChI=1S/C20H16NO4/c1-11-13-2-3-16-20(25-10-22-16)15(13)8-21-5-4-12-6-17-18(24-9-23-17)7-14(12)19(11)21/h2-3,6-8H,4-5,9-10H2,1H3/q+1

>  <PUBCHEM_IUPAC_INCHIKEY>
YESPQCLKTIRGLU-UHFFFAOYSA-N

>  <PUBCHEM_XLOGP3_AA>
3.9

>  <PUBCHEM_EXACT_MASS>
334.108

>  <PUBCHEM_MOLECULAR_FORMULA>
C20H16NO4+

>  <PUBCHEM_MOLECULAR_WEIGHT>
334.351

>  <PUBCHEM_OPENEYE_CAN_SMILES>
CC1=C2C=CC3=C(C2=C[N+]4=C1C5=CC6=C(C=C5CC4)OCO6)OCO3

>  <PUBCHEM_OPENEYE_ISO_SMILES>
CC1=C2C=CC3=C(C2=C[N+]4=C1C5=CC6=C(C=C5CC4)OCO6)OCO3

>  <PUBCHEM_CACTVS_TPSA>
40.8

>  <PUBCHEM_MONOISOTOPIC_WEIGHT>
334.108

>  <PUBCHEM_TOTAL_CHARGE>
1

>  <PUBCHEM_HEAVY_ATOM_COUNT>
25

>  <PUBCHEM_ATOM_DEF_STEREO_COUNT>
0

>  <PUBCHEM_ATOM_UDEF_STEREO_COUNT>
0

>  <PUBCHEM_BOND_DEF_STEREO_COUNT>
0

>  <PUBCHEM_BOND_UDEF_STEREO_COUNT>
0

>  <PUBCHEM_ISOTOPIC_ATOM_COUNT>
0

>  <PUBCHEM_COMPONENT_COUNT>
1

>  <PUBCHEM_CACTVS_TAUTO_COUNT>
1

>  <PUBCHEM_COORDINATE_TYPE>
1
5
255

>  <PUBCHEM_BONDANNOTATIONS>
10  16  8
11  12  8
12  13  8
12  21  8
13  14  8
13  17  8
15  18  8
16  19  8
17  22  8
18  19  8
21  23  8
22  23  8
5  14  8
5  6  8
6  11  8
9  10  8
9  15  8

$$$$
