14779569
 OpenBabel06101807152D

 74 78  0  0  1  0  0  0  0  0999 V2000
    6.8671   -0.9276    0.0000 O   0  0  0  0  0  0  0  0  0  0  0  0
    7.7331    1.5724    0.0000 O   0  0  0  0  0  0  0  0  0  0  0  0
    5.1350   -0.9276    0.0000 O   0  0  0  0  0  0  0  0  0  0  0  0
    5.1350    0.0725    0.0000 O   0  0  0  0  0  0  0  0  0  0  0  0
    8.5991    0.0725    0.0000 O   0  0  0  0  0  0  0  0  0  0  0  0
    5.1350    2.0724    0.0000 O   0  0  0  0  0  0  0  0  0  0  0  0
    6.8671   -2.9276    0.0000 O   0  0  0  0  0  0  0  0  0  0  0  0
    5.1350   -3.9276    0.0000 O   0  0  0  0  0  0  0  0  0  0  0  0
    3.4030   -2.9276    0.0000 O   0  0  0  0  0  0  0  0  0  0  0  0
    6.0010    3.5724    0.0000 O   0  0  0  0  0  0  0  0  0  0  0  0
    2.5369   -1.4276    0.0000 O   0  0  0  0  0  0  0  0  0  0  0  0
   11.1972    0.5724    0.0000 O   0  3  0  0  0  0  0  0  0  0  0  0
    9.4434    3.6039    0.0000 O   0  0  0  0  0  0  0  0  0  0  0  0
   12.9832    3.6176    0.0000 O   0  0  0  0  0  0  0  0  0  0  0  0
   12.0632   -2.9276    0.0000 O   0  0  0  0  0  0  0  0  0  0  0  0
   10.3312   -3.9276    0.0000 O   0  0  0  0  0  0  0  0  0  0  0  0
    6.8671    0.0725    0.0000 C   0  0  3  0  0  0  0  0  0  0  0  0
    6.0010    0.5724    0.0000 C   0  0  3  0  0  0  0  0  0  0  0  0
    6.0010    1.5724    0.0000 C   0  0  3  0  0  0  0  0  0  0  0  0
    6.0010   -1.4276    0.0000 C   0  0  3  0  0  0  0  0  0  0  0  0
    6.0010   -2.4276    0.0000 C   0  0  3  0  0  0  0  0  0  0  0  0
    7.7331    0.5724    0.0000 C   0  0  3  0  0  0  0  0  0  0  0  0
    6.8671    2.0724    0.0000 C   0  0  3  0  0  0  0  0  0  0  0  0
    5.1350   -2.9276    0.0000 C   0  0  3  0  0  0  0  0  0  0  0  0
    4.2690   -2.4276    0.0000 C   0  0  3  0  0  0  0  0  0  0  0  0
    4.2690   -1.4276    0.0000 C   0  0  3  0  0  0  0  0  0  0  0  0
    6.8671    3.0724    0.0000 C   0  0  0  0  0  0  0  0  0  0  0  0
    3.4030   -0.9276    0.0000 C   0  0  0  0  0  0  0  0  0  0  0  0
    9.4651    0.5724    0.0000 C   0  0  0  0  0  0  0  0  0  0  0  0
   10.3312    0.0725    0.0000 C   0  0  0  0  0  0  0  0  0  0  0  0
    9.4651    1.5724    0.0000 C   0  0  0  0  0  0  0  0  0  0  0  0
   10.3312    2.0724    0.0000 C   0  0  0  0  0  0  0  0  0  0  0  0
   10.3312   -0.9276    0.0000 C   0  0  0  0  0  0  0  0  0  0  0  0
   11.1972    1.5724    0.0000 C   0  0  0  0  0  0  0  0  0  0  0  0
   10.3151    3.1140    0.0000 C   0  0  0  0  0  0  0  0  0  0  0  0
   12.1072    2.0793    0.0000 C   0  0  0  0  0  0  0  0  0  0  0  0
   11.1972   -1.4276    0.0000 C   0  0  0  0  0  0  0  0  0  0  0  0
    9.4651   -1.4276    0.0000 C   0  0  0  0  0  0  0  0  0  0  0  0
   11.2131    3.6417    0.0000 C   0  0  0  0  0  0  0  0  0  0  0  0
   12.1152    3.1209    0.0000 C   0  0  0  0  0  0  0  0  0  0  0  0
   11.1972   -2.4276    0.0000 C   0  0  0  0  0  0  0  0  0  0  0  0
    9.4651   -2.4276    0.0000 C   0  0  0  0  0  0  0  0  0  0  0  0
   10.3312   -2.9276    0.0000 C   0  0  0  0  0  0  0  0  0  0  0  0
    7.4040   -0.2376    0.0000 H   0  0  0  0  0  0  0  0  0  0  0  0
    6.0010   -0.0475    0.0000 H   0  0  0  0  0  0  0  0  0  0  0  0
    5.4641    1.2624    0.0000 H   0  0  0  0  0  0  0  0  0  0  0  0
    6.5380   -1.7376    0.0000 H   0  0  0  0  0  0  0  0  0  0  0  0
    6.0010   -3.0476    0.0000 H   0  0  0  0  0  0  0  0  0  0  0  0
    8.2700    0.8824    0.0000 H   0  0  0  0  0  0  0  0  0  0  0  0
    7.4040    2.3824    0.0000 H   0  0  0  0  0  0  0  0  0  0  0  0
    4.5981   -3.2376    0.0000 H   0  0  0  0  0  0  0  0  0  0  0  0
    3.7320   -2.1176    0.0000 H   0  0  0  0  0  0  0  0  0  0  0  0
    4.2690   -0.8076    0.0000 H   0  0  0  0  0  0  0  0  0  0  0  0
    7.4776    2.9648    0.0000 H   0  0  0  0  0  0  0  0  0  0  0  0
    7.0791    3.6551    0.0000 H   0  0  0  0  0  0  0  0  0  0  0  0
    3.8015   -0.4526    0.0000 H   0  0  0  0  0  0  0  0  0  0  0  0
    3.0044   -0.4526    0.0000 H   0  0  0  0  0  0  0  0  0  0  0  0
    4.5981    0.3824    0.0000 H   0  0  0  0  0  0  0  0  0  0  0  0
    5.1350    2.6924    0.0000 H   0  0  0  0  0  0  0  0  0  0  0  0
    6.8671   -3.5476    0.0000 H   0  0  0  0  0  0  0  0  0  0  0  0
    4.5981   -4.2376    0.0000 H   0  0  0  0  0  0  0  0  0  0  0  0
    3.4030   -3.5476    0.0000 H   0  0  0  0  0  0  0  0  0  0  0  0
    6.0010    4.1924    0.0000 H   0  0  0  0  0  0  0  0  0  0  0  0
    2.0000   -1.1176    0.0000 H   0  0  0  0  0  0  0  0  0  0  0  0
    8.9282    1.8824    0.0000 H   0  0  0  0  0  0  0  0  0  0  0  0
   12.6405    1.7631    0.0000 H   0  0  0  0  0  0  0  0  0  0  0  0
   11.7341   -1.1176    0.0000 H   0  0  0  0  0  0  0  0  0  0  0  0
    8.9282   -1.1176    0.0000 H   0  0  0  0  0  0  0  0  0  0  0  0
   11.2108    4.2617    0.0000 H   0  0  0  0  0  0  0  0  0  0  0  0
    8.9282   -2.7376    0.0000 H   0  0  0  0  0  0  0  0  0  0  0  0
    9.4362    4.2239    0.0000 H   0  0  0  0  0  0  0  0  0  0  0  0
   12.9856    4.2376    0.0000 H   0  0  0  0  0  0  0  0  0  0  0  0
   12.6002   -2.6176    0.0000 H   0  0  0  0  0  0  0  0  0  0  0  0
   10.8681   -4.2376    0.0000 H   0  0  0  0  0  0  0  0  0  0  0  0
  1 17  1  0  0  0  0
  1 20  1  0  0  0  0
  2 22  1  0  0  0  0
  2 23  1  0  0  0  0
  3 20  1  0  0  0  0
  3 26  1  0  0  0  0
  4 18  1  0  0  0  0
  4 58  1  0  0  0  0
  5 22  1  0  0  0  0
  5 29  1  0  0  0  0
  6 19  1  0  0  0  0
  6 59  1  0  0  0  0
  7 21  1  0  0  0  0
  7 60  1  0  0  0  0
  8 24  1  0  0  0  0
  8 61  1  0  0  0  0
  9 25  1  0  0  0  0
  9 62  1  0  0  0  0
 10 27  1  0  0  0  0
 10 63  1  0  0  0  0
 11 28  1  0  0  0  0
 11 64  1  0  0  0  0
 12 30  2  0  0  0  0
 12 34  1  0  0  0  0
 13 35  1  0  0  0  0
 13 71  1  0  0  0  0
 14 40  1  0  0  0  0
 14 72  1  0  0  0  0
 15 41  1  0  0  0  0
 15 73  1  0  0  0  0
 16 43  1  0  0  0  0
 16 74  1  0  0  0  0
 17 18  1  0  0  0  0
 17 22  1  0  0  0  0
 17 44  1  0  0  0  0
 18 19  1  0  0  0  0
 18 45  1  0  0  0  0
 19 23  1  0  0  0  0
 19 46  1  0  0  0  0
 20 21  1  0  0  0  0
 20 47  1  0  0  0  0
 21 24  1  0  0  0  0
 21 48  1  0  0  0  0
 22 49  1  0  0  0  0
 23 27  1  0  0  0  0
 23 50  1  0  0  0  0
 24 25  1  0  0  0  0
 24 51  1  0  0  0  0
 25 26  1  0  0  0  0
 25 52  1  0  0  0  0
 26 28  1  0  0  0  0
 26 53  1  0  0  0  0
 27 54  1  0  0  0  0
 27 55  1  0  0  0  0
 28 56  1  0  0  0  0
 28 57  1  0  0  0  0
 29 30  1  0  0  0  0
 29 31  2  0  0  0  0
 30 33  1  0  0  0  0
 31 32  1  0  0  0  0
 31 65  1  0  0  0  0
 32 34  1  0  0  0  0
 32 35  2  0  0  0  0
 33 37  2  0  0  0  0
 33 38  1  0  0  0  0
 34 36  2  0  0  0  0
 35 39  1  0  0  0  0
 36 40  1  0  0  0  0
 36 66  1  0  0  0  0
 37 41  1  0  0  0  0
 37 67  1  0  0  0  0
 38 42  2  0  0  0  0
 38 68  1  0  0  0  0
 39 40  2  0  0  0  0
 39 69  1  0  0  0  0
 41 43  2  0  0  0  0
 42 43  1  0  0  0  0
 42 70  1  0  0  0  0
M  CHG  1  12   1
M  END
>  <PUBCHEM_COMPOUND_CID>
14779569

>  <PUBCHEM_COMPOUND_CANONICALIZED>
1

>  <PUBCHEM_CACTVS_COMPLEXITY>
899

>  <PUBCHEM_CACTVS_HBOND_ACCEPTOR>
15

>  <PUBCHEM_CACTVS_HBOND_DONOR>
11

>  <PUBCHEM_CACTVS_ROTATABLE_BOND>
7

>  <PUBCHEM_CACTVS_SUBSKEYS>
AAADceB4PgAAAAAAAAAAAAAAAAAAAAAAAAA0aJECAAAAAACR9AAAGgAACAAADBSwmAMwDsAABkCIAqBSAAICCAAkIAAIiAFGiMgdNzaGNR6ieWOl4BUPuYfK7PzOIAABCAAIQABAAAIQABCAAAAAAAAAAA==

>  <PUBCHEM_IUPAC_OPENEYE_NAME>
2-[2-[2-(3,4-dihydroxyphenyl)-5,7-dihydroxy-chromenylium-3-yl]oxy-4,5-dihydroxy-6-(hydroxymethyl)tetrahydropyran-3-yl]oxy-6-(hydroxymethyl)tetrahydropyran-3,4,5-triol

>  <PUBCHEM_IUPAC_CAS_NAME>
2-[[2-[[2-(3,4-dihydroxyphenyl)-5,7-dihydroxy-1-benzopyrylium-3-yl]oxy]-4,5-dihydroxy-6-(hydroxymethyl)-3-oxanyl]oxy]-6-(hydroxymethyl)oxane-3,4,5-triol

>  <PUBCHEM_IUPAC_NAME>
2-[2-[2-(3,4-dihydroxyphenyl)-5,7-dihydroxychromenylium-3-yl]oxy-4,5-dihydroxy-6-(hydroxymethyl)oxan-3-yl]oxy-6-(hydroxymethyl)oxane-3,4,5-triol

>  <PUBCHEM_IUPAC_SYSTEMATIC_NAME>
2-[2-[2-[3,4-bis(oxidanyl)phenyl]-5,7-bis(oxidanyl)chromenylium-3-yl]oxy-6-(hydroxymethyl)-4,5-bis(oxidanyl)oxan-3-yl]oxy-6-(hydroxymethyl)oxane-3,4,5-triol

>  <PUBCHEM_IUPAC_TRADITIONAL_NAME>
2-[2-[[2-(3,4-dihydroxyphenyl)-5,7-dihydroxy-1-benzopyrylium-3-yl]oxy]-4,5-dihydroxy-6-methylol-tetrahydropyran-3-yl]oxy-6-methylol-tetrahydropyran-3,4,5-triol

>  <PUBCHEM_IUPAC_INCHI>
InChI=1S/C27H30O16/c28-7-17-19(34)21(36)23(38)26(41-17)43-25-22(37)20(35)18(8-29)42-27(25)40-16-6-11-13(32)4-10(30)5-15(11)39-24(16)9-1-2-12(31)14(33)3-9/h1-6,17-23,25-29,34-38H,7-8H2,(H3-,30,31,32,33)/p+1

>  <PUBCHEM_IUPAC_INCHIKEY>
SXYMMDGPXYVCER-UHFFFAOYSA-O

>  <PUBCHEM_EXACT_MASS>
611.161

>  <PUBCHEM_MOLECULAR_FORMULA>
C27H31O16+

>  <PUBCHEM_MOLECULAR_WEIGHT>
611.529

>  <PUBCHEM_OPENEYE_CAN_SMILES>
C1=CC(=C(C=C1C2=C(C=C3C(=CC(=CC3=[O+]2)O)O)OC4C(C(C(C(O4)CO)O)O)OC5C(C(C(C(O5)CO)O)O)O)O)O

>  <PUBCHEM_OPENEYE_ISO_SMILES>
C1=CC(=C(C=C1C2=C(C=C3C(=CC(=CC3=[O+]2)O)O)OC4C(C(C(C(O4)CO)O)O)OC5C(C(C(C(O5)CO)O)O)O)O)O

>  <PUBCHEM_CACTVS_TPSA>
260

>  <PUBCHEM_MONOISOTOPIC_WEIGHT>
611.161

>  <PUBCHEM_TOTAL_CHARGE>
1

>  <PUBCHEM_HEAVY_ATOM_COUNT>
43

>  <PUBCHEM_ATOM_DEF_STEREO_COUNT>
0

>  <PUBCHEM_ATOM_UDEF_STEREO_COUNT>
10

>  <PUBCHEM_BOND_DEF_STEREO_COUNT>
0

>  <PUBCHEM_BOND_UDEF_STEREO_COUNT>
0

>  <PUBCHEM_ISOTOPIC_ATOM_COUNT>
0

>  <PUBCHEM_COMPONENT_COUNT>
1

>  <PUBCHEM_CACTVS_TAUTO_COUNT>
171

>  <PUBCHEM_COORDINATE_TYPE>
1
5
255

>  <PUBCHEM_BONDANNOTATIONS>
17  1  3
20  1  3
12  30  8
12  34  8
23  27  3
26  28  3
29  30  8
29  31  8
31  32  8
32  34  8
32  35  8
33  37  8
33  38  8
34  36  8
35  39  8
36  40  8
37  41  8
38  42  8
39  40  8
18  4  3
41  43  8
42  43  8
22  5  3
19  6  3
21  7  3
24  8  3
25  9  3

$$$$
