14833724
 OpenBabel06101807152D

 52 56  0  0  1  0  0  0  0  0999 V2000
    5.6914   -1.3650    0.0000 O   0  0  0  0  0  0  0  0  0  0  0  0
    6.5434    3.0182    0.0000 O   0  0  0  0  0  0  0  0  0  0  0  0
    2.6198   -3.0294    0.0000 O   0  0  0  0  0  0  0  0  0  0  0  0
    7.3668   -1.5457    0.0000 O   0  0  0  0  0  0  0  0  0  0  0  0
    5.3245   -3.2009    0.0000 O   0  0  0  0  0  0  0  0  0  0  0  0
    6.5143   -2.8186    0.0000 O   0  0  0  0  0  0  0  0  0  0  0  0
    5.8209   -0.1474    0.0000 C   0  0  3  0  0  0  0  0  0  0  0  0
    4.2348   -0.4338    0.0000 C   0  0  3  0  0  0  0  0  0  0  0  0
    4.9199    0.2865    0.0000 C   0  0  3  0  0  0  0  0  0  0  0  0
    4.7066   -1.3088    0.0000 C   0  0  3  0  0  0  0  0  0  0  0  0
    5.6849   -1.1321    0.0000 C   0  0  3  0  0  0  0  0  0  0  0  0
    4.1767   -2.1984    0.0000 C   0  0  3  0  0  0  0  0  0  0  0  0
    5.7140    1.0294    0.0000 C   0  0  0  0  0  0  0  0  0  0  0  0
    6.3209    2.0433    0.0000 C   0  0  3  0  0  0  0  0  0  0  0  0
    6.7218    0.2865    0.0000 C   0  0  0  0  0  0  0  0  0  0  0  0
    4.6974    1.2614    0.0000 C   0  0  0  0  0  0  0  0  0  0  0  0
    3.2003   -0.3878    0.0000 C   0  0  0  0  0  0  0  0  0  0  0  0
    5.2281   -0.4848    0.0000 C   0  0  0  0  0  0  0  0  0  0  0  0
    5.3209    2.0433    0.0000 C   0  0  0  0  0  0  0  0  0  0  0  0
    3.1415   -2.1763    0.0000 C   0  0  3  0  0  0  0  0  0  0  0  0
    6.9444    1.2614    0.0000 C   0  0  0  0  0  0  0  0  0  0  0  0
    2.6500   -1.2649    0.0000 C   0  0  0  0  0  0  0  0  0  0  0  0
    5.1712   -2.2128    0.0000 C   0  0  0  0  0  0  0  0  0  0  0  0
    6.4065   -1.8244    0.0000 C   0  0  0  0  0  0  0  0  0  0  0  0
    4.1588   -3.1982    0.0000 C   0  0  0  0  0  0  0  0  0  0  0  0
    7.9193    1.4840    0.0000 C   0  0  0  0  0  0  0  0  0  0  0  0
    5.4046    0.6731    0.0000 H   0  0  0  0  0  0  0  0  0  0  0  0
    5.0598   -1.8183    0.0000 H   0  0  0  0  0  0  0  0  0  0  0  0
    6.2705   -0.9286    0.0000 H   0  0  0  0  0  0  0  0  0  0  0  0
    5.3062    1.4964    0.0000 H   0  0  0  0  0  0  0  0  0  0  0  0
    5.1440    0.7856    0.0000 H   0  0  0  0  0  0  0  0  0  0  0  0
    6.8598   -0.3180    0.0000 H   0  0  0  0  0  0  0  0  0  0  0  0
    7.3418    0.2865    0.0000 H   0  0  0  0  0  0  0  0  0  0  0  0
    4.3108    1.7462    0.0000 H   0  0  0  0  0  0  0  0  0  0  0  0
    4.1388    0.9924    0.0000 H   0  0  0  0  0  0  0  0  0  0  0  0
    3.3335    0.2178    0.0000 H   0  0  0  0  0  0  0  0  0  0  0  0
    2.6265   -0.1530    0.0000 H   0  0  0  0  0  0  0  0  0  0  0  0
    5.8193   -0.2981    0.0000 H   0  0  0  0  0  0  0  0  0  0  0  0
    5.1494    0.1301    0.0000 H   0  0  0  0  0  0  0  0  0  0  0  0
    5.4588    2.6477    0.0000 H   0  0  0  0  0  0  0  0  0  0  0  0
    4.7623    2.3123    0.0000 H   0  0  0  0  0  0  0  0  0  0  0  0
    2.5217   -2.1594    0.0000 H   0  0  0  0  0  0  0  0  0  0  0  0
    2.1890   -0.8503    0.0000 H   0  0  0  0  0  0  0  0  0  0  0  0
    2.1627   -1.6482    0.0000 H   0  0  0  0  0  0  0  0  0  0  0  0
    3.5389   -3.1871    0.0000 H   0  0  0  0  0  0  0  0  0  0  0  0
    4.1477   -3.8181    0.0000 H   0  0  0  0  0  0  0  0  0  0  0  0
    4.7787   -3.2093    0.0000 H   0  0  0  0  0  0  0  0  0  0  0  0
    7.1358    3.2009    0.0000 H   0  0  0  0  0  0  0  0  0  0  0  0
    8.3410    1.0295    0.0000 H   0  0  0  0  0  0  0  0  0  0  0  0
    8.1020    2.0764    0.0000 H   0  0  0  0  0  0  0  0  0  0  0  0
    2.0000   -3.0138    0.0000 H   0  0  0  0  0  0  0  0  0  0  0  0
    7.8142   -1.9749    0.0000 H   0  0  0  0  0  0  0  0  0  0  0  0
  1 18  1  0  0  0  0
  1 23  1  0  0  0  0
  2 14  1  0  0  0  0
  2 48  1  0  0  0  0
  3 20  1  0  0  0  0
  3 51  1  0  0  0  0
  4 24  1  0  0  0  0
  4 52  1  0  0  0  0
  5 23  2  0  0  0  0
  6 24  2  0  0  0  0
  7  9  1  0  0  0  0
  7 11  1  0  0  0  0
  7 13  1  0  0  0  0
  7 15  1  0  0  0  0
  8  9  1  0  0  0  0
  8 10  1  0  0  0  0
  8 17  1  0  0  0  0
  8 18  1  0  0  0  0
  9 16  1  0  0  0  0
  9 27  1  0  0  0  0
 10 11  1  0  0  0  0
 10 12  1  0  0  0  0
 10 28  1  0  0  0  0
 11 24  1  0  0  0  0
 11 29  1  0  0  0  0
 12 20  1  0  0  0  0
 12 23  1  0  0  0  0
 12 25  1  0  0  0  0
 13 14  1  0  0  0  0
 13 30  1  0  0  0  0
 13 31  1  0  0  0  0
 14 19  1  0  0  0  0
 14 21  1  0  0  0  0
 15 21  1  0  0  0  0
 15 32  1  0  0  0  0
 15 33  1  0  0  0  0
 16 19  1  0  0  0  0
 16 34  1  0  0  0  0
 16 35  1  0  0  0  0
 17 22  1  0  0  0  0
 17 36  1  0  0  0  0
 17 37  1  0  0  0  0
 18 38  1  0  0  0  0
 18 39  1  0  0  0  0
 19 40  1  0  0  0  0
 19 41  1  0  0  0  0
 20 22  1  0  0  0  0
 20 42  1  0  0  0  0
 21 26  2  0  0  0  0
 22 43  1  0  0  0  0
 22 44  1  0  0  0  0
 25 45  1  0  0  0  0
 25 46  1  0  0  0  0
 25 47  1  0  0  0  0
 26 49  1  0  0  0  0
 26 50  1  0  0  0  0
M  END
>  <PUBCHEM_COMPOUND_CID>
14833724

>  <PUBCHEM_COMPOUND_CANONICALIZED>
1

>  <PUBCHEM_CACTVS_COMPLEXITY>
747

>  <PUBCHEM_CACTVS_HBOND_ACCEPTOR>
6

>  <PUBCHEM_CACTVS_HBOND_DONOR>
3

>  <PUBCHEM_CACTVS_ROTATABLE_BOND>
1

>  <PUBCHEM_CACTVS_SUBSKEYS>
AAADceB4OAAAAAAAAAAAAAAAAAAAAYMAAAA0YIAABgASAGjAAAAAGgAACAAAD1SggAICCAAABgCIAgDSCAAAAAAgAAAAAAEAAAgAFBYAAQACQAAFoAAAEAGI7vzPgAAAAAAAAADAAAYAADAAAYAACAAAAA==

>  <PUBCHEM_IUPAC_INCHI>
InChI=1S/C20H26O6/c1-10-7-19-8-20(10,25)6-3-11(19)18-5-4-12(21)17(2,16(24)26-9-18)14(18)13(19)15(22)23/h11-14,21,25H,1,3-9H2,2H3,(H,22,23)

>  <PUBCHEM_IUPAC_INCHIKEY>
GAQSCLQIDHHPEE-UHFFFAOYSA-N

>  <PUBCHEM_XLOGP3_AA>
0.5

>  <PUBCHEM_EXACT_MASS>
362.173

>  <PUBCHEM_MOLECULAR_FORMULA>
C20H26O6

>  <PUBCHEM_MOLECULAR_WEIGHT>
362.422

>  <PUBCHEM_OPENEYE_CAN_SMILES>
CC12C(CCC3(C1C(C45C3CCC(C4)(C(=C)C5)O)C(=O)O)COC2=O)O

>  <PUBCHEM_OPENEYE_ISO_SMILES>
CC12C(CCC3(C1C(C45C3CCC(C4)(C(=C)C5)O)C(=O)O)COC2=O)O

>  <PUBCHEM_CACTVS_TPSA>
104

>  <PUBCHEM_MONOISOTOPIC_WEIGHT>
362.173

>  <PUBCHEM_TOTAL_CHARGE>
0

>  <PUBCHEM_HEAVY_ATOM_COUNT>
26

>  <PUBCHEM_ATOM_DEF_STEREO_COUNT>
0

>  <PUBCHEM_ATOM_UDEF_STEREO_COUNT>
8

>  <PUBCHEM_BOND_DEF_STEREO_COUNT>
0

>  <PUBCHEM_BOND_UDEF_STEREO_COUNT>
0

>  <PUBCHEM_ISOTOPIC_ATOM_COUNT>
0

>  <PUBCHEM_COMPONENT_COUNT>
1

>  <PUBCHEM_CACTVS_TAUTO_COUNT>
1

>  <PUBCHEM_COORDINATE_TYPE>
1
5
255

>  <PUBCHEM_BONDANNOTATIONS>
10  11  3
11  24  3
12  25  3
14  2  3
20  3  3
7  13  3
8  18  3
9  16  3

$$$$
