14841178
 OpenBabel06101807152D

 66 72  0  0  1  0  0  0  0  0999 V2000
    9.1834    0.0315    0.0000 O   0  0  0  0  0  0  0  0  0  0  0  0
   12.6483    0.1450    0.0000 O   0  0  0  0  0  0  0  0  0  0  0  0
    9.9801    2.1913    0.0000 O   0  0  0  0  0  0  0  0  0  0  0  0
    6.9125   -2.8935    0.0000 O   0  0  0  0  0  0  0  0  0  0  0  0
   10.5157   -3.0786    0.0000 O   0  0  0  0  0  0  0  0  0  0  0  0
    5.2745   -0.6363    0.0000 O   0  0  0  0  0  0  0  0  0  0  0  0
   11.5922   -3.0694    0.0000 O   0  0  0  0  0  0  0  0  0  0  0  0
   15.0906   -2.5292    0.0000 O   0  0  0  0  0  0  0  0  0  0  0  0
   13.6662    2.7921    0.0000 O   0  0  0  0  0  0  0  0  0  0  0  0
   12.2520    4.2063    0.0000 O   0  0  0  0  0  0  0  0  0  0  0  0
    2.5583   -2.0318    0.0000 O   0  0  0  0  0  0  0  0  0  0  0  0
    2.4111   -4.0264    0.0000 O   0  0  0  0  0  0  0  0  0  0  0  0
   10.9579   -0.6233    0.0000 C   0  0  3  0  0  0  0  0  0  0  0  0
   10.4801    1.3252    0.0000 C   0  0  3  0  0  0  0  0  0  0  0  0
   11.2167    0.3426    0.0000 C   0  0  3  0  0  0  0  0  0  0  0  0
    9.7368   -1.4890    0.0000 C   0  0  0  0  0  0  0  0  0  0  0  0
    8.9078   -0.9298    0.0000 C   0  0  0  0  0  0  0  0  0  0  0  0
   12.2295   -1.4179    0.0000 C   0  0  0  0  0  0  0  0  0  0  0  0
    7.9647   -1.3719    0.0000 C   0  0  0  0  0  0  0  0  0  0  0  0
   13.0067   -0.7886    0.0000 C   0  0  0  0  0  0  0  0  0  0  0  0
   11.4755    1.3086    0.0000 C   0  0  0  0  0  0  0  0  0  0  0  0
    7.0794   -0.7445    0.0000 C   0  0  0  0  0  0  0  0  0  0  0  0
    9.6802   -2.5290    0.0000 C   0  0  0  0  0  0  0  0  0  0  0  0
    7.8840   -2.4104    0.0000 C   0  0  0  0  0  0  0  0  0  0  0  0
    6.0970   -1.2051    0.0000 C   0  0  3  0  0  0  0  0  0  0  0  0
    6.0130   -2.2868    0.0000 C   0  0  3  0  0  0  0  0  0  0  0  0
   12.3766   -2.4491    0.0000 C   0  0  0  0  0  0  0  0  0  0  0  0
    8.7476   -2.9929    0.0000 C   0  0  0  0  0  0  0  0  0  0  0  0
   13.9848   -1.1469    0.0000 C   0  0  0  0  0  0  0  0  0  0  0  0
   12.4414    1.5674    0.0000 C   0  0  0  0  0  0  0  0  0  0  0  0
   10.7684    2.0157    0.0000 C   0  0  0  0  0  0  0  0  0  0  0  0
   13.3462   -2.8299    0.0000 C   0  0  0  0  0  0  0  0  0  0  0  0
    5.1125   -2.7217    0.0000 C   0  0  0  0  0  0  0  0  0  0  0  0
   14.1557   -2.1744    0.0000 C   0  0  0  0  0  0  0  0  0  0  0  0
   12.7002    2.5333    0.0000 C   0  0  0  0  0  0  0  0  0  0  0  0
   11.0272    2.9816    0.0000 C   0  0  0  0  0  0  0  0  0  0  0  0
   11.9931    3.2404    0.0000 C   0  0  0  0  0  0  0  0  0  0  0  0
    4.2857   -2.1593    0.0000 C   0  0  0  0  0  0  0  0  0  0  0  0
    5.0389   -3.7190    0.0000 C   0  0  0  0  0  0  0  0  0  0  0  0
    3.3852   -2.5942    0.0000 C   0  0  0  0  0  0  0  0  0  0  0  0
    4.1384   -4.1539    0.0000 C   0  0  0  0  0  0  0  0  0  0  0  0
    3.3116   -3.5915    0.0000 C   0  0  0  0  0  0  0  0  0  0  0  0
   11.4602   -0.2598    0.0000 H   0  0  0  0  0  0  0  0  0  0  0  0
   10.9975    1.6668    0.0000 H   0  0  0  0  0  0  0  0  0  0  0  0
    7.5192   -0.3075    0.0000 H   0  0  0  0  0  0  0  0  0  0  0  0
    6.7241   -0.2365    0.0000 H   0  0  0  0  0  0  0  0  0  0  0  0
    6.1486   -0.5872    0.0000 H   0  0  0  0  0  0  0  0  0  0  0  0
    5.9686   -2.9052    0.0000 H   0  0  0  0  0  0  0  0  0  0  0  0
    8.7067   -3.6115    0.0000 H   0  0  0  0  0  0  0  0  0  0  0  0
    9.3601    2.1913    0.0000 H   0  0  0  0  0  0  0  0  0  0  0  0
   14.4621   -0.7511    0.0000 H   0  0  0  0  0  0  0  0  0  0  0  0
   12.8798    1.1290    0.0000 H   0  0  0  0  0  0  0  0  0  0  0  0
   10.1695    1.8552    0.0000 H   0  0  0  0  0  0  0  0  0  0  0  0
   13.4408   -3.4426    0.0000 H   0  0  0  0  0  0  0  0  0  0  0  0
   10.4796   -3.6976    0.0000 H   0  0  0  0  0  0  0  0  0  0  0  0
    5.3249   -0.0184    0.0000 H   0  0  0  0  0  0  0  0  0  0  0  0
   10.5888    3.4200    0.0000 H   0  0  0  0  0  0  0  0  0  0  0  0
   11.6821   -3.6829    0.0000 H   0  0  0  0  0  0  0  0  0  0  0  0
    4.3313   -1.5410    0.0000 H   0  0  0  0  0  0  0  0  0  0  0  0
    5.5516   -4.0677    0.0000 H   0  0  0  0  0  0  0  0  0  0  0  0
   15.1900   -3.1411    0.0000 H   0  0  0  0  0  0  0  0  0  0  0  0
    4.0928   -4.7722    0.0000 H   0  0  0  0  0  0  0  0  0  0  0  0
   13.8266    3.3910    0.0000 H   0  0  0  0  0  0  0  0  0  0  0  0
   11.8136    4.6447    0.0000 H   0  0  0  0  0  0  0  0  0  0  0  0
    2.0000   -2.3015    0.0000 H   0  0  0  0  0  0  0  0  0  0  0  0
    2.3655   -4.6447    0.0000 H   0  0  0  0  0  0  0  0  0  0  0  0
  1 15  1  0  0  0  0
  1 17  1  0  0  0  0
  2 15  1  0  0  0  0
  2 20  1  0  0  0  0
  3 14  1  0  0  0  0
  3 50  1  0  0  0  0
  4 24  1  0  0  0  0
  4 26  1  0  0  0  0
  5 23  1  0  0  0  0
  5 55  1  0  0  0  0
  6 25  1  0  0  0  0
  6 56  1  0  0  0  0
  7 27  1  0  0  0  0
  7 58  1  0  0  0  0
  8 34  1  0  0  0  0
  8 61  1  0  0  0  0
  9 35  1  0  0  0  0
  9 63  1  0  0  0  0
 10 37  1  0  0  0  0
 10 64  1  0  0  0  0
 11 40  1  0  0  0  0
 11 65  1  0  0  0  0
 12 42  1  0  0  0  0
 12 66  1  0  0  0  0
 13 14  1  0  0  0  0
 13 16  1  0  0  0  0
 13 18  1  0  0  0  0
 13 43  1  0  0  0  0
 14 15  1  0  0  0  0
 14 44  1  0  0  0  0
 15 21  1  0  0  0  0
 16 17  2  0  0  0  0
 16 23  1  0  0  0  0
 17 19  1  0  0  0  0
 18 20  1  0  0  0  0
 18 27  2  0  0  0  0
 19 22  1  0  0  0  0
 19 24  2  0  0  0  0
 20 29  2  0  0  0  0
 21 30  2  0  0  0  0
 21 31  1  0  0  0  0
 22 25  1  0  0  0  0
 22 45  1  0  0  0  0
 22 46  1  0  0  0  0
 23 28  2  0  0  0  0
 24 28  1  0  0  0  0
 25 26  1  0  0  0  0
 25 47  1  0  0  0  0
 26 33  1  0  0  0  0
 26 48  1  0  0  0  0
 27 32  1  0  0  0  0
 28 49  1  0  0  0  0
 29 34  1  0  0  0  0
 29 51  1  0  0  0  0
 30 35  1  0  0  0  0
 30 52  1  0  0  0  0
 31 36  2  0  0  0  0
 31 53  1  0  0  0  0
 32 34  2  0  0  0  0
 32 54  1  0  0  0  0
 33 38  2  0  0  0  0
 33 39  1  0  0  0  0
 35 37  2  0  0  0  0
 36 37  1  0  0  0  0
 36 57  1  0  0  0  0
 38 40  1  0  0  0  0
 38 59  1  0  0  0  0
 39 41  2  0  0  0  0
 39 60  1  0  0  0  0
 40 42  2  0  0  0  0
 41 42  1  0  0  0  0
 41 62  1  0  0  0  0
M  END
>  <PUBCHEM_COMPOUND_CID>
14841178

>  <PUBCHEM_COMPOUND_CANONICALIZED>
1

>  <PUBCHEM_CACTVS_COMPLEXITY>
986

>  <PUBCHEM_CACTVS_HBOND_ACCEPTOR>
12

>  <PUBCHEM_CACTVS_HBOND_DONOR>
9

>  <PUBCHEM_CACTVS_ROTATABLE_BOND>
2

>  <PUBCHEM_CACTVS_SUBSKEYS>
AAADceB4PAAAAAAAAAAAAAAAAAAAAAAAAAA0aNGCAAASAACRVAAAGgAACAAADRSgmAIwDoAABgCAAiBCAAACCAAgIAAIiAAGiIgdNyKGMRqieCGlwBUPuAfA4PwOoAADCAAIQABAAAYQABCAAAAAAAAAAA==

>  <PUBCHEM_IUPAC_INCHI>
InChI=1S/C30H24O12/c31-13-7-19(36)24-23(8-13)41-30(12-2-4-16(33)18(35)6-12)29(39)26(24)25-20(37)10-22-14(28(25)42-30)9-21(38)27(40-22)11-1-3-15(32)17(34)5-11/h1-8,10,21,26-27,29,31-39H,9H2

>  <PUBCHEM_IUPAC_INCHIKEY>
SHYPVJZSIOEHJY-UHFFFAOYSA-N

>  <PUBCHEM_XLOGP3_AA>
2.4

>  <PUBCHEM_EXACT_MASS>
576.127

>  <PUBCHEM_MOLECULAR_FORMULA>
C30H24O12

>  <PUBCHEM_MOLECULAR_WEIGHT>
576.51

>  <PUBCHEM_OPENEYE_CAN_SMILES>
C1C(C(OC2=CC(=C3C4C(C(OC5=CC(=CC(=C45)O)O)(OC3=C21)C6=CC(=C(C=C6)O)O)O)O)C7=CC(=C(C=C7)O)O)O

>  <PUBCHEM_OPENEYE_ISO_SMILES>
C1C(C(OC2=CC(=C3C4C(C(OC5=CC(=CC(=C45)O)O)(OC3=C21)C6=CC(=C(C=C6)O)O)O)O)C7=CC(=C(C=C7)O)O)O

>  <PUBCHEM_CACTVS_TPSA>
210

>  <PUBCHEM_MONOISOTOPIC_WEIGHT>
576.127

>  <PUBCHEM_TOTAL_CHARGE>
0

>  <PUBCHEM_HEAVY_ATOM_COUNT>
42

>  <PUBCHEM_ATOM_DEF_STEREO_COUNT>
0

>  <PUBCHEM_ATOM_UDEF_STEREO_COUNT>
5

>  <PUBCHEM_BOND_DEF_STEREO_COUNT>
0

>  <PUBCHEM_BOND_UDEF_STEREO_COUNT>
0

>  <PUBCHEM_ISOTOPIC_ATOM_COUNT>
0

>  <PUBCHEM_COMPONENT_COUNT>
1

>  <PUBCHEM_CACTVS_TAUTO_COUNT>
918

>  <PUBCHEM_COORDINATE_TYPE>
1
5
255

>  <PUBCHEM_BONDANNOTATIONS>
13  18  3
15  21  3
16  17  8
16  23  8
17  19  8
18  20  8
18  27  8
19  24  8
20  29  8
21  30  8
21  31  8
23  28  8
24  28  8
26  33  3
27  32  8
29  34  8
14  3  3
30  35  8
31  36  8
32  34  8
33  38  8
33  39  8
35  37  8
36  37  8
38  40  8
39  41  8
40  42  8
41  42  8
25  6  3

$$$$
