14892669
 OpenBabel06101807152D

 40 43  0  0  0  0  0  0  0  0999 V2000
    4.3771   -0.6371    0.0000 O   0  0  0  0  0  0  0  0  0  0  0  0
    2.8804   -1.5501    0.0000 O   0  0  0  0  0  0  0  0  0  0  0  0
    3.4660    1.0271    0.0000 O   0  0  0  0  0  0  0  0  0  0  0  0
    4.4764    2.8088    0.0000 O   0  0  0  0  0  0  0  0  0  0  0  0
    7.5990   -0.4146    0.0000 O   0  0  0  0  0  0  0  0  0  0  0  0
    7.2711   -2.1855    0.0000 N   0  0  0  0  0  0  0  0  0  0  0  0
    5.5006   -2.0460    0.0000 C   0  0  0  0  0  0  0  0  0  0  0  0
    4.5996   -1.6121    0.0000 C   0  0  0  0  0  0  0  0  0  0  0  0
    6.4015   -1.6121    0.0000 C   0  0  0  0  0  0  0  0  0  0  0  0
    5.4067   -3.0833    0.0000 C   0  0  0  0  0  0  0  0  0  0  0  0
    6.0006    0.1447    0.0000 C   0  0  0  0  0  0  0  0  0  0  0  0
    5.0006    0.1447    0.0000 C   0  0  0  0  0  0  0  0  0  0  0  0
    6.6241   -0.6371    0.0000 C   0  0  0  0  0  0  0  0  0  0  0  0
    3.7313   -2.0754    0.0000 C   0  0  0  0  0  0  0  0  0  0  0  0
    4.4659    1.0386    0.0000 C   0  0  0  0  0  0  0  0  0  0  0  0
    4.5494   -3.5667    0.0000 C   0  0  0  0  0  0  0  0  0  0  0  0
    6.5352    1.0386    0.0000 C   0  0  0  0  0  0  0  0  0  0  0  0
    3.7060   -3.0593    0.0000 C   0  0  0  0  0  0  0  0  0  0  0  0
    6.2628   -3.6767    0.0000 C   0  0  0  0  0  0  0  0  0  0  0  0
    4.9798    1.9447    0.0000 C   0  0  0  0  0  0  0  0  0  0  0  0
    6.0214    1.9447    0.0000 C   0  0  0  0  0  0  0  0  0  0  0  0
    7.2013   -3.2248    0.0000 C   0  0  0  0  0  0  0  0  0  0  0  0
    2.0000   -2.0242    0.0000 C   0  0  0  0  0  0  0  0  0  0  0  0
    2.9560    1.8872    0.0000 C   0  0  0  0  0  0  0  0  0  0  0  0
    4.9731    3.6767    0.0000 C   0  0  0  0  0  0  0  0  0  0  0  0
    4.5406   -4.1866    0.0000 H   0  0  0  0  0  0  0  0  0  0  0  0
    7.1552    1.0315    0.0000 H   0  0  0  0  0  0  0  0  0  0  0  0
    3.1624   -3.3575    0.0000 H   0  0  0  0  0  0  0  0  0  0  0  0
    6.2141   -4.2948    0.0000 H   0  0  0  0  0  0  0  0  0  0  0  0
    6.3334    2.4804    0.0000 H   0  0  0  0  0  0  0  0  0  0  0  0
    7.7149   -3.5721    0.0000 H   0  0  0  0  0  0  0  0  0  0  0  0
    1.7060   -1.4784    0.0000 H   0  0  0  0  0  0  0  0  0  0  0  0
    1.4541   -2.3182    0.0000 H   0  0  0  0  0  0  0  0  0  0  0  0
    2.2940   -2.5701    0.0000 H   0  0  0  0  0  0  0  0  0  0  0  0
    3.4893    2.2034    0.0000 H   0  0  0  0  0  0  0  0  0  0  0  0
    2.6398    2.4206    0.0000 H   0  0  0  0  0  0  0  0  0  0  0  0
    2.4227    1.5711    0.0000 H   0  0  0  0  0  0  0  0  0  0  0  0
    5.5112    3.3688    0.0000 H   0  0  0  0  0  0  0  0  0  0  0  0
    5.2810    4.2149    0.0000 H   0  0  0  0  0  0  0  0  0  0  0  0
    4.4350    3.9847    0.0000 H   0  0  0  0  0  0  0  0  0  0  0  0
  1  8  1  0  0  0  0
  1 12  1  0  0  0  0
  2 14  1  0  0  0  0
  2 23  1  0  0  0  0
  3 15  1  0  0  0  0
  3 24  1  0  0  0  0
  4 20  1  0  0  0  0
  4 25  1  0  0  0  0
  5 13  2  0  0  0  0
  6  9  2  0  0  0  0
  6 22  1  0  0  0  0
  7  8  1  0  0  0  0
  7  9  1  0  0  0  0
  7 10  2  0  0  0  0
  8 14  2  0  0  0  0
  9 13  1  0  0  0  0
 10 16  1  0  0  0  0
 10 19  1  0  0  0  0
 11 12  2  0  0  0  0
 11 13  1  0  0  0  0
 11 17  1  0  0  0  0
 12 15  1  0  0  0  0
 14 18  1  0  0  0  0
 15 20  2  0  0  0  0
 16 18  2  0  0  0  0
 16 26  1  0  0  0  0
 17 21  2  0  0  0  0
 17 27  1  0  0  0  0
 18 28  1  0  0  0  0
 19 22  2  0  0  0  0
 19 29  1  0  0  0  0
 20 21  1  0  0  0  0
 21 30  1  0  0  0  0
 22 31  1  0  0  0  0
 23 32  1  0  0  0  0
 23 33  1  0  0  0  0
 23 34  1  0  0  0  0
 24 35  1  0  0  0  0
 24 36  1  0  0  0  0
 24 37  1  0  0  0  0
 25 38  1  0  0  0  0
 25 39  1  0  0  0  0
 25 40  1  0  0  0  0
M  END
>  <PUBCHEM_COMPOUND_CID>
14892669

>  <PUBCHEM_COMPOUND_CANONICALIZED>
1

>  <PUBCHEM_CACTVS_COMPLEXITY>
500

>  <PUBCHEM_CACTVS_HBOND_ACCEPTOR>
6

>  <PUBCHEM_CACTVS_HBOND_DONOR>
0

>  <PUBCHEM_CACTVS_ROTATABLE_BOND>
3

>  <PUBCHEM_CACTVS_SUBSKEYS>
AAADccB6OAAAAAAAAAAAAAAAAAAAAAAAAAA8YIAABIAAAACx9AAAHgAAAAAADAzBngY+htIIFACoA7R3RACCiCA3IiAI2CG+7NgNJ3bEtbuGOWrn4B3K6Ye6/P/OoAABCAAYQABAAAIQADCAAAAAAAAAAA==

>  <PUBCHEM_IUPAC_INCHI>
InChI=1S/C19H15NO5/c1-22-12-6-4-10-8-9-20-15-14(10)18(12)25-17-11(16(15)21)5-7-13(23-2)19(17)24-3/h4-9H,1-3H3

>  <PUBCHEM_IUPAC_INCHIKEY>
PFNGLUWKELTIDX-UHFFFAOYSA-N

>  <PUBCHEM_XLOGP3_AA>
3.4

>  <PUBCHEM_EXACT_MASS>
337.095

>  <PUBCHEM_MOLECULAR_FORMULA>
C19H15NO5

>  <PUBCHEM_MOLECULAR_WEIGHT>
337.331

>  <PUBCHEM_OPENEYE_CAN_SMILES>
COC1=C2C3=C(C=C1)C=CN=C3C(=O)C4=C(O2)C(=C(C=C4)OC)OC

>  <PUBCHEM_OPENEYE_ISO_SMILES>
COC1=C2C3=C(C=C1)C=CN=C3C(=O)C4=C(O2)C(=C(C=C4)OC)OC

>  <PUBCHEM_CACTVS_TPSA>
66.9

>  <PUBCHEM_MONOISOTOPIC_WEIGHT>
337.095

>  <PUBCHEM_TOTAL_CHARGE>
0

>  <PUBCHEM_HEAVY_ATOM_COUNT>
25

>  <PUBCHEM_ATOM_DEF_STEREO_COUNT>
0

>  <PUBCHEM_ATOM_UDEF_STEREO_COUNT>
0

>  <PUBCHEM_BOND_DEF_STEREO_COUNT>
0

>  <PUBCHEM_BOND_UDEF_STEREO_COUNT>
0

>  <PUBCHEM_ISOTOPIC_ATOM_COUNT>
0

>  <PUBCHEM_COMPONENT_COUNT>
1

>  <PUBCHEM_CACTVS_TAUTO_COUNT>
1

>  <PUBCHEM_COORDINATE_TYPE>
1
5
255

>  <PUBCHEM_BONDANNOTATIONS>
10  16  8
10  19  8
11  12  8
11  17  8
12  15  8
14  18  8
15  20  8
16  18  8
17  21  8
19  22  8
20  21  8
6  22  8
6  9  8
7  10  8
7  8  8
7  9  8
8  14  8

$$$$
