150156
 OpenBabel06101807152D

 26 28  0  0  0  0  0  0  0  0999 V2000
    6.3981    1.0000    0.0000 O   0  0  0  0  0  0  0  0  0  0  0  0
    6.3981   -1.0000    0.0000 O   0  0  0  0  0  0  0  0  0  0  0  0
    2.0000   -0.5275    0.0000 O   0  5  0  0  0  0  0  0  0  0  0  0
   10.7961    0.5275    0.0000 O   0  5  0  0  0  0  0  0  0  0  0  0
    2.8718   -2.0241    0.0000 O   0  0  0  0  0  0  0  0  0  0  0  0
    9.9243    2.0241    0.0000 O   0  0  0  0  0  0  0  0  0  0  0  0
    2.8680   -1.0241    0.0000 N   0  3  0  0  0  0  0  0  0  0  0  0
    9.9282    1.0241    0.0000 N   0  3  0  0  0  0  0  0  0  0  0  0
    5.5320   -0.5000    0.0000 C   0  0  0  0  0  0  0  0  0  0  0  0
    7.2641    0.5000    0.0000 C   0  0  0  0  0  0  0  0  0  0  0  0
    5.5320    0.5000    0.0000 C   0  0  0  0  0  0  0  0  0  0  0  0
    7.2641   -0.5000    0.0000 C   0  0  0  0  0  0  0  0  0  0  0  0
    4.6381   -1.0347    0.0000 C   0  0  0  0  0  0  0  0  0  0  0  0
    8.1580    1.0347    0.0000 C   0  0  0  0  0  0  0  0  0  0  0  0
    4.6381    1.0347    0.0000 C   0  0  0  0  0  0  0  0  0  0  0  0
    8.1580   -1.0347    0.0000 C   0  0  0  0  0  0  0  0  0  0  0  0
    3.7320   -0.5208    0.0000 C   0  0  0  0  0  0  0  0  0  0  0  0
    9.0641    0.5208    0.0000 C   0  0  0  0  0  0  0  0  0  0  0  0
    3.7320    0.5208    0.0000 C   0  0  0  0  0  0  0  0  0  0  0  0
    9.0641   -0.5208    0.0000 C   0  0  0  0  0  0  0  0  0  0  0  0
    4.6453   -1.6546    0.0000 H   0  0  0  0  0  0  0  0  0  0  0  0
    8.1509    1.6546    0.0000 H   0  0  0  0  0  0  0  0  0  0  0  0
    4.6453    1.6546    0.0000 H   0  0  0  0  0  0  0  0  0  0  0  0
    8.1509   -1.6546    0.0000 H   0  0  0  0  0  0  0  0  0  0  0  0
    3.1963    0.8329    0.0000 H   0  0  0  0  0  0  0  0  0  0  0  0
    9.5998   -0.8329    0.0000 H   0  0  0  0  0  0  0  0  0  0  0  0
  1 10  1  0  0  0  0
  1 11  1  0  0  0  0
  2  9  1  0  0  0  0
  2 12  1  0  0  0  0
  3  7  1  0  0  0  0
  4  8  1  0  0  0  0
  5  7  2  0  0  0  0
  6  8  2  0  0  0  0
  7 17  1  0  0  0  0
  8 18  1  0  0  0  0
  9 11  2  0  0  0  0
  9 13  1  0  0  0  0
 10 12  2  0  0  0  0
 10 14  1  0  0  0  0
 11 15  1  0  0  0  0
 12 16  1  0  0  0  0
 13 17  2  0  0  0  0
 13 21  1  0  0  0  0
 14 18  2  0  0  0  0
 14 22  1  0  0  0  0
 15 19  2  0  0  0  0
 15 23  1  0  0  0  0
 16 20  2  0  0  0  0
 16 24  1  0  0  0  0
 17 19  1  0  0  0  0
 18 20  1  0  0  0  0
 19 25  1  0  0  0  0
 20 26  1  0  0  0  0
M  CHG  4   3  -1   4  -1   7   1   8   1
M  END
>  <PUBCHEM_COMPOUND_CID>
150156

>  <PUBCHEM_COMPOUND_CANONICALIZED>
1

>  <PUBCHEM_CACTVS_COMPLEXITY>
368

>  <PUBCHEM_CACTVS_HBOND_ACCEPTOR>
6

>  <PUBCHEM_CACTVS_HBOND_DONOR>
0

>  <PUBCHEM_CACTVS_ROTATABLE_BOND>
0

>  <PUBCHEM_CACTVS_SUBSKEYS>
AAADcYBzOAAAAAAAAAAAAAAAAAAAAAAAAAA0YIAAAAAAAACRQAAAHgAEAAAACAyBkAAwxoAQRACBACRCQwCCCAAgIgAoiAAG7IoNJiKEsZuCOCLmwBkK6AewUAEAAEAAAgAAQAAAgAAEAACAAAAAAAAAAA==

>  <PUBCHEM_IUPAC_OPENEYE_NAME>
2,7-dinitrodibenzo-p-dioxin

>  <PUBCHEM_IUPAC_CAS_NAME>
2,7-dinitrodibenzo-p-dioxin

>  <PUBCHEM_IUPAC_NAME>
2,7-dinitrodibenzo-p-dioxin

>  <PUBCHEM_IUPAC_SYSTEMATIC_NAME>
2,7-dinitrodibenzo-p-dioxin

>  <PUBCHEM_IUPAC_TRADITIONAL_NAME>
2,7-dinitrodibenzo-p-dioxin

>  <PUBCHEM_IUPAC_INCHI>
InChI=1S/C12H6N2O6/c15-13(16)7-1-3-9-11(5-7)20-10-4-2-8(14(17)18)6-12(10)19-9/h1-6H

>  <PUBCHEM_IUPAC_INCHIKEY>
AIEOWYUAULEJQF-UHFFFAOYSA-N

>  <PUBCHEM_XLOGP3_AA>
2.7

>  <PUBCHEM_EXACT_MASS>
274.023

>  <PUBCHEM_MOLECULAR_FORMULA>
C12H6N2O6

>  <PUBCHEM_MOLECULAR_WEIGHT>
274.188

>  <PUBCHEM_OPENEYE_CAN_SMILES>
C1=CC2=C(C=C1[N+](=O)[O-])OC3=C(O2)C=C(C=C3)[N+](=O)[O-]

>  <PUBCHEM_OPENEYE_ISO_SMILES>
C1=CC2=C(C=C1[N+](=O)[O-])OC3=C(O2)C=C(C=C3)[N+](=O)[O-]

>  <PUBCHEM_CACTVS_TPSA>
110

>  <PUBCHEM_MONOISOTOPIC_WEIGHT>
274.023

>  <PUBCHEM_TOTAL_CHARGE>
0

>  <PUBCHEM_HEAVY_ATOM_COUNT>
20

>  <PUBCHEM_ATOM_DEF_STEREO_COUNT>
0

>  <PUBCHEM_ATOM_UDEF_STEREO_COUNT>
0

>  <PUBCHEM_BOND_DEF_STEREO_COUNT>
0

>  <PUBCHEM_BOND_UDEF_STEREO_COUNT>
0

>  <PUBCHEM_ISOTOPIC_ATOM_COUNT>
0

>  <PUBCHEM_COMPONENT_COUNT>
1

>  <PUBCHEM_CACTVS_TAUTO_COUNT>
1

>  <PUBCHEM_COORDINATE_TYPE>
1
5
255

>  <PUBCHEM_BONDANNOTATIONS>
10  12  8
10  14  8
11  15  8
12  16  8
13  17  8
14  18  8
15  19  8
16  20  8
17  19  8
18  20  8
9  11  8
9  13  8

$$$$
