15118825
 OpenBabel06101807152D

 33 35  0  0  0  0  0  0  0  0999 V2000
    6.4144    1.7744    0.0000 O   0  0  0  0  0  0  0  0  0  0  0  0
    8.1962   -1.2844    0.0000 O   0  0  0  0  0  0  0  0  0  0  0  0
    4.6660    1.7398    0.0000 O   0  0  0  0  0  0  0  0  0  0  0  0
    4.6660   -2.2602    0.0000 O   0  0  0  0  0  0  0  0  0  0  0  0
    8.1962    0.7639    0.0000 O   0  0  0  0  0  0  0  0  0  0  0  0
    5.5321    0.2398    0.0000 C   0  0  0  0  0  0  0  0  0  0  0  0
    5.5321   -0.7602    0.0000 C   0  0  0  0  0  0  0  0  0  0  0  0
    3.8000    0.2398    0.0000 C   0  0  0  0  0  0  0  0  0  0  0  0
    3.8000   -0.7602    0.0000 C   0  0  0  0  0  0  0  0  0  0  0  0
    4.6660    0.7398    0.0000 C   0  0  0  0  0  0  0  0  0  0  0  0
    4.6660   -1.2602    0.0000 C   0  0  0  0  0  0  0  0  0  0  0  0
    6.4260    0.7744    0.0000 C   0  0  0  0  0  0  0  0  0  0  0  0
    6.4260   -1.2949    0.0000 C   0  0  0  0  0  0  0  0  0  0  0  0
    7.3321    0.2606    0.0000 C   0  0  0  0  0  0  0  0  0  0  0  0
    7.3321   -0.7810    0.0000 C   0  0  0  0  0  0  0  0  0  0  0  0
    2.9061    0.7744    0.0000 C   0  0  0  0  0  0  0  0  0  0  0  0
    2.9061   -1.2949    0.0000 C   0  0  0  0  0  0  0  0  0  0  0  0
    2.0000    0.2606    0.0000 C   0  0  0  0  0  0  0  0  0  0  0  0
    2.0000   -0.7810    0.0000 C   0  0  0  0  0  0  0  0  0  0  0  0
    7.2746    2.2844    0.0000 C   0  0  0  0  0  0  0  0  0  0  0  0
    8.1923   -2.2844    0.0000 C   0  0  0  0  0  0  0  0  0  0  0  0
    6.4188   -1.9148    0.0000 H   0  0  0  0  0  0  0  0  0  0  0  0
    2.9132    1.3944    0.0000 H   0  0  0  0  0  0  0  0  0  0  0  0
    2.9132   -1.9148    0.0000 H   0  0  0  0  0  0  0  0  0  0  0  0
    1.4643    0.5727    0.0000 H   0  0  0  0  0  0  0  0  0  0  0  0
    1.4643   -1.0931    0.0000 H   0  0  0  0  0  0  0  0  0  0  0  0
    8.7343    0.4560    0.0000 H   0  0  0  0  0  0  0  0  0  0  0  0
    7.5908    1.7510    0.0000 H   0  0  0  0  0  0  0  0  0  0  0  0
    7.8079    2.6006    0.0000 H   0  0  0  0  0  0  0  0  0  0  0  0
    6.9584    2.8177    0.0000 H   0  0  0  0  0  0  0  0  0  0  0  0
    7.5723   -2.2820    0.0000 H   0  0  0  0  0  0  0  0  0  0  0  0
    8.1899   -2.9044    0.0000 H   0  0  0  0  0  0  0  0  0  0  0  0
    8.8123   -2.2868    0.0000 H   0  0  0  0  0  0  0  0  0  0  0  0
  1 12  1  0  0  0  0
  1 20  1  0  0  0  0
  2 15  1  0  0  0  0
  2 21  1  0  0  0  0
  3 10  2  0  0  0  0
  4 11  2  0  0  0  0
  5 14  1  0  0  0  0
  5 27  1  0  0  0  0
  6  7  1  0  0  0  0
  6 10  1  0  0  0  0
  6 12  2  0  0  0  0
  7 11  1  0  0  0  0
  7 13  2  0  0  0  0
  8  9  1  0  0  0  0
  8 10  1  0  0  0  0
  8 16  2  0  0  0  0
  9 11  1  0  0  0  0
  9 17  2  0  0  0  0
 12 14  1  0  0  0  0
 13 15  1  0  0  0  0
 13 22  1  0  0  0  0
 14 15  2  0  0  0  0
 16 18  1  0  0  0  0
 16 23  1  0  0  0  0
 17 19  1  0  0  0  0
 17 24  1  0  0  0  0
 18 19  2  0  0  0  0
 18 25  1  0  0  0  0
 19 26  1  0  0  0  0
 20 28  1  0  0  0  0
 20 29  1  0  0  0  0
 20 30  1  0  0  0  0
 21 31  1  0  0  0  0
 21 32  1  0  0  0  0
 21 33  1  0  0  0  0
M  END
>  <PUBCHEM_COMPOUND_CID>
15118825

>  <PUBCHEM_COMPOUND_CANONICALIZED>
1

>  <PUBCHEM_CACTVS_COMPLEXITY>
434

>  <PUBCHEM_CACTVS_HBOND_ACCEPTOR>
5

>  <PUBCHEM_CACTVS_HBOND_DONOR>
1

>  <PUBCHEM_CACTVS_ROTATABLE_BOND>
2

>  <PUBCHEM_CACTVS_SUBSKEYS>
AAADccB4OAAAAAAAAAAAAAAAAAAAAAAAAAAwYMAAAAAAAADBQAAAGgAACAAADASAmAIyBoAABgCIAqBSAAACCAAkIAAIiAEGiMgNJzaGNRqAcWMl4BULuYeL7PzOoAABCAAYQADAAAYQADCAAAAAAAAAAA==

>  <PUBCHEM_IUPAC_OPENEYE_NAME>
2-hydroxy-1,3-dimethoxy-anthracene-9,10-dione

>  <PUBCHEM_IUPAC_CAS_NAME>
2-hydroxy-1,3-dimethoxyanthracene-9,10-dione

>  <PUBCHEM_IUPAC_NAME>
2-hydroxy-1,3-dimethoxyanthracene-9,10-dione

>  <PUBCHEM_IUPAC_SYSTEMATIC_NAME>
1,3-dimethoxy-2-oxidanyl-anthracene-9,10-dione

>  <PUBCHEM_IUPAC_TRADITIONAL_NAME>
2-hydroxy-1,3-dimethoxy-9,10-anthraquinone

>  <PUBCHEM_IUPAC_INCHI>
InChI=1S/C16H12O5/c1-20-11-7-10-12(16(21-2)15(11)19)14(18)9-6-4-3-5-8(9)13(10)17/h3-7,19H,1-2H3

>  <PUBCHEM_IUPAC_INCHIKEY>
VVVZBZBYGDTROV-UHFFFAOYSA-N

>  <PUBCHEM_XLOGP3_AA>
2.5

>  <PUBCHEM_EXACT_MASS>
284.068

>  <PUBCHEM_MOLECULAR_FORMULA>
C16H12O5

>  <PUBCHEM_MOLECULAR_WEIGHT>
284.267

>  <PUBCHEM_OPENEYE_CAN_SMILES>
COC1=C(C(=C2C(=C1)C(=O)C3=CC=CC=C3C2=O)OC)O

>  <PUBCHEM_OPENEYE_ISO_SMILES>
COC1=C(C(=C2C(=C1)C(=O)C3=CC=CC=C3C2=O)OC)O

>  <PUBCHEM_CACTVS_TPSA>
72.8

>  <PUBCHEM_MONOISOTOPIC_WEIGHT>
284.068

>  <PUBCHEM_TOTAL_CHARGE>
0

>  <PUBCHEM_HEAVY_ATOM_COUNT>
21

>  <PUBCHEM_ATOM_DEF_STEREO_COUNT>
0

>  <PUBCHEM_ATOM_UDEF_STEREO_COUNT>
0

>  <PUBCHEM_BOND_DEF_STEREO_COUNT>
0

>  <PUBCHEM_BOND_UDEF_STEREO_COUNT>
0

>  <PUBCHEM_ISOTOPIC_ATOM_COUNT>
0

>  <PUBCHEM_COMPONENT_COUNT>
1

>  <PUBCHEM_CACTVS_TAUTO_COUNT>
5

>  <PUBCHEM_COORDINATE_TYPE>
1
5
255

>  <PUBCHEM_BONDANNOTATIONS>
12  14  8
13  15  8
14  15  8
16  18  8
17  19  8
18  19  8
6  12  8
6  7  8
7  13  8
8  16  8
8  9  8
9  17  8

$$$$
