151202
 OpenBabel06101807152D

 86 90  0  0  1  0  0  0  0  0999 V2000
    3.7320   -2.5933    0.0000 O   0  0  0  0  0  0  0  0  0  0  0  0
   12.6571    0.4932    0.0000 O   0  0  0  0  0  0  0  0  0  0  0  0
   11.8027   -1.0134    0.0000 O   0  0  0  0  0  0  0  0  0  0  0  0
    2.8718   -1.0900    0.0000 O   0  0  0  0  0  0  0  0  0  0  0  0
    8.2591   -1.0410    0.0000 C   0  0  2  0  0  0  0  0  0  0  0  0
    7.3931   -0.5410    0.0000 C   0  0  1  0  0  0  0  0  0  0  0  0
    6.4831   -1.0478    0.0000 C   0  0  2  0  0  0  0  0  0  0  0  0
    9.1251   -0.5410    0.0000 C   0  0  1  0  0  0  0  0  0  0  0  0
    6.4750   -2.0894    0.0000 C   0  0  1  0  0  0  0  0  0  0  0  0
    8.2752   -2.0825    0.0000 C   0  0  0  0  0  0  0  0  0  0  0  0
    7.3771   -2.6102    0.0000 C   0  0  0  0  0  0  0  0  0  0  0  0
    9.1251    0.4590    0.0000 C   0  0  0  0  0  0  0  0  0  0  0  0
    5.5396   -2.6391    0.0000 C   0  0  0  0  0  0  0  0  0  0  0  0
   10.0191    0.9937    0.0000 C   0  0  1  0  0  0  0  0  0  0  0  0
    7.3931    0.4590    0.0000 C   0  0  0  0  0  0  0  0  0  0  0  0
    5.5562   -0.4837    0.0000 C   0  0  0  0  0  0  0  0  0  0  0  0
   10.0191   -1.0756    0.0000 C   0  0  0  0  0  0  0  0  0  0  0  0
   10.9251    0.4799    0.0000 C   0  0  1  0  0  0  0  0  0  0  0  0
    8.9019   -1.8070    0.0000 C   0  0  0  0  0  0  0  0  0  0  0  0
   10.9251   -0.5618    0.0000 C   0  0  0  0  0  0  0  0  0  0  0  0
    4.6000   -2.0966    0.0000 C   0  0  2  0  0  0  0  0  0  0  0  0
    8.2591    0.9590    0.0000 C   0  0  0  0  0  0  0  0  0  0  0  0
    6.4908   -0.0478    0.0000 C   0  0  0  0  0  0  0  0  0  0  0  0
    4.6084   -1.0117    0.0000 C   0  0  0  0  0  0  0  0  0  0  0  0
    9.4672   -1.4806    0.0000 C   0  0  0  0  0  0  0  0  0  0  0  0
    9.9940    2.0784    0.0000 C   0  0  0  0  0  0  0  0  0  0  0  0
   11.8689    1.0151    0.0000 C   0  0  0  0  0  0  0  0  0  0  0  0
   10.9251    2.6353    0.0000 C   0  0  0  0  0  0  0  0  0  0  0  0
    5.0430   -3.5071    0.0000 C   0  0  0  0  0  0  0  0  0  0  0  0
    6.0430   -3.5032    0.0000 C   0  0  0  0  0  0  0  0  0  0  0  0
   11.8689    2.1001    0.0000 C   0  0  0  0  0  0  0  0  0  0  0  0
   11.7950   -0.0135    0.0000 C   0  0  0  0  0  0  0  0  0  0  0  0
   11.4151    3.5071    0.0000 C   0  0  0  0  0  0  0  0  0  0  0  0
   10.4152    3.4955    0.0000 C   0  0  0  0  0  0  0  0  0  0  0  0
    2.8680   -2.0900    0.0000 C   0  0  0  0  0  0  0  0  0  0  0  0
    2.0000   -2.5866    0.0000 C   0  0  0  0  0  0  0  0  0  0  0  0
    8.1292   -0.1160    0.0000 H   0  0  0  0  0  0  0  0  0  0  0  0
    6.4783   -2.9394    0.0000 H   0  0  0  0  0  0  0  0  0  0  0  0
    8.4932   -2.6629    0.0000 H   0  0  0  0  0  0  0  0  0  0  0  0
    8.8843   -1.9670    0.0000 H   0  0  0  0  0  0  0  0  0  0  0  0
    6.9798   -3.0862    0.0000 H   0  0  0  0  0  0  0  0  0  0  0  0
    7.7781   -3.0831    0.0000 H   0  0  0  0  0  0  0  0  0  0  0  0
   10.7485    1.4300    0.0000 H   0  0  0  0  0  0  0  0  0  0  0  0
    7.1810    1.0416    0.0000 H   0  0  0  0  0  0  0  0  0  0  0  0
    6.7825    0.3514    0.0000 H   0  0  0  0  0  0  0  0  0  0  0  0
    5.9644   -0.0171    0.0000 H   0  0  0  0  0  0  0  0  0  0  0  0
    5.1663   -0.0017    0.0000 H   0  0  0  0  0  0  0  0  0  0  0  0
    9.6145   -1.5454    0.0000 H   0  0  0  0  0  0  0  0  0  0  0  0
   10.4127   -1.5546    0.0000 H   0  0  0  0  0  0  0  0  0  0  0  0
    8.4269   -2.2055    0.0000 H   0  0  0  0  0  0  0  0  0  0  0  0
    9.3004   -2.2820    0.0000 H   0  0  0  0  0  0  0  0  0  0  0  0
    9.3768   -1.4085    0.0000 H   0  0  0  0  0  0  0  0  0  0  0  0
   11.1342   -1.1455    0.0000 H   0  0  0  0  0  0  0  0  0  0  0  0
   11.5360   -0.4557    0.0000 H   0  0  0  0  0  0  0  0  0  0  0  0
    4.5988   -2.7166    0.0000 H   0  0  0  0  0  0  0  0  0  0  0  0
    8.2591    1.5790    0.0000 H   0  0  0  0  0  0  0  0  0  0  0  0
    7.1108   -0.0526    0.0000 H   0  0  0  0  0  0  0  0  0  0  0  0
    6.4956    0.5721    0.0000 H   0  0  0  0  0  0  0  0  0  0  0  0
    5.8708   -0.0431    0.0000 H   0  0  0  0  0  0  0  0  0  0  0  0
    4.4038   -0.4264    0.0000 H   0  0  0  0  0  0  0  0  0  0  0  0
    3.9967   -1.1131    0.0000 H   0  0  0  0  0  0  0  0  0  0  0  0
    8.8846   -1.6927    0.0000 H   0  0  0  0  0  0  0  0  0  0  0  0
    9.6794   -2.0632    0.0000 H   0  0  0  0  0  0  0  0  0  0  0  0
   10.0498   -1.2685    0.0000 H   0  0  0  0  0  0  0  0  0  0  0  0
    9.7715    2.6571    0.0000 H   0  0  0  0  0  0  0  0  0  0  0  0
    9.3857    1.9582    0.0000 H   0  0  0  0  0  0  0  0  0  0  0  0
   12.0780    0.4314    0.0000 H   0  0  0  0  0  0  0  0  0  0  0  0
   12.4798    1.1212    0.0000 H   0  0  0  0  0  0  0  0  0  0  0  0
    4.5048   -3.1992    0.0000 H   0  0  0  0  0  0  0  0  0  0  0  0
    4.7350   -4.0452    0.0000 H   0  0  0  0  0  0  0  0  0  0  0  0
    5.5811   -3.8150    0.0000 H   0  0  0  0  0  0  0  0  0  0  0  0
    5.5072   -3.8153    0.0000 H   0  0  0  0  0  0  0  0  0  0  0  0
    6.3550   -4.0390    0.0000 H   0  0  0  0  0  0  0  0  0  0  0  0
    6.5787   -3.1912    0.0000 H   0  0  0  0  0  0  0  0  0  0  0  0
   12.4798    1.9940    0.0000 H   0  0  0  0  0  0  0  0  0  0  0  0
   12.0780    2.6838    0.0000 H   0  0  0  0  0  0  0  0  0  0  0  0
   11.9556    3.2033    0.0000 H   0  0  0  0  0  0  0  0  0  0  0  0
   11.7189    4.0476    0.0000 H   0  0  0  0  0  0  0  0  0  0  0  0
   10.8746    3.8108    0.0000 H   0  0  0  0  0  0  0  0  0  0  0  0
   10.9485    3.8117    0.0000 H   0  0  0  0  0  0  0  0  0  0  0  0
   10.0990    4.0288    0.0000 H   0  0  0  0  0  0  0  0  0  0  0  0
    9.8818    3.1793    0.0000 H   0  0  0  0  0  0  0  0  0  0  0  0
   13.1964    0.1874    0.0000 H   0  0  0  0  0  0  0  0  0  0  0  0
    1.6921   -2.0485    0.0000 H   0  0  0  0  0  0  0  0  0  0  0  0
    1.4619   -2.8945    0.0000 H   0  0  0  0  0  0  0  0  0  0  0  0
    2.3079   -3.1247    0.0000 H   0  0  0  0  0  0  0  0  0  0  0  0
  1 35  1  0  0  0  0
  2 32  1  0  0  0  0
  2 83  1  0  0  0  0
  3 32  2  0  0  0  0
  4 35  2  0  0  0  0
  5  6  1  1  0  0  0
  5 10  1  0  0  0  0
  5 19  1  0  0  0  0
  6  7  1  6  0  0  0
  6 15  1  0  0  0  0
  6 37  1  0  0  0  0
  7  9  1  1  0  0  0
  7 16  1  0  0  0  0
  7 23  1  0  0  0  0
  8  5  1  1  0  0  0
  8 12  1  0  0  0  0
  8 17  1  0  0  0  0
  8 25  1  0  0  0  0
  9 11  1  0  0  0  0
  9 13  1  0  0  0  0
  9 38  1  6  0  0  0
 10 11  1  0  0  0  0
 10 39  1  0  0  0  0
 10 40  1  0  0  0  0
 11 41  1  0  0  0  0
 11 42  1  0  0  0  0
 12 14  1  0  0  0  0
 12 22  2  0  0  0  0
 13 21  1  0  0  0  0
 13 29  1  0  0  0  0
 13 30  1  0  0  0  0
 14 18  1  6  0  0  0
 14 26  1  0  0  0  0
 14 43  1  0  0  0  0
 15 22  1  0  0  0  0
 15 44  1  0  0  0  0
 15 45  1  0  0  0  0
 16 24  1  0  0  0  0
 16 46  1  0  0  0  0
 16 47  1  0  0  0  0
 17 20  1  0  0  0  0
 17 48  1  0  0  0  0
 17 49  1  0  0  0  0
 18 20  1  0  0  0  0
 18 27  1  0  0  0  0
 18 32  1  1  0  0  0
 19 50  1  0  0  0  0
 19 51  1  0  0  0  0
 19 52  1  0  0  0  0
 20 53  1  0  0  0  0
 20 54  1  0  0  0  0
 21  1  1  0  0  0  0
 21 24  1  0  0  0  0
 21 55  1  6  0  0  0
 22 56  1  0  0  0  0
 23 57  1  0  0  0  0
 23 58  1  0  0  0  0
 23 59  1  0  0  0  0
 24 60  1  0  0  0  0
 24 61  1  0  0  0  0
 25 62  1  0  0  0  0
 25 63  1  0  0  0  0
 25 64  1  0  0  0  0
 26 28  1  0  0  0  0
 26 65  1  0  0  0  0
 26 66  1  0  0  0  0
 27 31  1  0  0  0  0
 27 67  1  0  0  0  0
 27 68  1  0  0  0  0
 28 31  1  0  0  0  0
 28 33  1  0  0  0  0
 28 34  1  0  0  0  0
 29 69  1  0  0  0  0
 29 70  1  0  0  0  0
 29 71  1  0  0  0  0
 30 72  1  0  0  0  0
 30 73  1  0  0  0  0
 30 74  1  0  0  0  0
 31 75  1  0  0  0  0
 31 76  1  0  0  0  0
 33 77  1  0  0  0  0
 33 78  1  0  0  0  0
 33 79  1  0  0  0  0
 34 80  1  0  0  0  0
 34 81  1  0  0  0  0
 34 82  1  0  0  0  0
 35 36  1  0  0  0  0
 36 84  1  0  0  0  0
 36 85  1  0  0  0  0
 36 86  1  0  0  0  0
M  END
>  <PUBCHEM_COMPOUND_CID>
151202

>  <PUBCHEM_COMPOUND_CANONICALIZED>
1

>  <PUBCHEM_CACTVS_COMPLEXITY>
992

>  <PUBCHEM_CACTVS_HBOND_ACCEPTOR>
4

>  <PUBCHEM_CACTVS_HBOND_DONOR>
1

>  <PUBCHEM_CACTVS_ROTATABLE_BOND>
3

>  <PUBCHEM_CACTVS_SUBSKEYS>
AAADcfB8OAAAAAAAAAAAAAAAAAAAAAAAAAAwYMGCAAAAAADAAAAAGgAACAAADxSggAICCAAABgCIAiDSCAAAAAAgAAAACAEAAAgAABIAAQACQAAEgAAIAAOIyPCPgAAAAAAAAADAAAYAADAAAAAAAAAAAA==

>  <PUBCHEM_IUPAC_OPENEYE_NAME>
(4aS,6aR,6aS,6bR,8aR,10S,12aR,14bS)-10-acetoxy-2,2,6a,6b,9,9,12a-heptamethyl-1,3,4,5,6,6a,7,8,8a,10,11,12,13,14b-tetradecahydropicene-4a-carboxylic acid

>  <PUBCHEM_IUPAC_CAS_NAME>
(4aS,6aR,6aS,6bR,8aR,10S,12aR,14bS)-10-acetyloxy-2,2,6a,6b,9,9,12a-heptamethyl-1,3,4,5,6,6a,7,8,8a,10,11,12,13,14b-tetradecahydropicene-4a-carboxylic acid

>  <PUBCHEM_IUPAC_NAME>
(4aS,6aR,6aS,6bR,8aR,10S,12aR,14bS)-10-acetyloxy-2,2,6a,6b,9,9,12a-heptamethyl-1,3,4,5,6,6a,7,8,8a,10,11,12,13,14b-tetradecahydropicene-4a-carboxylic acid

>  <PUBCHEM_IUPAC_SYSTEMATIC_NAME>
(4aS,6aR,6aS,6bR,8aR,10S,12aR,14bS)-10-acetyloxy-2,2,6a,6b,9,9,12a-heptamethyl-1,3,4,5,6,6a,7,8,8a,10,11,12,13,14b-tetradecahydropicene-4a-carboxylic acid

>  <PUBCHEM_IUPAC_TRADITIONAL_NAME>
(4aS,6aR,6aS,6bR,8aR,10S,12aR,14bS)-10-acetoxy-2,2,6a,6b,9,9,12a-heptamethyl-1,3,4,5,6,6a,7,8,8a,10,11,12,13,14b-tetradecahydropicene-4a-carboxylic acid

>  <PUBCHEM_IUPAC_INCHI>
InChI=1S/C32H50O4/c1-20(33)36-25-12-13-29(6)23(28(25,4)5)11-14-31(8)24(29)10-9-21-22-19-27(2,3)15-17-32(22,26(34)35)18-16-30(21,31)7/h9,22-25H,10-19H2,1-8H3,(H,34,35)/t22-,23-,24+,25-,29-,30+,31+,32-/m0/s1

>  <PUBCHEM_IUPAC_INCHIKEY>
RIXNFYQZWDGQAE-DFHVBEEKSA-N

>  <PUBCHEM_XLOGP3_AA>
8.1

>  <PUBCHEM_EXACT_MASS>
498.371

>  <PUBCHEM_MOLECULAR_FORMULA>
C32H50O4

>  <PUBCHEM_MOLECULAR_WEIGHT>
498.748

>  <PUBCHEM_OPENEYE_CAN_SMILES>
CC(=O)OC1CCC2(C(C1(C)C)CCC3(C2CC=C4C3(CCC5(C4CC(CC5)(C)C)C(=O)O)C)C)C

>  <PUBCHEM_OPENEYE_ISO_SMILES>
CC(=O)O[C@H]1CC[C@]2([C@H](C1(C)C)CC[C@@]3([C@@H]2CC=C4[C@]3(CC[C@@]5([C@H]4CC(CC5)(C)C)C(=O)O)C)C)C

>  <PUBCHEM_CACTVS_TPSA>
63.6

>  <PUBCHEM_MONOISOTOPIC_WEIGHT>
498.371

>  <PUBCHEM_TOTAL_CHARGE>
0

>  <PUBCHEM_HEAVY_ATOM_COUNT>
36

>  <PUBCHEM_ATOM_DEF_STEREO_COUNT>
8

>  <PUBCHEM_ATOM_UDEF_STEREO_COUNT>
0

>  <PUBCHEM_BOND_DEF_STEREO_COUNT>
0

>  <PUBCHEM_BOND_UDEF_STEREO_COUNT>
0

>  <PUBCHEM_ISOTOPIC_ATOM_COUNT>
0

>  <PUBCHEM_COMPONENT_COUNT>
1

>  <PUBCHEM_CACTVS_TAUTO_COUNT>
1

>  <PUBCHEM_COORDINATE_TYPE>
1
5
255

>  <PUBCHEM_BONDANNOTATIONS>
21  1  5
14  43  5
18  32  5
5  19  5
6  37  6
7  23  5
8  25  6
9  38  6

$$$$
