152070
 OpenBabel06101807152D

 45 46  0  0  0  0  0  0  0  0999 V2000
    3.7320    0.6966    0.0000 O   0  0  0  0  0  0  0  0  0  0  0  0
    7.6279   -2.1694    0.0000 O   0  0  0  0  0  0  0  0  0  0  0  0
    2.0000   -2.3034    0.0000 O   0  0  0  0  0  0  0  0  0  0  0  0
    5.5443   -0.4987    0.0000 N   0  0  0  0  0  0  0  0  0  0  0  0
    7.1441    1.6086    0.0000 N   0  0  0  0  0  0  0  0  0  0  0  0
    3.7320   -2.3034    0.0000 N   0  0  0  0  0  0  0  0  0  0  0  0
    5.5443   -2.1081    0.0000 N   0  0  0  0  0  0  0  0  0  0  0  0
    2.8660   -0.8034    0.0000 N   0  0  0  0  0  0  0  0  0  0  0  0
    5.8550    0.4518    0.0000 C   0  0  0  0  0  0  0  0  0  0  0  0
    6.8335    0.6581    0.0000 C   0  0  0  0  0  0  0  0  0  0  0  0
    4.5981   -0.8034    0.0000 C   0  0  0  0  0  0  0  0  0  0  0  0
    4.5981   -1.8034    0.0000 C   0  0  0  0  0  0  0  0  0  0  0  0
    6.1279   -1.3034    0.0000 C   0  0  0  0  0  0  0  0  0  0  0  0
    3.7320   -0.3034    0.0000 C   0  0  0  0  0  0  0  0  0  0  0  0
    8.1226    1.8148    0.0000 C   0  0  0  0  0  0  0  0  0  0  0  0
    6.4763    2.3529    0.0000 C   0  0  0  0  0  0  0  0  0  0  0  0
    2.8660   -1.8034    0.0000 C   0  0  0  0  0  0  0  0  0  0  0  0
    7.1279   -1.3034    0.0000 C   0  0  0  0  0  0  0  0  0  0  0  0
    3.7320   -3.3034    0.0000 C   0  0  0  0  0  0  0  0  0  0  0  0
    6.7870    3.3034    0.0000 C   0  0  0  0  0  0  0  0  0  0  0  0
    8.4333    2.7653    0.0000 C   0  0  0  0  0  0  0  0  0  0  0  0
    2.0000   -0.3034    0.0000 C   0  0  0  0  0  0  0  0  0  0  0  0
    5.8344    1.0715    0.0000 H   0  0  0  0  0  0  0  0  0  0  0  0
    5.2411    0.5392    0.0000 H   0  0  0  0  0  0  0  0  0  0  0  0
    6.8540    0.0384    0.0000 H   0  0  0  0  0  0  0  0  0  0  0  0
    7.4473    0.5707    0.0000 H   0  0  0  0  0  0  0  0  0  0  0  0
    5.9294    2.6449    0.0000 H   0  0  0  0  0  0  0  0  0  0  0  0
    6.0937    1.8650    0.0000 H   0  0  0  0  0  0  0  0  0  0  0  0
    8.1432    1.1951    0.0000 H   0  0  0  0  0  0  0  0  0  0  0  0
    8.7364    1.7274    0.0000 H   0  0  0  0  0  0  0  0  0  0  0  0
    7.7105   -1.0914    0.0000 H   0  0  0  0  0  0  0  0  0  0  0  0
    7.0202   -0.6928    0.0000 H   0  0  0  0  0  0  0  0  0  0  0  0
    3.1120   -3.3034    0.0000 H   0  0  0  0  0  0  0  0  0  0  0  0
    3.7320   -3.9234    0.0000 H   0  0  0  0  0  0  0  0  0  0  0  0
    4.3520   -3.3034    0.0000 H   0  0  0  0  0  0  0  0  0  0  0  0
    9.0226    2.5727    0.0000 H   0  0  0  0  0  0  0  0  0  0  0  0
    7.3763    3.1108    0.0000 H   0  0  0  0  0  0  0  0  0  0  0  0
    6.9796    3.8927    0.0000 H   0  0  0  0  0  0  0  0  0  0  0  0
    6.1976    3.4960    0.0000 H   0  0  0  0  0  0  0  0  0  0  0  0
    8.6259    3.3546    0.0000 H   0  0  0  0  0  0  0  0  0  0  0  0
    7.8440    2.9579    0.0000 H   0  0  0  0  0  0  0  0  0  0  0  0
    2.3100    0.2335    0.0000 H   0  0  0  0  0  0  0  0  0  0  0  0
    1.4631    0.0066    0.0000 H   0  0  0  0  0  0  0  0  0  0  0  0
    1.6900   -0.8403    0.0000 H   0  0  0  0  0  0  0  0  0  0  0  0
    8.2479   -2.1694    0.0000 H   0  0  0  0  0  0  0  0  0  0  0  0
  1 14  2  0  0  0  0
  2 18  1  0  0  0  0
  2 45  1  0  0  0  0
  3 17  2  0  0  0  0
  4  9  1  0  0  0  0
  4 11  1  0  0  0  0
  4 13  1  0  0  0  0
  5 10  1  0  0  0  0
  5 15  1  0  0  0  0
  5 16  1  0  0  0  0
  6 12  1  0  0  0  0
  6 17  1  0  0  0  0
  6 19  1  0  0  0  0
  7 12  1  0  0  0  0
  7 13  2  0  0  0  0
  8 14  1  0  0  0  0
  8 17  1  0  0  0  0
  8 22  1  0  0  0  0
  9 10  1  0  0  0  0
  9 23  1  0  0  0  0
  9 24  1  0  0  0  0
 10 25  1  0  0  0  0
 10 26  1  0  0  0  0
 11 12  2  0  0  0  0
 11 14  1  0  0  0  0
 13 18  1  0  0  0  0
 15 21  1  0  0  0  0
 15 29  1  0  0  0  0
 15 30  1  0  0  0  0
 16 20  1  0  0  0  0
 16 27  1  0  0  0  0
 16 28  1  0  0  0  0
 18 31  1  0  0  0  0
 18 32  1  0  0  0  0
 19 33  1  0  0  0  0
 19 34  1  0  0  0  0
 19 35  1  0  0  0  0
 20 37  1  0  0  0  0
 20 38  1  0  0  0  0
 20 39  1  0  0  0  0
 21 36  1  0  0  0  0
 21 40  1  0  0  0  0
 21 41  1  0  0  0  0
 22 42  1  0  0  0  0
 22 43  1  0  0  0  0
 22 44  1  0  0  0  0
M  END
>  <PUBCHEM_COMPOUND_CID>
152070

>  <PUBCHEM_COMPOUND_CANONICALIZED>
1

>  <PUBCHEM_CACTVS_COMPLEXITY>
429

>  <PUBCHEM_CACTVS_HBOND_ACCEPTOR>
5

>  <PUBCHEM_CACTVS_HBOND_DONOR>
1

>  <PUBCHEM_CACTVS_ROTATABLE_BOND>
6

>  <PUBCHEM_CACTVS_SUBSKEYS>
AAADceBzsAAAAAAAAAAAAAAAAAAAAWAAAAAsAAAAAAAAAFgBgAAAHgAACAAACAjhlwYDsBcMEgCoAQdwdASAgC0HEKABUAG4VECCWAhASCAUAIgIByLQAGAAAAAAAAAAAAAAAAAAAAAAAAAAAAAAAAAAAA==

>  <PUBCHEM_IUPAC_OPENEYE_NAME>
7-[2-(diethylamino)ethyl]-8-(hydroxymethyl)-1,3-dimethyl-purine-2,6-dione

>  <PUBCHEM_IUPAC_CAS_NAME>
7-[2-(diethylamino)ethyl]-8-(hydroxymethyl)-1,3-dimethylpurine-2,6-dione

>  <PUBCHEM_IUPAC_NAME>
7-[2-(diethylamino)ethyl]-8-(hydroxymethyl)-1,3-dimethylpurine-2,6-dione

>  <PUBCHEM_IUPAC_SYSTEMATIC_NAME>
7-[2-(diethylamino)ethyl]-8-(hydroxymethyl)-1,3-dimethyl-purine-2,6-dione

>  <PUBCHEM_IUPAC_TRADITIONAL_NAME>
7-[2-(diethylamino)ethyl]-1,3-dimethyl-8-methylol-xanthine

>  <PUBCHEM_IUPAC_INCHI>
InChI=1S/C14H23N5O3/c1-5-18(6-2)7-8-19-10(9-20)15-12-11(19)13(21)17(4)14(22)16(12)3/h20H,5-9H2,1-4H3

>  <PUBCHEM_IUPAC_INCHIKEY>
BHAZGBKRDPBLOD-UHFFFAOYSA-N

>  <PUBCHEM_XLOGP3_AA>
-0.6

>  <PUBCHEM_EXACT_MASS>
309.18

>  <PUBCHEM_MOLECULAR_FORMULA>
C14H23N5O3

>  <PUBCHEM_MOLECULAR_WEIGHT>
309.37

>  <PUBCHEM_OPENEYE_CAN_SMILES>
CCN(CC)CCN1C(=NC2=C1C(=O)N(C(=O)N2C)C)CO

>  <PUBCHEM_OPENEYE_ISO_SMILES>
CCN(CC)CCN1C(=NC2=C1C(=O)N(C(=O)N2C)C)CO

>  <PUBCHEM_CACTVS_TPSA>
81.9

>  <PUBCHEM_MONOISOTOPIC_WEIGHT>
309.18

>  <PUBCHEM_TOTAL_CHARGE>
0

>  <PUBCHEM_HEAVY_ATOM_COUNT>
22

>  <PUBCHEM_ATOM_DEF_STEREO_COUNT>
0

>  <PUBCHEM_ATOM_UDEF_STEREO_COUNT>
0

>  <PUBCHEM_BOND_DEF_STEREO_COUNT>
0

>  <PUBCHEM_BOND_UDEF_STEREO_COUNT>
0

>  <PUBCHEM_ISOTOPIC_ATOM_COUNT>
0

>  <PUBCHEM_COMPONENT_COUNT>
1

>  <PUBCHEM_CACTVS_TAUTO_COUNT>
1

>  <PUBCHEM_COORDINATE_TYPE>
1
5
255

>  <PUBCHEM_BONDANNOTATIONS>
11  12  8
11  14  8
4  11  8
4  13  8
6  12  8
6  17  8
7  12  8
7  13  8
8  14  8
8  17  8

$$$$
