15224382
 OpenBabel06101807152D

 42 45  0  0  0  0  0  0  0  0999 V2000
    3.9061   -0.6193    0.0000 O   0  0  0  0  0  0  0  0  0  0  0  0
    7.4260   -0.6193    0.0000 O   0  0  0  0  0  0  0  0  0  0  0  0
    5.6660    2.4154    0.0000 O   0  0  0  0  0  0  0  0  0  0  0  0
    7.4144    2.4500    0.0000 O   0  0  0  0  0  0  0  0  0  0  0  0
    8.3244   -2.1054    0.0000 O   0  0  0  0  0  0  0  0  0  0  0  0
   11.7884   -2.1188    0.0000 O   0  0  0  0  0  0  0  0  0  0  0  0
    3.0000   -0.1054    0.0000 C   0  0  0  0  0  0  0  0  0  0  0  0
    4.8000    0.9154    0.0000 C   0  0  0  0  0  0  0  0  0  0  0  0
    4.8000   -0.0846    0.0000 C   0  0  0  0  0  0  0  0  0  0  0  0
    3.0000    0.9362    0.0000 C   0  0  0  0  0  0  0  0  0  0  0  0
    3.9061    1.4501    0.0000 C   0  0  0  0  0  0  0  0  0  0  0  0
    2.0000   -0.1093    0.0000 C   0  0  0  0  0  0  0  0  0  0  0  0
    2.5033   -0.9734    0.0000 C   0  0  0  0  0  0  0  0  0  0  0  0
    6.5320    0.9154    0.0000 C   0  0  0  0  0  0  0  0  0  0  0  0
    5.6660    1.4154    0.0000 C   0  0  0  0  0  0  0  0  0  0  0  0
    6.5320   -0.0846    0.0000 C   0  0  0  0  0  0  0  0  0  0  0  0
    5.6660   -0.5846    0.0000 C   0  0  0  0  0  0  0  0  0  0  0  0
    7.4260    1.4501    0.0000 C   0  0  0  0  0  0  0  0  0  0  0  0
    8.3321   -0.1054    0.0000 C   0  0  0  0  0  0  0  0  0  0  0  0
    8.3321    0.9362    0.0000 C   0  0  0  0  0  0  0  0  0  0  0  0
    9.1962   -0.6088    0.0000 C   0  0  0  0  0  0  0  0  0  0  0  0
    9.1923   -1.6087    0.0000 C   0  0  0  0  0  0  0  0  0  0  0  0
   10.0641   -0.1121    0.0000 C   0  0  0  0  0  0  0  0  0  0  0  0
   10.0564   -2.1121    0.0000 C   0  0  0  0  0  0  0  0  0  0  0  0
   10.9282   -0.6154    0.0000 C   0  0  0  0  0  0  0  0  0  0  0  0
   10.9243   -1.6154    0.0000 C   0  0  0  0  0  0  0  0  0  0  0  0
    2.4643    1.2483    0.0000 H   0  0  0  0  0  0  0  0  0  0  0  0
    3.9132    2.0700    0.0000 H   0  0  0  0  0  0  0  0  0  0  0  0
    1.9976    0.5107    0.0000 H   0  0  0  0  0  0  0  0  0  0  0  0
    1.3800   -0.1117    0.0000 H   0  0  0  0  0  0  0  0  0  0  0  0
    1.9652   -0.6654    0.0000 H   0  0  0  0  0  0  0  0  0  0  0  0
    2.1954   -1.5115    0.0000 H   0  0  0  0  0  0  0  0  0  0  0  0
    3.0415   -1.2813    0.0000 H   0  0  0  0  0  0  0  0  0  0  0  0
    2.0024   -0.7293    0.0000 H   0  0  0  0  0  0  0  0  0  0  0  0
    5.6660   -1.2046    0.0000 H   0  0  0  0  0  0  0  0  0  0  0  0
    8.8678    1.2483    0.0000 H   0  0  0  0  0  0  0  0  0  0  0  0
    5.1291    2.7254    0.0000 H   0  0  0  0  0  0  0  0  0  0  0  0
   10.0665    0.5079    0.0000 H   0  0  0  0  0  0  0  0  0  0  0  0
   10.0540   -2.7321    0.0000 H   0  0  0  0  0  0  0  0  0  0  0  0
   11.4663   -0.3075    0.0000 H   0  0  0  0  0  0  0  0  0  0  0  0
    8.3220   -2.7254    0.0000 H   0  0  0  0  0  0  0  0  0  0  0  0
   12.3266   -1.8108    0.0000 H   0  0  0  0  0  0  0  0  0  0  0  0
  1  7  1  0  0  0  0
  1  9  1  0  0  0  0
  2 16  1  0  0  0  0
  2 19  1  0  0  0  0
  3 15  1  0  0  0  0
  3 37  1  0  0  0  0
  4 18  2  0  0  0  0
  5 22  1  0  0  0  0
  5 41  1  0  0  0  0
  6 26  1  0  0  0  0
  6 42  1  0  0  0  0
  7 10  1  0  0  0  0
  7 12  1  0  0  0  0
  7 13  1  0  0  0  0
  8  9  2  0  0  0  0
  8 11  1  0  0  0  0
  8 15  1  0  0  0  0
  9 17  1  0  0  0  0
 10 11  2  0  0  0  0
 10 27  1  0  0  0  0
 11 28  1  0  0  0  0
 12 29  1  0  0  0  0
 12 30  1  0  0  0  0
 12 34  1  0  0  0  0
 13 31  1  0  0  0  0
 13 32  1  0  0  0  0
 13 33  1  0  0  0  0
 14 15  2  0  0  0  0
 14 16  1  0  0  0  0
 14 18  1  0  0  0  0
 16 17  2  0  0  0  0
 17 35  1  0  0  0  0
 18 20  1  0  0  0  0
 19 20  2  0  0  0  0
 19 21  1  0  0  0  0
 20 36  1  0  0  0  0
 21 22  2  0  0  0  0
 21 23  1  0  0  0  0
 22 24  1  0  0  0  0
 23 25  2  0  0  0  0
 23 38  1  0  0  0  0
 24 26  2  0  0  0  0
 24 39  1  0  0  0  0
 25 26  1  0  0  0  0
 25 40  1  0  0  0  0
M  END
>  <PUBCHEM_COMPOUND_CID>
15224382

>  <PUBCHEM_COMPOUND_CANONICALIZED>
1

>  <PUBCHEM_CACTVS_COMPLEXITY>
638

>  <PUBCHEM_CACTVS_HBOND_ACCEPTOR>
6

>  <PUBCHEM_CACTVS_HBOND_DONOR>
3

>  <PUBCHEM_CACTVS_ROTATABLE_BOND>
1

>  <PUBCHEM_CACTVS_SUBSKEYS>
AAADceB4OAAAAAAAAAAAAAAAAAAAAAAAAAAwYIEAAAAAAACBQAAAGgAACAAADESAmAAyBoAABgCIAqBSAAACCAAkIAAIiAEGCMgMJzaGNRqCeWCl4BUIuQeI7OzOIAACCAAIAABAAAQQABAAAAAAAAAAAA==

>  <PUBCHEM_IUPAC_OPENEYE_NAME>
8-(2,4-dihydroxyphenyl)-5-hydroxy-2,2-dimethyl-pyrano[3,2-g]chromen-6-one

>  <PUBCHEM_IUPAC_CAS_NAME>
8-(2,4-dihydroxyphenyl)-5-hydroxy-2,2-dimethyl-6-pyrano[3,2-g][1]benzopyranone

>  <PUBCHEM_IUPAC_NAME>
8-(2,4-dihydroxyphenyl)-5-hydroxy-2,2-dimethylpyrano[3,2-g]chromen-6-one

>  <PUBCHEM_IUPAC_SYSTEMATIC_NAME>
8-[2,4-bis(oxidanyl)phenyl]-2,2-dimethyl-5-oxidanyl-pyrano[3,2-g]chromen-6-one

>  <PUBCHEM_IUPAC_TRADITIONAL_NAME>
8-(2,4-dihydroxyphenyl)-5-hydroxy-2,2-dimethyl-pyrano[3,2-g]chromen-6-one

>  <PUBCHEM_IUPAC_INCHI>
InChI=1S/C20H16O6/c1-20(2)6-5-12-16(26-20)9-17-18(19(12)24)14(23)8-15(25-17)11-4-3-10(21)7-13(11)22/h3-9,21-22,24H,1-2H3

>  <PUBCHEM_IUPAC_INCHIKEY>
LXEJWVDCRDILQQ-UHFFFAOYSA-N

>  <PUBCHEM_XLOGP3_AA>
3.6

>  <PUBCHEM_EXACT_MASS>
352.095

>  <PUBCHEM_MOLECULAR_FORMULA>
C20H16O6

>  <PUBCHEM_MOLECULAR_WEIGHT>
352.342

>  <PUBCHEM_OPENEYE_CAN_SMILES>
CC1(C=CC2=C(O1)C=C3C(=C2O)C(=O)C=C(O3)C4=C(C=C(C=C4)O)O)C

>  <PUBCHEM_OPENEYE_ISO_SMILES>
CC1(C=CC2=C(O1)C=C3C(=C2O)C(=O)C=C(O3)C4=C(C=C(C=C4)O)O)C

>  <PUBCHEM_CACTVS_TPSA>
96.2

>  <PUBCHEM_MONOISOTOPIC_WEIGHT>
352.095

>  <PUBCHEM_TOTAL_CHARGE>
0

>  <PUBCHEM_HEAVY_ATOM_COUNT>
26

>  <PUBCHEM_ATOM_DEF_STEREO_COUNT>
0

>  <PUBCHEM_ATOM_UDEF_STEREO_COUNT>
0

>  <PUBCHEM_BOND_DEF_STEREO_COUNT>
0

>  <PUBCHEM_BOND_UDEF_STEREO_COUNT>
0

>  <PUBCHEM_ISOTOPIC_ATOM_COUNT>
0

>  <PUBCHEM_COMPONENT_COUNT>
1

>  <PUBCHEM_CACTVS_TAUTO_COUNT>
72

>  <PUBCHEM_COORDINATE_TYPE>
1
5
255

>  <PUBCHEM_BONDANNOTATIONS>
14  15  8
14  16  8
14  18  8
16  17  8
18  20  8
19  20  8
2  16  8
2  19  8
21  22  8
21  23  8
22  24  8
23  25  8
24  26  8
25  26  8
8  15  8
8  9  8
9  17  8

$$$$
