15233562
 OpenBabel06101807152D

 39 42  0  0  0  0  0  0  0  0999 V2000
    9.1869   -2.3053    0.0000 O   0  0  0  0  0  0  0  0  0  0  0  0
    5.5918    0.7181    0.0000 O   0  0  0  0  0  0  0  0  0  0  0  0
    7.4269    0.7294    0.0000 O   0  0  0  0  0  0  0  0  0  0  0  0
    2.6200    2.6594    0.0000 O   0  0  0  0  0  0  0  0  0  0  0  0
   10.0930   -1.7914    0.0000 C   0  0  0  0  0  0  0  0  0  0  0  0
    8.2930   -0.7706    0.0000 C   0  0  0  0  0  0  0  0  0  0  0  0
    8.2930   -1.7706    0.0000 C   0  0  0  0  0  0  0  0  0  0  0  0
   10.0930   -0.7498    0.0000 C   0  0  0  0  0  0  0  0  0  0  0  0
   11.0929   -1.7953    0.0000 C   0  0  0  0  0  0  0  0  0  0  0  0
   10.5896   -2.6594    0.0000 C   0  0  0  0  0  0  0  0  0  0  0  0
    9.1869   -0.2359    0.0000 C   0  0  0  0  0  0  0  0  0  0  0  0
    6.5609   -0.7706    0.0000 C   0  0  0  0  0  0  0  0  0  0  0  0
    7.4269   -0.2706    0.0000 C   0  0  0  0  0  0  0  0  0  0  0  0
    5.6949   -0.2706    0.0000 C   0  0  0  0  0  0  0  0  0  0  0  0
    7.4269   -2.2706    0.0000 C   0  0  0  0  0  0  0  0  0  0  0  0
    6.5609   -1.7706    0.0000 C   0  0  0  0  0  0  0  0  0  0  0  0
    4.1200    0.0613    0.0000 C   0  0  0  0  0  0  0  0  0  0  0  0
    4.7871   -0.6757    0.0000 C   0  0  0  0  0  0  0  0  0  0  0  0
    4.6200    0.9273    0.0000 C   0  0  0  0  0  0  0  0  0  0  0  0
    3.1200    0.0613    0.0000 C   0  0  0  0  0  0  0  0  0  0  0  0
    4.1200    1.7933    0.0000 C   0  0  0  0  0  0  0  0  0  0  0  0
    3.1200    1.7933    0.0000 C   0  0  0  0  0  0  0  0  0  0  0  0
    2.6200    0.9273    0.0000 C   0  0  0  0  0  0  0  0  0  0  0  0
   10.6287   -0.4377    0.0000 H   0  0  0  0  0  0  0  0  0  0  0  0
   10.0515   -2.9673    0.0000 H   0  0  0  0  0  0  0  0  0  0  0  0
   10.8975   -3.1975    0.0000 H   0  0  0  0  0  0  0  0  0  0  0  0
   11.0906   -2.4153    0.0000 H   0  0  0  0  0  0  0  0  0  0  0  0
   11.7129   -1.7977    0.0000 H   0  0  0  0  0  0  0  0  0  0  0  0
   11.0953   -1.1753    0.0000 H   0  0  0  0  0  0  0  0  0  0  0  0
   11.1277   -2.3514    0.0000 H   0  0  0  0  0  0  0  0  0  0  0  0
    9.1797    0.3840    0.0000 H   0  0  0  0  0  0  0  0  0  0  0  0
    7.4269   -2.8906    0.0000 H   0  0  0  0  0  0  0  0  0  0  0  0
    6.0240   -2.0806    0.0000 H   0  0  0  0  0  0  0  0  0  0  0  0
    4.6592   -1.2824    0.0000 H   0  0  0  0  0  0  0  0  0  0  0  0
    2.8100   -0.4756    0.0000 H   0  0  0  0  0  0  0  0  0  0  0  0
    4.4300    2.3303    0.0000 H   0  0  0  0  0  0  0  0  0  0  0  0
    7.9639    1.0394    0.0000 H   0  0  0  0  0  0  0  0  0  0  0  0
    2.0000    0.9273    0.0000 H   0  0  0  0  0  0  0  0  0  0  0  0
    2.0000    2.6594    0.0000 H   0  0  0  0  0  0  0  0  0  0  0  0
  1  5  1  0  0  0  0
  1  7  1  0  0  0  0
  2 14  1  0  0  0  0
  2 19  1  0  0  0  0
  3 13  1  0  0  0  0
  3 37  1  0  0  0  0
  4 22  1  0  0  0  0
  4 39  1  0  0  0  0
  5  8  1  0  0  0  0
  5  9  1  0  0  0  0
  5 10  1  0  0  0  0
  6  7  2  0  0  0  0
  6 11  1  0  0  0  0
  6 13  1  0  0  0  0
  7 15  1  0  0  0  0
  8 11  2  0  0  0  0
  8 24  1  0  0  0  0
  9 27  1  0  0  0  0
  9 28  1  0  0  0  0
  9 29  1  0  0  0  0
 10 25  1  0  0  0  0
 10 26  1  0  0  0  0
 10 30  1  0  0  0  0
 11 31  1  0  0  0  0
 12 13  2  0  0  0  0
 12 14  1  0  0  0  0
 12 16  1  0  0  0  0
 14 18  2  0  0  0  0
 15 16  2  0  0  0  0
 15 32  1  0  0  0  0
 16 33  1  0  0  0  0
 17 18  1  0  0  0  0
 17 19  2  0  0  0  0
 17 20  1  0  0  0  0
 18 34  1  0  0  0  0
 19 21  1  0  0  0  0
 20 23  2  0  0  0  0
 20 35  1  0  0  0  0
 21 22  2  0  0  0  0
 21 36  1  0  0  0  0
 22 23  1  0  0  0  0
 23 38  1  0  0  0  0
M  END
>  <PUBCHEM_COMPOUND_CID>
15233562

>  <PUBCHEM_COMPOUND_CANONICALIZED>
1

>  <PUBCHEM_CACTVS_COMPLEXITY>
474

>  <PUBCHEM_CACTVS_HBOND_ACCEPTOR>
4

>  <PUBCHEM_CACTVS_HBOND_DONOR>
2

>  <PUBCHEM_CACTVS_ROTATABLE_BOND>
1

>  <PUBCHEM_CACTVS_SUBSKEYS>
AAADceB4OAAAAAAAAAAAAAAAAAAAASAAAAAwYIAAAAAAAEiB9AAAGgAACAAADESAmAAyBsAABkCIAqBSAAACCAAkIAAIiAEGCMgMJzaGNRqCeWCl4BUIuYeI7PzOIAACCAAIAABAAAQQABAAAAAAAAAAAA==

>  <PUBCHEM_IUPAC_OPENEYE_NAME>
6-(6-hydroxybenzofuran-2-yl)-2,2-dimethyl-chromen-5-ol

>  <PUBCHEM_IUPAC_CAS_NAME>
6-(6-hydroxy-2-benzofuranyl)-2,2-dimethyl-1-benzopyran-5-ol

>  <PUBCHEM_IUPAC_NAME>
6-(6-hydroxy-1-benzofuran-2-yl)-2,2-dimethylchromen-5-ol

>  <PUBCHEM_IUPAC_SYSTEMATIC_NAME>
2,2-dimethyl-6-(6-oxidanyl-1-benzofuran-2-yl)chromen-5-ol

>  <PUBCHEM_IUPAC_TRADITIONAL_NAME>
6-(6-hydroxybenzofuran-2-yl)-2,2-dimethyl-chromen-5-ol

>  <PUBCHEM_IUPAC_INCHI>
InChI=1S/C19H16O4/c1-19(2)8-7-14-15(23-19)6-5-13(18(14)21)17-9-11-3-4-12(20)10-16(11)22-17/h3-10,20-21H,1-2H3

>  <PUBCHEM_IUPAC_INCHIKEY>
AOVQEAUIBICOLQ-UHFFFAOYSA-N

>  <PUBCHEM_XLOGP3_AA>
4.2

>  <PUBCHEM_EXACT_MASS>
308.105

>  <PUBCHEM_MOLECULAR_FORMULA>
C19H16O4

>  <PUBCHEM_MOLECULAR_WEIGHT>
308.333

>  <PUBCHEM_OPENEYE_CAN_SMILES>
CC1(C=CC2=C(O1)C=CC(=C2O)C3=CC4=C(O3)C=C(C=C4)O)C

>  <PUBCHEM_OPENEYE_ISO_SMILES>
CC1(C=CC2=C(O1)C=CC(=C2O)C3=CC4=C(O3)C=C(C=C4)O)C

>  <PUBCHEM_CACTVS_TPSA>
62.8

>  <PUBCHEM_MONOISOTOPIC_WEIGHT>
308.105

>  <PUBCHEM_TOTAL_CHARGE>
0

>  <PUBCHEM_HEAVY_ATOM_COUNT>
23

>  <PUBCHEM_ATOM_DEF_STEREO_COUNT>
0

>  <PUBCHEM_ATOM_UDEF_STEREO_COUNT>
0

>  <PUBCHEM_BOND_DEF_STEREO_COUNT>
0

>  <PUBCHEM_BOND_UDEF_STEREO_COUNT>
0

>  <PUBCHEM_ISOTOPIC_ATOM_COUNT>
0

>  <PUBCHEM_COMPONENT_COUNT>
1

>  <PUBCHEM_CACTVS_TAUTO_COUNT>
8

>  <PUBCHEM_COORDINATE_TYPE>
1
5
255

>  <PUBCHEM_BONDANNOTATIONS>
12  13  8
12  16  8
14  18  8
15  16  8
17  18  8
17  19  8
17  20  8
19  21  8
2  14  8
2  19  8
20  23  8
21  22  8
22  23  8
6  13  8
6  7  8
7  15  8

$$$$
