15241411
 OpenBabel06101807152D

 33 32  0  0  1  0  0  0  0  0999 V2000
    4.2690    1.0280    0.0000 O   0  0  0  0  0  0  0  0  0  0  0  0
    2.5369   -0.9720    0.0000 O   0  0  0  0  0  0  0  0  0  0  0  0
    7.7331   -0.9720    0.0000 O   0  0  0  0  0  0  0  0  0  0  0  0
    4.2690    0.0280    0.0000 C   0  0  3  0  0  0  0  0  0  0  0  0
    5.1350   -0.4720    0.0000 C   0  0  0  0  0  0  0  0  0  0  0  0
    3.4030   -0.4720    0.0000 C   0  0  0  0  0  0  0  0  0  0  0  0
    6.0010    0.0280    0.0000 C   0  0  0  0  0  0  0  0  0  0  0  0
    6.8671   -0.4720    0.0000 C   0  0  3  0  0  0  0  0  0  0  0  0
    2.9030    0.3940    0.0000 C   0  0  0  0  0  0  0  0  0  0  0  0
    3.9030   -1.3380    0.0000 C   0  0  0  0  0  0  0  0  0  0  0  0
    6.3671   -1.3380    0.0000 C   0  0  0  0  0  0  0  0  0  0  0  0
    7.3671    0.3940    0.0000 C   0  0  0  0  0  0  0  0  0  0  0  0
    6.8671    1.2601    0.0000 C   0  0  0  0  0  0  0  0  0  0  0  0
    4.8059    0.3380    0.0000 H   0  0  0  0  0  0  0  0  0  0  0  0
    4.7365   -0.9469    0.0000 H   0  0  0  0  0  0  0  0  0  0  0  0
    5.5335   -0.9469    0.0000 H   0  0  0  0  0  0  0  0  0  0  0  0
    6.3996    0.5030    0.0000 H   0  0  0  0  0  0  0  0  0  0  0  0
    5.6025    0.5030    0.0000 H   0  0  0  0  0  0  0  0  0  0  0  0
    3.3660   -1.6480    0.0000 H   0  0  0  0  0  0  0  0  0  0  0  0
    4.2130   -1.8750    0.0000 H   0  0  0  0  0  0  0  0  0  0  0  0
    4.4399   -1.0280    0.0000 H   0  0  0  0  0  0  0  0  0  0  0  0
    3.4399    0.7040    0.0000 H   0  0  0  0  0  0  0  0  0  0  0  0
    2.5930    0.9310    0.0000 H   0  0  0  0  0  0  0  0  0  0  0  0
    2.3660    0.0840    0.0000 H   0  0  0  0  0  0  0  0  0  0  0  0
    5.8301   -1.0280    0.0000 H   0  0  0  0  0  0  0  0  0  0  0  0
    6.0571   -1.8750    0.0000 H   0  0  0  0  0  0  0  0  0  0  0  0
    6.9040   -1.6480    0.0000 H   0  0  0  0  0  0  0  0  0  0  0  0
    7.9871    0.3940    0.0000 H   0  0  0  0  0  0  0  0  0  0  0  0
    4.8059    1.3380    0.0000 H   0  0  0  0  0  0  0  0  0  0  0  0
    2.0000   -0.6620    0.0000 H   0  0  0  0  0  0  0  0  0  0  0  0
    8.2700   -0.6620    0.0000 H   0  0  0  0  0  0  0  0  0  0  0  0
    7.1771    1.7970    0.0000 H   0  0  0  0  0  0  0  0  0  0  0  0
    6.2471    1.2601    0.0000 H   0  0  0  0  0  0  0  0  0  0  0  0
  1  4  1  0  0  0  0
  1 29  1  0  0  0  0
  2  6  1  0  0  0  0
  2 30  1  0  0  0  0
  3  8  1  0  0  0  0
  3 31  1  0  0  0  0
  4  5  1  0  0  0  0
  4  6  1  0  0  0  0
  4 14  1  0  0  0  0
  5  7  1  0  0  0  0
  5 15  1  0  0  0  0
  5 16  1  0  0  0  0
  6  9  1  0  0  0  0
  6 10  1  0  0  0  0
  7  8  1  0  0  0  0
  7 17  1  0  0  0  0
  7 18  1  0  0  0  0
  8 11  1  0  0  0  0
  8 12  1  0  0  0  0
  9 22  1  0  0  0  0
  9 23  1  0  0  0  0
  9 24  1  0  0  0  0
 10 19  1  0  0  0  0
 10 20  1  0  0  0  0
 10 21  1  0  0  0  0
 11 25  1  0  0  0  0
 11 26  1  0  0  0  0
 11 27  1  0  0  0  0
 12 13  2  0  0  0  0
 12 28  1  0  0  0  0
 13 32  1  0  0  0  0
 13 33  1  0  0  0  0
M  END
>  <PUBCHEM_COMPOUND_CID>
15241411

>  <PUBCHEM_COMPOUND_CANONICALIZED>
1

>  <PUBCHEM_CACTVS_COMPLEXITY>
177

>  <PUBCHEM_CACTVS_HBOND_ACCEPTOR>
3

>  <PUBCHEM_CACTVS_HBOND_DONOR>
3

>  <PUBCHEM_CACTVS_ROTATABLE_BOND>
5

>  <PUBCHEM_CACTVS_SUBSKEYS>
AAADceBwMAAAAAAAAAAAAAAAAAAAAAAAAAAAAAAAAAAAAAAAAAAAGgAACAAADFSggAICAAAAAgCAACBCAAAAAAAgAAAIAAAAAAgBFAIAAAAAQAAEgAABEAHA4FQMAAAAAAAAAAAAAAAAAAAAAAAAAAAAAA==

>  <PUBCHEM_IUPAC_OPENEYE_NAME>
2,6-dimethyloct-7-ene-2,3,6-triol

>  <PUBCHEM_IUPAC_CAS_NAME>
2,6-dimethyl-7-octene-2,3,6-triol

>  <PUBCHEM_IUPAC_NAME>
2,6-dimethyloct-7-ene-2,3,6-triol

>  <PUBCHEM_IUPAC_SYSTEMATIC_NAME>
2,6-dimethyloct-7-ene-2,3,6-triol

>  <PUBCHEM_IUPAC_TRADITIONAL_NAME>
2,6-dimethyloct-7-ene-2,3,6-triol

>  <PUBCHEM_IUPAC_INCHI>
InChI=1S/C10H20O3/c1-5-10(4,13)7-6-8(11)9(2,3)12/h5,8,11-13H,1,6-7H2,2-4H3

>  <PUBCHEM_IUPAC_INCHIKEY>
CNYFGLAROLNGDG-UHFFFAOYSA-N

>  <PUBCHEM_XLOGP3_AA>
0.4

>  <PUBCHEM_EXACT_MASS>
188.141

>  <PUBCHEM_MOLECULAR_FORMULA>
C10H20O3

>  <PUBCHEM_MOLECULAR_WEIGHT>
188.267

>  <PUBCHEM_OPENEYE_CAN_SMILES>
CC(C)(C(CCC(C)(C=C)O)O)O

>  <PUBCHEM_OPENEYE_ISO_SMILES>
CC(C)(C(CCC(C)(C=C)O)O)O

>  <PUBCHEM_CACTVS_TPSA>
60.7

>  <PUBCHEM_MONOISOTOPIC_WEIGHT>
188.141

>  <PUBCHEM_TOTAL_CHARGE>
0

>  <PUBCHEM_HEAVY_ATOM_COUNT>
13

>  <PUBCHEM_ATOM_DEF_STEREO_COUNT>
0

>  <PUBCHEM_ATOM_UDEF_STEREO_COUNT>
2

>  <PUBCHEM_BOND_DEF_STEREO_COUNT>
0

>  <PUBCHEM_BOND_UDEF_STEREO_COUNT>
0

>  <PUBCHEM_ISOTOPIC_ATOM_COUNT>
0

>  <PUBCHEM_COMPONENT_COUNT>
1

>  <PUBCHEM_CACTVS_TAUTO_COUNT>
1

>  <PUBCHEM_COORDINATE_TYPE>
1
5
255

>  <PUBCHEM_BONDANNOTATIONS>
4  1  3
8  3  3

$$$$
