15290459
 OpenBabel06101807152D

 38 40  0  0  0  0  0  0  0  0999 V2000
    6.3580   -0.9259    0.0000 O   0  0  0  0  0  0  0  0  0  0  0  0
    4.5981   -1.8913    0.0000 O   0  0  0  0  0  0  0  0  0  0  0  0
    2.8660    1.1087    0.0000 O   0  0  0  0  0  0  0  0  0  0  0  0
    4.5981    2.1087    0.0000 O   0  0  0  0  0  0  0  0  0  0  0  0
    8.1282    1.1329    0.0000 O   0  0  0  0  0  0  0  0  0  0  0  0
    2.8660   -0.8913    0.0000 O   0  0  0  0  0  0  0  0  0  0  0  0
    6.3465    2.1433    0.0000 O   0  0  0  0  0  0  0  0  0  0  0  0
    5.4641    0.6087    0.0000 C   0  0  0  0  0  0  0  0  0  0  0  0
    5.4641   -0.3913    0.0000 C   0  0  0  0  0  0  0  0  0  0  0  0
    4.5981   -0.8913    0.0000 C   0  0  0  0  0  0  0  0  0  0  0  0
    4.5981    1.1087    0.0000 C   0  0  0  0  0  0  0  0  0  0  0  0
    7.2641   -0.4121    0.0000 C   0  0  0  0  0  0  0  0  0  0  0  0
    6.3580    1.1434    0.0000 C   0  0  0  0  0  0  0  0  0  0  0  0
    3.7320    0.6087    0.0000 C   0  0  0  0  0  0  0  0  0  0  0  0
    7.2641    0.6296    0.0000 C   0  0  0  0  0  0  0  0  0  0  0  0
    3.7320   -0.3913    0.0000 C   0  0  0  0  0  0  0  0  0  0  0  0
    8.1282   -0.9154    0.0000 C   0  0  0  0  0  0  0  0  0  0  0  0
    8.1244   -1.9154    0.0000 C   0  0  0  0  0  0  0  0  0  0  0  0
    8.9962   -0.4188    0.0000 C   0  0  0  0  0  0  0  0  0  0  0  0
    8.9884   -2.4187    0.0000 C   0  0  0  0  0  0  0  0  0  0  0  0
    9.8602   -0.9221    0.0000 C   0  0  0  0  0  0  0  0  0  0  0  0
    9.8564   -1.9221    0.0000 C   0  0  0  0  0  0  0  0  0  0  0  0
    3.7320   -2.3913    0.0000 C   0  0  0  0  0  0  0  0  0  0  0  0
    2.0000    0.6087    0.0000 C   0  0  0  0  0  0  0  0  0  0  0  0
    7.5862   -2.2233    0.0000 H   0  0  0  0  0  0  0  0  0  0  0  0
    8.9985    0.2012    0.0000 H   0  0  0  0  0  0  0  0  0  0  0  0
    4.0611    2.4187    0.0000 H   0  0  0  0  0  0  0  0  0  0  0  0
    8.9860   -3.0387    0.0000 H   0  0  0  0  0  0  0  0  0  0  0  0
   10.3984   -0.6142    0.0000 H   0  0  0  0  0  0  0  0  0  0  0  0
    2.3291   -0.5813    0.0000 H   0  0  0  0  0  0  0  0  0  0  0  0
    8.1258    1.7529    0.0000 H   0  0  0  0  0  0  0  0  0  0  0  0
   10.3921   -2.2342    0.0000 H   0  0  0  0  0  0  0  0  0  0  0  0
    3.4220   -1.8543    0.0000 H   0  0  0  0  0  0  0  0  0  0  0  0
    3.1951   -2.7013    0.0000 H   0  0  0  0  0  0  0  0  0  0  0  0
    4.0420   -2.9282    0.0000 H   0  0  0  0  0  0  0  0  0  0  0  0
    1.6900    1.1457    0.0000 H   0  0  0  0  0  0  0  0  0  0  0  0
    1.4631    0.2987    0.0000 H   0  0  0  0  0  0  0  0  0  0  0  0
    2.3100    0.0718    0.0000 H   0  0  0  0  0  0  0  0  0  0  0  0
  1  9  1  0  0  0  0
  1 12  1  0  0  0  0
  2 10  1  0  0  0  0
  2 23  1  0  0  0  0
  3 14  1  0  0  0  0
  3 24  1  0  0  0  0
  4 11  1  0  0  0  0
  4 27  1  0  0  0  0
  5 15  1  0  0  0  0
  5 31  1  0  0  0  0
  6 16  1  0  0  0  0
  6 30  1  0  0  0  0
  7 13  2  0  0  0  0
  8  9  1  0  0  0  0
  8 11  2  0  0  0  0
  8 13  1  0  0  0  0
  9 10  2  0  0  0  0
 10 16  1  0  0  0  0
 11 14  1  0  0  0  0
 12 15  2  0  0  0  0
 12 17  1  0  0  0  0
 13 15  1  0  0  0  0
 14 16  2  0  0  0  0
 17 18  2  0  0  0  0
 17 19  1  0  0  0  0
 18 20  1  0  0  0  0
 18 25  1  0  0  0  0
 19 21  2  0  0  0  0
 19 26  1  0  0  0  0
 20 22  2  0  0  0  0
 20 28  1  0  0  0  0
 21 22  1  0  0  0  0
 21 29  1  0  0  0  0
 22 32  1  0  0  0  0
 23 33  1  0  0  0  0
 23 34  1  0  0  0  0
 23 35  1  0  0  0  0
 24 36  1  0  0  0  0
 24 37  1  0  0  0  0
 24 38  1  0  0  0  0
M  END
>  <PUBCHEM_COMPOUND_CID>
15290459

>  <PUBCHEM_COMPOUND_CANONICALIZED>
1

>  <PUBCHEM_CACTVS_COMPLEXITY>
511

>  <PUBCHEM_CACTVS_HBOND_ACCEPTOR>
7

>  <PUBCHEM_CACTVS_HBOND_DONOR>
3

>  <PUBCHEM_CACTVS_ROTATABLE_BOND>
3

>  <PUBCHEM_CACTVS_SUBSKEYS>
AAADccB4OAAAAAAAAAAAAAAAAAAAAAAAAAAwYIAAAAAAAACBQAAAGgAACAAADASAmAIyBoAABgCIAqBSAAICCAAkIAAIiAFEiMgNJzaGNRqCeWOl4BULuQfK7LzOIQABCAAIQABCAAIQABCAAAAAAAAAAA==

>  <PUBCHEM_IUPAC_OPENEYE_NAME>
3,5,7-trihydroxy-6,8-dimethoxy-2-phenyl-chromen-4-one

>  <PUBCHEM_IUPAC_CAS_NAME>
3,5,7-trihydroxy-6,8-dimethoxy-2-phenyl-1-benzopyran-4-one

>  <PUBCHEM_IUPAC_NAME>
3,5,7-trihydroxy-6,8-dimethoxy-2-phenylchromen-4-one

>  <PUBCHEM_IUPAC_SYSTEMATIC_NAME>
6,8-dimethoxy-3,5,7-tris(oxidanyl)-2-phenyl-chromen-4-one

>  <PUBCHEM_IUPAC_TRADITIONAL_NAME>
3,5,7-trihydroxy-6,8-dimethoxy-2-phenyl-chromone

>  <PUBCHEM_IUPAC_INCHI>
InChI=1S/C17H14O7/c1-22-16-11(19)9-10(18)12(20)14(8-6-4-3-5-7-8)24-15(9)17(23-2)13(16)21/h3-7,19-21H,1-2H3

>  <PUBCHEM_IUPAC_INCHIKEY>
OAFYQEVUFFOPBR-UHFFFAOYSA-N

>  <PUBCHEM_XLOGP3_AA>
2.8

>  <PUBCHEM_EXACT_MASS>
330.074

>  <PUBCHEM_MOLECULAR_FORMULA>
C17H14O7

>  <PUBCHEM_MOLECULAR_WEIGHT>
330.292

>  <PUBCHEM_OPENEYE_CAN_SMILES>
COC1=C(C2=C(C(=C1O)OC)OC(=C(C2=O)O)C3=CC=CC=C3)O

>  <PUBCHEM_OPENEYE_ISO_SMILES>
COC1=C(C2=C(C(=C1O)OC)OC(=C(C2=O)O)C3=CC=CC=C3)O

>  <PUBCHEM_CACTVS_TPSA>
105

>  <PUBCHEM_MONOISOTOPIC_WEIGHT>
330.074

>  <PUBCHEM_TOTAL_CHARGE>
0

>  <PUBCHEM_HEAVY_ATOM_COUNT>
24

>  <PUBCHEM_ATOM_DEF_STEREO_COUNT>
0

>  <PUBCHEM_ATOM_UDEF_STEREO_COUNT>
0

>  <PUBCHEM_BOND_DEF_STEREO_COUNT>
0

>  <PUBCHEM_BOND_UDEF_STEREO_COUNT>
0

>  <PUBCHEM_ISOTOPIC_ATOM_COUNT>
0

>  <PUBCHEM_COMPONENT_COUNT>
1

>  <PUBCHEM_CACTVS_TAUTO_COUNT>
24

>  <PUBCHEM_COORDINATE_TYPE>
1
5
255

>  <PUBCHEM_BONDANNOTATIONS>
1  12  8
1  9  8
10  16  8
11  14  8
12  15  8
13  15  8
14  16  8
17  18  8
17  19  8
18  20  8
19  21  8
20  22  8
21  22  8
8  11  8
8  13  8
8  9  8
9  10  8

$$$$
