15379040
 OpenBabel06101807152D

 30 32  0  0  0  0  0  0  0  0999 V2000
    4.6660   -0.9031    0.0000 O   0  0  0  0  0  0  0  0  0  0  0  0
    2.9176   -1.9377    0.0000 O   0  0  0  0  0  0  0  0  0  0  0  0
    6.4144    2.1315    0.0000 O   0  0  0  0  0  0  0  0  0  0  0  0
    4.6660    2.0969    0.0000 O   0  0  0  0  0  0  0  0  0  0  0  0
    8.1962    1.1211    0.0000 O   0  0  0  0  0  0  0  0  0  0  0  0
    8.1962   -0.9273    0.0000 O   0  0  0  0  0  0  0  0  0  0  0  0
    5.5321    0.5969    0.0000 C   0  0  0  0  0  0  0  0  0  0  0  0
    3.8000    0.5969    0.0000 C   0  0  0  0  0  0  0  0  0  0  0  0
    5.5321   -0.4031    0.0000 C   0  0  0  0  0  0  0  0  0  0  0  0
    3.8000   -0.4031    0.0000 C   0  0  0  0  0  0  0  0  0  0  0  0
    4.6660    1.0969    0.0000 C   0  0  0  0  0  0  0  0  0  0  0  0
    6.4260    1.1316    0.0000 C   0  0  0  0  0  0  0  0  0  0  0  0
    2.9061   -0.9378    0.0000 C   0  0  0  0  0  0  0  0  0  0  0  0
    6.4260   -0.9378    0.0000 C   0  0  0  0  0  0  0  0  0  0  0  0
    2.9061    1.1316    0.0000 C   0  0  0  0  0  0  0  0  0  0  0  0
    7.3321    0.6177    0.0000 C   0  0  0  0  0  0  0  0  0  0  0  0
    7.3321   -0.4239    0.0000 C   0  0  0  0  0  0  0  0  0  0  0  0
    2.0000   -0.4239    0.0000 C   0  0  0  0  0  0  0  0  0  0  0  0
    2.0000    0.6177    0.0000 C   0  0  0  0  0  0  0  0  0  0  0  0
    2.0574   -2.4477    0.0000 C   0  0  0  0  0  0  0  0  0  0  0  0
    6.4188   -1.5577    0.0000 H   0  0  0  0  0  0  0  0  0  0  0  0
    2.9132    1.7515    0.0000 H   0  0  0  0  0  0  0  0  0  0  0  0
    1.4643   -0.7360    0.0000 H   0  0  0  0  0  0  0  0  0  0  0  0
    1.4643    0.9298    0.0000 H   0  0  0  0  0  0  0  0  0  0  0  0
    6.9478    2.4477    0.0000 H   0  0  0  0  0  0  0  0  0  0  0  0
    8.7343    0.8131    0.0000 H   0  0  0  0  0  0  0  0  0  0  0  0
    8.1938   -1.5472    0.0000 H   0  0  0  0  0  0  0  0  0  0  0  0
    1.7413   -1.9144    0.0000 H   0  0  0  0  0  0  0  0  0  0  0  0
    1.5241   -2.7639    0.0000 H   0  0  0  0  0  0  0  0  0  0  0  0
    2.3736   -2.9810    0.0000 H   0  0  0  0  0  0  0  0  0  0  0  0
  1  9  1  0  0  0  0
  1 10  1  0  0  0  0
  2 13  1  0  0  0  0
  2 20  1  0  0  0  0
  3 12  1  0  0  0  0
  3 25  1  0  0  0  0
  4 11  2  0  0  0  0
  5 16  1  0  0  0  0
  5 26  1  0  0  0  0
  6 17  1  0  0  0  0
  6 27  1  0  0  0  0
  7  9  2  0  0  0  0
  7 11  1  0  0  0  0
  7 12  1  0  0  0  0
  8 10  2  0  0  0  0
  8 11  1  0  0  0  0
  8 15  1  0  0  0  0
  9 14  1  0  0  0  0
 10 13  1  0  0  0  0
 12 16  2  0  0  0  0
 13 18  2  0  0  0  0
 14 17  2  0  0  0  0
 14 21  1  0  0  0  0
 15 19  2  0  0  0  0
 15 22  1  0  0  0  0
 16 17  1  0  0  0  0
 18 19  1  0  0  0  0
 18 23  1  0  0  0  0
 19 24  1  0  0  0  0
 20 28  1  0  0  0  0
 20 29  1  0  0  0  0
 20 30  1  0  0  0  0
M  END
>  <PUBCHEM_COMPOUND_CID>
15379040

>  <PUBCHEM_COMPOUND_CANONICALIZED>
1

>  <PUBCHEM_CACTVS_COMPLEXITY>
386

>  <PUBCHEM_CACTVS_HBOND_ACCEPTOR>
6

>  <PUBCHEM_CACTVS_HBOND_DONOR>
3

>  <PUBCHEM_CACTVS_ROTATABLE_BOND>
1

>  <PUBCHEM_CACTVS_SUBSKEYS>
AAADccBwOAAAAAAAAAAAAAAAAAAAAAAAAAA0YIAAAAAAAACRQAAAGgAACAAADASAmAIyBoAABgCIAqBSAAACCAAkIAAIiAEGiMgNJzaGNRqCeWOl4BULuYfK7PzOIQABCAAIQABCAAIQABCAAAAAAAAAAA==

>  <PUBCHEM_IUPAC_OPENEYE_NAME>
1,2,3-trihydroxy-5-methoxy-xanthen-9-one

>  <PUBCHEM_IUPAC_CAS_NAME>
1,2,3-trihydroxy-5-methoxy-9-xanthenone

>  <PUBCHEM_IUPAC_NAME>
1,2,3-trihydroxy-5-methoxyxanthen-9-one

>  <PUBCHEM_IUPAC_SYSTEMATIC_NAME>
5-methoxy-1,2,3-tris(oxidanyl)xanthen-9-one

>  <PUBCHEM_IUPAC_TRADITIONAL_NAME>
1,2,3-trihydroxy-5-methoxy-xanthone

>  <PUBCHEM_IUPAC_INCHI>
InChI=1S/C14H10O6/c1-19-8-4-2-3-6-11(16)10-9(20-14(6)8)5-7(15)12(17)13(10)18/h2-5,15,17-18H,1H3

>  <PUBCHEM_IUPAC_INCHIKEY>
ZKDXDGJSBPWWEM-UHFFFAOYSA-N

>  <PUBCHEM_XLOGP3_AA>
2.4

>  <PUBCHEM_EXACT_MASS>
274.048

>  <PUBCHEM_MOLECULAR_FORMULA>
C14H10O6

>  <PUBCHEM_MOLECULAR_WEIGHT>
274.228

>  <PUBCHEM_OPENEYE_CAN_SMILES>
COC1=CC=CC2=C1OC3=CC(=C(C(=C3C2=O)O)O)O

>  <PUBCHEM_OPENEYE_ISO_SMILES>
COC1=CC=CC2=C1OC3=CC(=C(C(=C3C2=O)O)O)O

>  <PUBCHEM_CACTVS_TPSA>
96.2

>  <PUBCHEM_MONOISOTOPIC_WEIGHT>
274.048

>  <PUBCHEM_TOTAL_CHARGE>
0

>  <PUBCHEM_HEAVY_ATOM_COUNT>
20

>  <PUBCHEM_ATOM_DEF_STEREO_COUNT>
0

>  <PUBCHEM_ATOM_UDEF_STEREO_COUNT>
0

>  <PUBCHEM_BOND_DEF_STEREO_COUNT>
0

>  <PUBCHEM_BOND_UDEF_STEREO_COUNT>
0

>  <PUBCHEM_ISOTOPIC_ATOM_COUNT>
0

>  <PUBCHEM_COMPONENT_COUNT>
1

>  <PUBCHEM_CACTVS_TAUTO_COUNT>
20

>  <PUBCHEM_COORDINATE_TYPE>
1
5
255

>  <PUBCHEM_BONDANNOTATIONS>
1  10  8
1  9  8
10  13  8
12  16  8
13  18  8
14  17  8
15  19  8
16  17  8
18  19  8
7  11  8
7  12  8
7  9  8
8  10  8
8  11  8
8  15  8
9  14  8

$$$$
