15380912
 OpenBabel06101807152D

 41 44  0  0  0  0  0  0  0  0999 V2000
    9.8984    1.1276    0.0000 O   0  0  0  0  0  0  0  0  0  0  0  0
    6.3624    1.1555    0.0000 O   0  0  0  0  0  0  0  0  0  0  0  0
    4.5923    1.1450    0.0000 O   0  0  0  0  0  0  0  0  0  0  0  0
    3.7205    0.5933    0.0000 O   0  0  0  0  0  0  0  0  0  0  0  0
    2.0000   -2.4134    0.0000 O   0  0  0  0  0  0  0  0  0  0  0  0
    9.9065    2.1692    0.0000 C   0  0  0  0  0  0  0  0  0  0  0  0
    8.1224    1.1208    0.0000 C   0  0  0  0  0  0  0  0  0  0  0  0
    8.9884    0.6208    0.0000 C   0  0  0  0  0  0  0  0  0  0  0  0
    9.0044    2.6901    0.0000 C   0  0  0  0  0  0  0  0  0  0  0  0
    7.2564    0.6208    0.0000 C   0  0  0  0  0  0  0  0  0  0  0  0
    8.1063    2.1623    0.0000 C   0  0  0  0  0  0  0  0  0  0  0  0
   10.4098    3.0333    0.0000 C   0  0  0  0  0  0  0  0  0  0  0  0
   10.9065    2.1654    0.0000 C   0  0  0  0  0  0  0  0  0  0  0  0
    7.2564   -0.3792    0.0000 C   0  0  0  0  0  0  0  0  0  0  0  0
    8.9884   -0.3792    0.0000 C   0  0  0  0  0  0  0  0  0  0  0  0
    8.1224   -0.8792    0.0000 C   0  0  0  0  0  0  0  0  0  0  0  0
    6.3624   -0.9139    0.0000 C   0  0  0  0  0  0  0  0  0  0  0  0
    5.4564   -0.4000    0.0000 C   0  0  0  0  0  0  0  0  0  0  0  0
    5.4564    0.6416    0.0000 C   0  0  0  0  0  0  0  0  0  0  0  0
    4.5923   -0.9033    0.0000 C   0  0  0  0  0  0  0  0  0  0  0  0
    3.7243   -0.4067    0.0000 C   0  0  0  0  0  0  0  0  0  0  0  0
    4.5961   -1.9033    0.0000 C   0  0  0  0  0  0  0  0  0  0  0  0
    2.8602   -0.9100    0.0000 C   0  0  0  0  0  0  0  0  0  0  0  0
    3.7320   -2.4067    0.0000 C   0  0  0  0  0  0  0  0  0  0  0  0
    2.8641   -1.9100    0.0000 C   0  0  0  0  0  0  0  0  0  0  0  0
    9.0020    3.3101    0.0000 H   0  0  0  0  0  0  0  0  0  0  0  0
    7.5659    2.4661    0.0000 H   0  0  0  0  0  0  0  0  0  0  0  0
   10.9455    2.7213    0.0000 H   0  0  0  0  0  0  0  0  0  0  0  0
   10.7219    3.5691    0.0000 H   0  0  0  0  0  0  0  0  0  0  0  0
   10.9041    1.5454    0.0000 H   0  0  0  0  0  0  0  0  0  0  0  0
   11.5264    2.1630    0.0000 H   0  0  0  0  0  0  0  0  0  0  0  0
   10.9088    2.7854    0.0000 H   0  0  0  0  0  0  0  0  0  0  0  0
    9.8740    3.3454    0.0000 H   0  0  0  0  0  0  0  0  0  0  0  0
    9.5254   -0.6892    0.0000 H   0  0  0  0  0  0  0  0  0  0  0  0
    8.1224   -1.4992    0.0000 H   0  0  0  0  0  0  0  0  0  0  0  0
    6.3696   -1.5338    0.0000 H   0  0  0  0  0  0  0  0  0  0  0  0
    5.1343   -2.2113    0.0000 H   0  0  0  0  0  0  0  0  0  0  0  0
    2.3221   -0.6021    0.0000 H   0  0  0  0  0  0  0  0  0  0  0  0
    3.7344   -3.0267    0.0000 H   0  0  0  0  0  0  0  0  0  0  0  0
    3.1824    0.9012    0.0000 H   0  0  0  0  0  0  0  0  0  0  0  0
    2.0024   -3.0333    0.0000 H   0  0  0  0  0  0  0  0  0  0  0  0
  1  6  1  0  0  0  0
  1  8  1  0  0  0  0
  2 10  1  0  0  0  0
  2 19  1  0  0  0  0
  3 19  2  0  0  0  0
  4 21  1  0  0  0  0
  4 40  1  0  0  0  0
  5 25  1  0  0  0  0
  5 41  1  0  0  0  0
  6  9  1  0  0  0  0
  6 12  1  0  0  0  0
  6 13  1  0  0  0  0
  7  8  2  0  0  0  0
  7 10  1  0  0  0  0
  7 11  1  0  0  0  0
  8 15  1  0  0  0  0
  9 11  2  0  0  0  0
  9 26  1  0  0  0  0
 10 14  2  0  0  0  0
 11 27  1  0  0  0  0
 12 28  1  0  0  0  0
 12 29  1  0  0  0  0
 12 33  1  0  0  0  0
 13 30  1  0  0  0  0
 13 31  1  0  0  0  0
 13 32  1  0  0  0  0
 14 16  1  0  0  0  0
 14 17  1  0  0  0  0
 15 16  2  0  0  0  0
 15 34  1  0  0  0  0
 16 35  1  0  0  0  0
 17 18  2  0  0  0  0
 17 36  1  0  0  0  0
 18 19  1  0  0  0  0
 18 20  1  0  0  0  0
 20 21  2  0  0  0  0
 20 22  1  0  0  0  0
 21 23  1  0  0  0  0
 22 24  2  0  0  0  0
 22 37  1  0  0  0  0
 23 25  2  0  0  0  0
 23 38  1  0  0  0  0
 24 25  1  0  0  0  0
 24 39  1  0  0  0  0
M  END
>  <PUBCHEM_COMPOUND_CID>
15380912

>  <PUBCHEM_COMPOUND_CANONICALIZED>
1

>  <PUBCHEM_CACTVS_COMPLEXITY>
607

>  <PUBCHEM_CACTVS_HBOND_ACCEPTOR>
5

>  <PUBCHEM_CACTVS_HBOND_DONOR>
2

>  <PUBCHEM_CACTVS_ROTATABLE_BOND>
1

>  <PUBCHEM_CACTVS_SUBSKEYS>
AAADceB4OAAAAAAAAAAAAAAAAAAAAAAAAAAwYIEAAAAAAACBQAAAGgAACAAADESAmAAyDoAABgCIAiDSCAACCAAgIAAIiAEGCMgMJzKGNRqCeiClwBUIuYfK6OyOIAACCAAIAABAAAQQABAAAAAAAAAAAA==

>  <PUBCHEM_IUPAC_OPENEYE_NAME>
3-(2,4-dihydroxyphenyl)-8,8-dimethyl-pyrano[2,3-f]chromen-2-one

>  <PUBCHEM_IUPAC_CAS_NAME>
3-(2,4-dihydroxyphenyl)-8,8-dimethyl-2-pyrano[2,3-f][1]benzopyranone

>  <PUBCHEM_IUPAC_NAME>
3-(2,4-dihydroxyphenyl)-8,8-dimethylpyrano[2,3-f]chromen-2-one

>  <PUBCHEM_IUPAC_SYSTEMATIC_NAME>
3-[2,4-bis(oxidanyl)phenyl]-8,8-dimethyl-pyrano[2,3-f]chromen-2-one

>  <PUBCHEM_IUPAC_TRADITIONAL_NAME>
3-(2,4-dihydroxyphenyl)-8,8-dimethyl-pyrano[2,3-f]chromen-2-one

>  <PUBCHEM_IUPAC_INCHI>
InChI=1S/C20H16O5/c1-20(2)8-7-14-17(25-20)6-3-11-9-15(19(23)24-18(11)14)13-5-4-12(21)10-16(13)22/h3-10,21-22H,1-2H3

>  <PUBCHEM_IUPAC_INCHIKEY>
VFIXONREXXFDQV-UHFFFAOYSA-N

>  <PUBCHEM_XLOGP3_AA>
3.8

>  <PUBCHEM_EXACT_MASS>
336.1

>  <PUBCHEM_MOLECULAR_FORMULA>
C20H16O5

>  <PUBCHEM_MOLECULAR_WEIGHT>
336.343

>  <PUBCHEM_OPENEYE_CAN_SMILES>
CC1(C=CC2=C(O1)C=CC3=C2OC(=O)C(=C3)C4=C(C=C(C=C4)O)O)C

>  <PUBCHEM_OPENEYE_ISO_SMILES>
CC1(C=CC2=C(O1)C=CC3=C2OC(=O)C(=C3)C4=C(C=C(C=C4)O)O)C

>  <PUBCHEM_CACTVS_TPSA>
76

>  <PUBCHEM_MONOISOTOPIC_WEIGHT>
336.1

>  <PUBCHEM_TOTAL_CHARGE>
0

>  <PUBCHEM_HEAVY_ATOM_COUNT>
25

>  <PUBCHEM_ATOM_DEF_STEREO_COUNT>
0

>  <PUBCHEM_ATOM_UDEF_STEREO_COUNT>
0

>  <PUBCHEM_BOND_DEF_STEREO_COUNT>
0

>  <PUBCHEM_BOND_UDEF_STEREO_COUNT>
0

>  <PUBCHEM_ISOTOPIC_ATOM_COUNT>
0

>  <PUBCHEM_COMPONENT_COUNT>
1

>  <PUBCHEM_CACTVS_TAUTO_COUNT>
12

>  <PUBCHEM_COORDINATE_TYPE>
1
5
255

>  <PUBCHEM_BONDANNOTATIONS>
10  14  8
14  16  8
14  17  8
15  16  8
17  18  8
18  19  8
2  10  8
2  19  8
20  21  8
20  22  8
21  23  8
22  24  8
23  25  8
24  25  8
7  10  8
7  8  8
8  15  8

$$$$
