15484930
 OpenBabel06101807152D

 36 38  0  0  0  0  0  0  0  0999 V2000
    4.6497   -2.3019    0.0000 O   0  0  0  0  0  0  0  0  0  0  0  0
    4.6497    1.7673    0.0000 O   0  0  0  0  0  0  0  0  0  0  0  0
    2.8680   -1.2915    0.0000 C   0  0  0  0  0  0  0  0  0  0  0  0
    5.5320    0.2327    0.0000 C   0  0  0  0  0  0  0  0  0  0  0  0
    3.7320   -0.7881    0.0000 C   0  0  0  0  0  0  0  0  0  0  0  0
    5.5320   -0.7673    0.0000 C   0  0  0  0  0  0  0  0  0  0  0  0
    6.3981    0.7327    0.0000 C   0  0  0  0  0  0  0  0  0  0  0  0
    7.2641    0.2327    0.0000 C   0  0  0  0  0  0  0  0  0  0  0  0
    4.6381   -1.3020    0.0000 C   0  0  0  0  0  0  0  0  0  0  0  0
    4.6381    0.7673    0.0000 C   0  0  0  0  0  0  0  0  0  0  0  0
    3.7320    0.2535    0.0000 C   0  0  0  0  0  0  0  0  0  0  0  0
    6.3981   -1.2673    0.0000 C   0  0  0  0  0  0  0  0  0  0  0  0
    7.2641   -0.7673    0.0000 C   0  0  0  0  0  0  0  0  0  0  0  0
    8.1741    0.7395    0.0000 C   0  0  0  0  0  0  0  0  0  0  0  0
    2.0000   -0.7948    0.0000 C   0  0  0  0  0  0  0  0  0  0  0  0
    2.8718   -2.2915    0.0000 C   0  0  0  0  0  0  0  0  0  0  0  0
    6.3820    1.7742    0.0000 C   0  0  0  0  0  0  0  0  0  0  0  0
    8.1821    1.7811    0.0000 C   0  0  0  0  0  0  0  0  0  0  0  0
    7.2800    2.3019    0.0000 C   0  0  0  0  0  0  0  0  0  0  0  0
    9.0343    0.2295    0.0000 C   0  0  0  0  0  0  0  0  0  0  0  0
    2.3322   -1.6036    0.0000 H   0  0  0  0  0  0  0  0  0  0  0  0
    3.1963    0.5655    0.0000 H   0  0  0  0  0  0  0  0  0  0  0  0
    6.3981   -1.8873    0.0000 H   0  0  0  0  0  0  0  0  0  0  0  0
    7.8010   -1.0773    0.0000 H   0  0  0  0  0  0  0  0  0  0  0  0
    2.3079   -0.2567    0.0000 H   0  0  0  0  0  0  0  0  0  0  0  0
    1.4619   -0.4869    0.0000 H   0  0  0  0  0  0  0  0  0  0  0  0
    1.6921   -1.3330    0.0000 H   0  0  0  0  0  0  0  0  0  0  0  0
    2.2518   -2.2939    0.0000 H   0  0  0  0  0  0  0  0  0  0  0  0
    2.8742   -2.9115    0.0000 H   0  0  0  0  0  0  0  0  0  0  0  0
    3.4918   -2.2891    0.0000 H   0  0  0  0  0  0  0  0  0  0  0  0
    5.8415    2.0779    0.0000 H   0  0  0  0  0  0  0  0  0  0  0  0
    8.7203    2.0890    0.0000 H   0  0  0  0  0  0  0  0  0  0  0  0
    7.2777    2.9219    0.0000 H   0  0  0  0  0  0  0  0  0  0  0  0
    8.7181   -0.3038    0.0000 H   0  0  0  0  0  0  0  0  0  0  0  0
    9.5676   -0.0867    0.0000 H   0  0  0  0  0  0  0  0  0  0  0  0
    9.3505    0.7628    0.0000 H   0  0  0  0  0  0  0  0  0  0  0  0
  1  9  2  0  0  0  0
  2 10  2  0  0  0  0
  3  5  1  0  0  0  0
  3 15  1  0  0  0  0
  3 16  1  0  0  0  0
  3 21  1  0  0  0  0
  4  6  2  0  0  0  0
  4  7  1  0  0  0  0
  4 10  1  0  0  0  0
  5  9  1  0  0  0  0
  5 11  2  0  0  0  0
  6  9  1  0  0  0  0
  6 12  1  0  0  0  0
  7  8  1  0  0  0  0
  7 17  2  0  0  0  0
  8 13  1  0  0  0  0
  8 14  2  0  0  0  0
 10 11  1  0  0  0  0
 11 22  1  0  0  0  0
 12 13  2  0  0  0  0
 12 23  1  0  0  0  0
 13 24  1  0  0  0  0
 14 18  1  0  0  0  0
 14 20  1  0  0  0  0
 15 25  1  0  0  0  0
 15 26  1  0  0  0  0
 15 27  1  0  0  0  0
 16 28  1  0  0  0  0
 16 29  1  0  0  0  0
 16 30  1  0  0  0  0
 17 19  1  0  0  0  0
 17 31  1  0  0  0  0
 18 19  2  0  0  0  0
 18 32  1  0  0  0  0
 19 33  1  0  0  0  0
 20 34  1  0  0  0  0
 20 35  1  0  0  0  0
 20 36  1  0  0  0  0
M  END
>  <PUBCHEM_COMPOUND_CID>
15484930

>  <PUBCHEM_COMPOUND_CANONICALIZED>
1

>  <PUBCHEM_CACTVS_COMPLEXITY>
460

>  <PUBCHEM_CACTVS_HBOND_ACCEPTOR>
2

>  <PUBCHEM_CACTVS_HBOND_DONOR>
0

>  <PUBCHEM_CACTVS_ROTATABLE_BOND>
1

>  <PUBCHEM_CACTVS_SUBSKEYS>
AAADceB4MAAAAAAAAAAAAAAAAAAAAAAAAAAwYIAAAAAAAADBUAAAGgAAAAAADQSAmAAyAMAAAACIAqBSAAACAAAkAAAIiAEAAMgIIDKAFRCAIQAggAAIiYcJiMCOwAACAAAQAACAAAQAACAAAAAAAAAAAA==

>  <PUBCHEM_IUPAC_OPENEYE_NAME>
2-isopropyl-8-methyl-phenanthrene-1,4-dione

>  <PUBCHEM_IUPAC_CAS_NAME>
8-methyl-2-propan-2-ylphenanthrene-1,4-dione

>  <PUBCHEM_IUPAC_NAME>
8-methyl-2-propan-2-ylphenanthrene-1,4-dione

>  <PUBCHEM_IUPAC_SYSTEMATIC_NAME>
8-methyl-2-propan-2-yl-phenanthrene-1,4-dione

>  <PUBCHEM_IUPAC_TRADITIONAL_NAME>
2-isopropyl-8-methyl-phenanthrene-1,4-quinone

>  <PUBCHEM_IUPAC_INCHI>
InChI=1S/C18H16O2/c1-10(2)15-9-16(19)17-13-6-4-5-11(3)12(13)7-8-14(17)18(15)20/h4-10H,1-3H3

>  <PUBCHEM_IUPAC_INCHIKEY>
XFSVVSSHBNDWTE-UHFFFAOYSA-N

>  <PUBCHEM_XLOGP3_AA>
4.2

>  <PUBCHEM_EXACT_MASS>
264.115

>  <PUBCHEM_MOLECULAR_FORMULA>
C18H16O2

>  <PUBCHEM_MOLECULAR_WEIGHT>
264.324

>  <PUBCHEM_OPENEYE_CAN_SMILES>
CC1=CC=CC2=C1C=CC3=C2C(=O)C=C(C3=O)C(C)C

>  <PUBCHEM_OPENEYE_ISO_SMILES>
CC1=CC=CC2=C1C=CC3=C2C(=O)C=C(C3=O)C(C)C

>  <PUBCHEM_CACTVS_TPSA>
34.1

>  <PUBCHEM_MONOISOTOPIC_WEIGHT>
264.115

>  <PUBCHEM_TOTAL_CHARGE>
0

>  <PUBCHEM_HEAVY_ATOM_COUNT>
20

>  <PUBCHEM_ATOM_DEF_STEREO_COUNT>
0

>  <PUBCHEM_ATOM_UDEF_STEREO_COUNT>
0

>  <PUBCHEM_BOND_DEF_STEREO_COUNT>
0

>  <PUBCHEM_BOND_UDEF_STEREO_COUNT>
0

>  <PUBCHEM_ISOTOPIC_ATOM_COUNT>
0

>  <PUBCHEM_COMPONENT_COUNT>
1

>  <PUBCHEM_CACTVS_TAUTO_COUNT>
7

>  <PUBCHEM_COORDINATE_TYPE>
1
5
255

>  <PUBCHEM_BONDANNOTATIONS>
12  13  8
14  18  8
17  19  8
18  19  8
4  6  8
4  7  8
6  12  8
7  17  8
7  8  8
8  13  8
8  14  8

$$$$
