15480861
 OpenBabel06101807152D

 28 30  0  0  0  0  0  0  0  0999 V2000
    6.0812   -0.1702    0.0000 O   0  0  0  0  0  0  0  0  0  0  0  0
    7.6648   -1.0976    0.0000 O   0  0  0  0  0  0  0  0  0  0  0  0
    2.5369   -0.3655    0.0000 O   0  0  0  0  0  0  0  0  0  0  0  0
   10.6648    0.6345    0.0000 O   0  0  0  0  0  0  0  0  0  0  0  0
    5.1350    1.1345    0.0000 C   0  0  0  0  0  0  0  0  0  0  0  0
    6.6648    0.6345    0.0000 C   0  0  0  0  0  0  0  0  0  0  0  0
    5.1350    0.1345    0.0000 C   0  0  0  0  0  0  0  0  0  0  0  0
    7.6648    0.6345    0.0000 C   0  0  0  0  0  0  0  0  0  0  0  0
    6.0812    1.4392    0.0000 C   0  0  0  0  0  0  0  0  0  0  0  0
    4.2690    1.6345    0.0000 C   0  0  0  0  0  0  0  0  0  0  0  0
    4.2690   -0.3655    0.0000 C   0  0  0  0  0  0  0  0  0  0  0  0
    8.1648   -0.2315    0.0000 C   0  0  0  0  0  0  0  0  0  0  0  0
    8.1648    1.5005    0.0000 C   0  0  0  0  0  0  0  0  0  0  0  0
    3.4030    0.1345    0.0000 C   0  0  0  0  0  0  0  0  0  0  0  0
    3.4030    1.1345    0.0000 C   0  0  0  0  0  0  0  0  0  0  0  0
    9.1648   -0.2315    0.0000 C   0  0  0  0  0  0  0  0  0  0  0  0
    9.1648    1.5005    0.0000 C   0  0  0  0  0  0  0  0  0  0  0  0
    9.6648    0.6345    0.0000 C   0  0  0  0  0  0  0  0  0  0  0  0
    6.2738    2.0286    0.0000 H   0  0  0  0  0  0  0  0  0  0  0  0
    4.2690    2.2545    0.0000 H   0  0  0  0  0  0  0  0  0  0  0  0
    4.2690   -0.9855    0.0000 H   0  0  0  0  0  0  0  0  0  0  0  0
    7.8548    2.0375    0.0000 H   0  0  0  0  0  0  0  0  0  0  0  0
    2.8660    1.4445    0.0000 H   0  0  0  0  0  0  0  0  0  0  0  0
    9.4748   -0.7685    0.0000 H   0  0  0  0  0  0  0  0  0  0  0  0
    9.4748    2.0375    0.0000 H   0  0  0  0  0  0  0  0  0  0  0  0
    7.9748   -1.6345    0.0000 H   0  0  0  0  0  0  0  0  0  0  0  0
    2.0000   -0.0555    0.0000 H   0  0  0  0  0  0  0  0  0  0  0  0
   10.9748    1.1714    0.0000 H   0  0  0  0  0  0  0  0  0  0  0  0
  1  6  1  0  0  0  0
  1  7  1  0  0  0  0
  2 12  1  0  0  0  0
  2 26  1  0  0  0  0
  3 14  1  0  0  0  0
  3 27  1  0  0  0  0
  4 18  1  0  0  0  0
  4 28  1  0  0  0  0
  5  7  2  0  0  0  0
  5  9  1  0  0  0  0
  5 10  1  0  0  0  0
  6  8  1  0  0  0  0
  6  9  2  0  0  0  0
  7 11  1  0  0  0  0
  8 12  2  0  0  0  0
  8 13  1  0  0  0  0
  9 19  1  0  0  0  0
 10 15  2  0  0  0  0
 10 20  1  0  0  0  0
 11 14  2  0  0  0  0
 11 21  1  0  0  0  0
 12 16  1  0  0  0  0
 13 17  2  0  0  0  0
 13 22  1  0  0  0  0
 14 15  1  0  0  0  0
 15 23  1  0  0  0  0
 16 18  2  0  0  0  0
 16 24  1  0  0  0  0
 17 18  1  0  0  0  0
 17 25  1  0  0  0  0
M  END
>  <PUBCHEM_COMPOUND_CID>
15480861

>  <PUBCHEM_COMPOUND_CANONICALIZED>
1

>  <PUBCHEM_CACTVS_COMPLEXITY>
296

>  <PUBCHEM_CACTVS_HBOND_ACCEPTOR>
4

>  <PUBCHEM_CACTVS_HBOND_DONOR>
3

>  <PUBCHEM_CACTVS_ROTATABLE_BOND>
1

>  <PUBCHEM_CACTVS_SUBSKEYS>
AAADccBwOAAAAAAAAAAAAAAAAAAAASAAAAAwYAAAAAAAAEgB9AAAGgAACAAADASAmAAwBsAABkCIAqBSAAACCAAkIAAIiAEGCMgMJzaGNRqCeWCl4BUIuYeI7PzOIAAACAAIAABAAAAQABAAAAAAAAAAAA==

>  <PUBCHEM_IUPAC_OPENEYE_NAME>
4-(6-hydroxybenzofuran-2-yl)benzene-1,3-diol

>  <PUBCHEM_IUPAC_CAS_NAME>
4-(6-hydroxy-2-benzofuranyl)benzene-1,3-diol

>  <PUBCHEM_IUPAC_NAME>
4-(6-hydroxy-1-benzofuran-2-yl)benzene-1,3-diol

>  <PUBCHEM_IUPAC_SYSTEMATIC_NAME>
4-(6-oxidanyl-1-benzofuran-2-yl)benzene-1,3-diol

>  <PUBCHEM_IUPAC_TRADITIONAL_NAME>
4-(6-hydroxybenzofuran-2-yl)resorcinol

>  <PUBCHEM_IUPAC_INCHI>
InChI=1S/C14H10O4/c15-9-3-4-11(12(17)6-9)14-5-8-1-2-10(16)7-13(8)18-14/h1-7,15-17H

>  <PUBCHEM_IUPAC_INCHIKEY>
GYHKMDWFVHCCRA-UHFFFAOYSA-N

>  <PUBCHEM_XLOGP3_AA>
2.9

>  <PUBCHEM_EXACT_MASS>
242.058

>  <PUBCHEM_MOLECULAR_FORMULA>
C14H10O4

>  <PUBCHEM_MOLECULAR_WEIGHT>
242.23

>  <PUBCHEM_OPENEYE_CAN_SMILES>
C1=CC2=C(C=C1O)OC(=C2)C3=C(C=C(C=C3)O)O

>  <PUBCHEM_OPENEYE_ISO_SMILES>
C1=CC2=C(C=C1O)OC(=C2)C3=C(C=C(C=C3)O)O

>  <PUBCHEM_CACTVS_TPSA>
73.8

>  <PUBCHEM_MONOISOTOPIC_WEIGHT>
242.058

>  <PUBCHEM_TOTAL_CHARGE>
0

>  <PUBCHEM_HEAVY_ATOM_COUNT>
18

>  <PUBCHEM_ATOM_DEF_STEREO_COUNT>
0

>  <PUBCHEM_ATOM_UDEF_STEREO_COUNT>
0

>  <PUBCHEM_BOND_DEF_STEREO_COUNT>
0

>  <PUBCHEM_BOND_UDEF_STEREO_COUNT>
0

>  <PUBCHEM_ISOTOPIC_ATOM_COUNT>
0

>  <PUBCHEM_COMPONENT_COUNT>
1

>  <PUBCHEM_CACTVS_TAUTO_COUNT>
42

>  <PUBCHEM_COORDINATE_TYPE>
1
5
255

>  <PUBCHEM_BONDANNOTATIONS>
1  6  8
1  7  8
10  15  8
11  14  8
12  16  8
13  17  8
14  15  8
16  18  8
17  18  8
5  10  8
5  7  8
5  9  8
6  9  8
7  11  8
8  12  8
8  13  8

$$$$
