15491283
 OpenBabel06101807152D

 59 62  0  0  1  0  0  0  0  0999 V2000
    8.9942    1.4171    0.0000 O   0  0  0  0  0  0  0  0  0  0  0  0
    5.5301   -6.5829    0.0000 O   0  0  0  0  0  0  0  0  0  0  0  0
    7.2622   -4.5829    0.0000 O   0  0  0  0  0  0  0  0  0  0  0  0
    7.2622    2.4171    0.0000 O   0  0  0  0  0  0  0  0  0  0  0  0
   11.5923    5.9171    0.0000 O   0  0  0  0  0  0  0  0  0  0  0  0
    9.8602    6.9171    0.0000 O   0  0  0  0  0  0  0  0  0  0  0  0
    8.1282    3.9171    0.0000 O   0  0  0  0  0  0  0  0  0  0  0  0
    2.0000   -4.5588    0.0000 O   0  0  0  0  0  0  0  0  0  0  0  0
    2.0000   -6.6071    0.0000 O   0  0  0  0  0  0  0  0  0  0  0  0
    8.9942   -3.5829    0.0000 O   0  0  0  0  0  0  0  0  0  0  0  0
    7.2622    1.4171    0.0000 O   0  0  0  0  0  0  0  0  0  0  0  0
    7.2622   -6.5829    0.0000 O   0  0  0  0  0  0  0  0  0  0  0  0
    9.8602    2.9171    0.0000 C   0  0  0  0  0  0  0  0  0  0  0  0
    8.9942    2.4171    0.0000 C   0  0  3  0  0  0  0  0  0  0  0  0
    9.8602    3.9171    0.0000 C   0  0  0  0  0  0  0  0  0  0  0  0
   10.7263    4.4171    0.0000 C   0  0  0  0  0  0  0  0  0  0  0  0
    8.9942    4.4171    0.0000 C   0  0  0  0  0  0  0  0  0  0  0  0
    4.6641   -5.0829    0.0000 C   0  0  0  0  0  0  0  0  0  0  0  0
    8.1282    2.9171    0.0000 C   0  0  0  0  0  0  0  0  0  0  0  0
   10.7263    5.4171    0.0000 C   0  0  0  0  0  0  0  0  0  0  0  0
    4.6641   -6.0829    0.0000 C   0  0  0  0  0  0  0  0  0  0  0  0
    8.9942    5.4171    0.0000 C   0  0  0  0  0  0  0  0  0  0  0  0
    9.8602    5.9171    0.0000 C   0  0  0  0  0  0  0  0  0  0  0  0
    5.5301   -4.5829    0.0000 C   0  0  0  0  0  0  0  0  0  0  0  0
    6.3961   -5.0829    0.0000 C   0  0  0  0  0  0  0  0  0  0  0  0
    3.7702   -4.5483    0.0000 C   0  0  0  0  0  0  0  0  0  0  0  0
    7.2622   -3.5829    0.0000 C   0  0  0  0  0  0  0  0  0  0  0  0
    3.7702   -6.6176    0.0000 C   0  0  0  0  0  0  0  0  0  0  0  0
    7.2622   -1.5829    0.0000 C   0  0  0  0  0  0  0  0  0  0  0  0
    2.8641   -5.0621    0.0000 C   0  0  0  0  0  0  0  0  0  0  0  0
    2.8641   -6.1037    0.0000 C   0  0  0  0  0  0  0  0  0  0  0  0
    8.1282    0.9171    0.0000 C   0  0  0  0  0  0  0  0  0  0  0  0
    6.3961   -6.0829    0.0000 C   0  0  0  0  0  0  0  0  0  0  0  0
    8.1282   -3.0829    0.0000 C   0  0  0  0  0  0  0  0  0  0  0  0
    8.1282   -2.0829    0.0000 C   0  0  0  0  0  0  0  0  0  0  0  0
    6.3961   -3.0829    0.0000 C   0  0  0  0  0  0  0  0  0  0  0  0
    6.3961   -2.0829    0.0000 C   0  0  0  0  0  0  0  0  0  0  0  0
    7.2622   -0.5829    0.0000 C   0  0  0  0  0  0  0  0  0  0  0  0
    8.1282   -0.0829    0.0000 C   0  0  0  0  0  0  0  0  0  0  0  0
   10.0723    2.3345    0.0000 H   0  0  0  0  0  0  0  0  0  0  0  0
   10.4708    3.0247    0.0000 H   0  0  0  0  0  0  0  0  0  0  0  0
    8.4573    2.1071    0.0000 H   0  0  0  0  0  0  0  0  0  0  0  0
   11.2632    4.1071    0.0000 H   0  0  0  0  0  0  0  0  0  0  0  0
    8.4573    4.1071    0.0000 H   0  0  0  0  0  0  0  0  0  0  0  0
    8.4573    5.7271    0.0000 H   0  0  0  0  0  0  0  0  0  0  0  0
    5.5301   -3.9629    0.0000 H   0  0  0  0  0  0  0  0  0  0  0  0
    3.7773   -3.9283    0.0000 H   0  0  0  0  0  0  0  0  0  0  0  0
    3.7773   -7.2376    0.0000 H   0  0  0  0  0  0  0  0  0  0  0  0
    8.6651   -1.7729    0.0000 H   0  0  0  0  0  0  0  0  0  0  0  0
    5.8592   -3.3929    0.0000 H   0  0  0  0  0  0  0  0  0  0  0  0
    5.8592   -1.7729    0.0000 H   0  0  0  0  0  0  0  0  0  0  0  0
    6.7252   -0.2729    0.0000 H   0  0  0  0  0  0  0  0  0  0  0  0
    8.6651   -0.3929    0.0000 H   0  0  0  0  0  0  0  0  0  0  0  0
    6.7252    2.7271    0.0000 H   0  0  0  0  0  0  0  0  0  0  0  0
   12.1292    5.6071    0.0000 H   0  0  0  0  0  0  0  0  0  0  0  0
    9.3233    7.2271    0.0000 H   0  0  0  0  0  0  0  0  0  0  0  0
    2.0024   -3.9388    0.0000 H   0  0  0  0  0  0  0  0  0  0  0  0
    2.0024   -7.2271    0.0000 H   0  0  0  0  0  0  0  0  0  0  0  0
    9.5312   -3.2729    0.0000 H   0  0  0  0  0  0  0  0  0  0  0  0
  1 14  1  0  0  0  0
  1 32  1  0  0  0  0
  2 21  1  0  0  0  0
  2 33  1  0  0  0  0
  3 25  1  0  0  0  0
  3 27  1  0  0  0  0
  4 19  1  0  0  0  0
  4 54  1  0  0  0  0
  5 20  1  0  0  0  0
  5 55  1  0  0  0  0
  6 23  1  0  0  0  0
  6 56  1  0  0  0  0
  7 19  2  0  0  0  0
  8 30  1  0  0  0  0
  8 57  1  0  0  0  0
  9 31  1  0  0  0  0
  9 58  1  0  0  0  0
 10 34  1  0  0  0  0
 10 59  1  0  0  0  0
 11 32  2  0  0  0  0
 12 33  2  0  0  0  0
 13 14  1  0  0  0  0
 13 15  1  0  0  0  0
 13 40  1  0  0  0  0
 13 41  1  0  0  0  0
 14 19  1  0  0  0  0
 14 42  1  0  0  0  0
 15 16  2  0  0  0  0
 15 17  1  0  0  0  0
 16 20  1  0  0  0  0
 16 43  1  0  0  0  0
 17 22  2  0  0  0  0
 17 44  1  0  0  0  0
 18 21  1  0  0  0  0
 18 24  1  0  0  0  0
 18 26  2  0  0  0  0
 20 23  2  0  0  0  0
 21 28  2  0  0  0  0
 22 23  1  0  0  0  0
 22 45  1  0  0  0  0
 24 25  2  0  0  0  0
 24 46  1  0  0  0  0
 25 33  1  0  0  0  0
 26 30  1  0  0  0  0
 26 47  1  0  0  0  0
 27 34  2  0  0  0  0
 27 36  1  0  0  0  0
 28 31  1  0  0  0  0
 28 48  1  0  0  0  0
 29 35  2  0  0  0  0
 29 37  1  0  0  0  0
 29 38  1  0  0  0  0
 30 31  2  0  0  0  0
 32 39  1  0  0  0  0
 34 35  1  0  0  0  0
 35 49  1  0  0  0  0
 36 37  2  0  0  0  0
 36 50  1  0  0  0  0
 37 51  1  0  0  0  0
 38 39  2  0  0  0  0
 38 52  1  0  0  0  0
 39 53  1  0  0  0  0
M  END
>  <PUBCHEM_COMPOUND_CID>
15491283

>  <PUBCHEM_COMPOUND_CANONICALIZED>
1

>  <PUBCHEM_CACTVS_COMPLEXITY>
962

>  <PUBCHEM_CACTVS_HBOND_ACCEPTOR>
12

>  <PUBCHEM_CACTVS_HBOND_DONOR>
6

>  <PUBCHEM_CACTVS_ROTATABLE_BOND>
9

>  <PUBCHEM_CACTVS_SUBSKEYS>
AAADceB4PAAAAAAAAAAAAAAAAAAAAAAAAAAwYMEAAAAAAACBUAAAGgAACAAADBSgmAIwDoAABgCIAiDSCAICCAAgIAAIiAFGiMgNJzKGMR6CeiOlwBULuYfI6LyOIQABCAAIQABCAAIQABCAAAAAAAAAAA==

>  <PUBCHEM_IUPAC_OPENEYE_NAME>
2-[(E)-3-[4-(6,7-dihydroxy-2-oxo-chromen-3-yl)oxy-3-hydroxy-phenyl]prop-2-enoyl]oxy-3-(3,4-dihydroxyphenyl)propanoic acid

>  <PUBCHEM_IUPAC_CAS_NAME>
2-[(E)-3-[4-[(6,7-dihydroxy-2-oxo-1-benzopyran-3-yl)oxy]-3-hydroxyphenyl]-1-oxoprop-2-enoxy]-3-(3,4-dihydroxyphenyl)propanoic acid

>  <PUBCHEM_IUPAC_NAME>
2-[(E)-3-[4-(6,7-dihydroxy-2-oxochromen-3-yl)oxy-3-hydroxyphenyl]prop-2-enoyl]oxy-3-(3,4-dihydroxyphenyl)propanoic acid

>  <PUBCHEM_IUPAC_SYSTEMATIC_NAME>
2-[(E)-3-[4-[6,7-bis(oxidanyl)-2-oxidanylidene-chromen-3-yl]oxy-3-oxidanyl-phenyl]prop-2-enoyl]oxy-3-[3,4-bis(oxidanyl)phenyl]propanoic acid

>  <PUBCHEM_IUPAC_TRADITIONAL_NAME>
2-[(E)-3-[4-(6,7-dihydroxy-2-keto-chromen-3-yl)oxy-3-hydroxy-phenyl]acryloyl]oxy-3-(3,4-dihydroxyphenyl)propionic acid

>  <PUBCHEM_IUPAC_INCHI>
InChI=1S/C27H20O12/c28-16-4-1-14(8-17(16)29)9-23(26(34)35)38-25(33)6-3-13-2-5-21(20(32)7-13)37-24-11-15-10-18(30)19(31)12-22(15)39-27(24)36/h1-8,10-12,23,28-32H,9H2,(H,34,35)/b6-3+

>  <PUBCHEM_IUPAC_INCHIKEY>
FGLLLJUSIHHQKZ-ZZXKWVIFSA-N

>  <PUBCHEM_XLOGP3_AA>
3.7

>  <PUBCHEM_EXACT_MASS>
536.095

>  <PUBCHEM_MOLECULAR_FORMULA>
C27H20O12

>  <PUBCHEM_MOLECULAR_WEIGHT>
536.445

>  <PUBCHEM_OPENEYE_CAN_SMILES>
C1=CC(=C(C=C1CC(C(=O)O)OC(=O)C=CC2=CC(=C(C=C2)OC3=CC4=CC(=C(C=C4OC3=O)O)O)O)O)O

>  <PUBCHEM_OPENEYE_ISO_SMILES>
C1=CC(=C(C=C1CC(C(=O)O)OC(=O)/C=C/C2=CC(=C(C=C2)OC3=CC4=CC(=C(C=C4OC3=O)O)O)O)O)O

>  <PUBCHEM_CACTVS_TPSA>
200

>  <PUBCHEM_MONOISOTOPIC_WEIGHT>
536.095

>  <PUBCHEM_TOTAL_CHARGE>
0

>  <PUBCHEM_HEAVY_ATOM_COUNT>
39

>  <PUBCHEM_ATOM_DEF_STEREO_COUNT>
0

>  <PUBCHEM_ATOM_UDEF_STEREO_COUNT>
1

>  <PUBCHEM_BOND_DEF_STEREO_COUNT>
1

>  <PUBCHEM_BOND_UDEF_STEREO_COUNT>
0

>  <PUBCHEM_ISOTOPIC_ATOM_COUNT>
0

>  <PUBCHEM_COMPONENT_COUNT>
1

>  <PUBCHEM_CACTVS_TAUTO_COUNT>
558

>  <PUBCHEM_COORDINATE_TYPE>
1
5
255

>  <PUBCHEM_BONDANNOTATIONS>
14  13  3
15  16  8
15  17  8
16  20  8
17  22  8
18  21  8
18  24  8
18  26  8
2  21  8
2  33  8
20  23  8
21  28  8
22  23  8
24  25  8
25  33  8
26  30  8
27  34  8
27  36  8
28  31  8
29  35  8
29  37  8
30  31  8
34  35  8
36  37  8

$$$$
