155189
 OpenBabel06101807152D

 45 48  0  0  0  0  0  0  0  0999 V2000
    5.6405   -3.4155    0.0000 O   0  0  0  0  0  0  0  0  0  0  0  0
    3.8372   -4.4753    0.0000 O   0  0  0  0  0  0  0  0  0  0  0  0
    4.6622    4.2907    0.0000 O   0  0  0  0  0  0  0  0  0  0  0  0
    6.4361    3.2665    0.0000 O   0  0  0  0  0  0  0  0  0  0  0  0
    2.9180    0.2214    0.0000 N   0  3  0  0  0  0  0  0  0  0  0  0
    2.0080   -0.2854    0.0000 C   0  0  0  0  0  0  0  0  0  0  0  0
    2.0000   -1.3270    0.0000 C   0  0  0  0  0  0  0  0  0  0  0  0
    3.7841   -0.2786    0.0000 C   0  0  0  0  0  0  0  0  0  0  0  0
    3.8001   -1.3201    0.0000 C   0  0  0  0  0  0  0  0  0  0  0  0
    2.9021   -1.8478    0.0000 C   0  0  0  0  0  0  0  0  0  0  0  0
    2.9180    1.2214    0.0000 C   0  0  0  0  0  0  0  0  0  0  0  0
    4.6501    0.2214    0.0000 C   0  0  0  0  0  0  0  0  0  0  0  0
    3.7841    1.7214    0.0000 C   0  0  0  0  0  0  0  0  0  0  0  0
    4.6501    1.2214    0.0000 C   0  0  0  0  0  0  0  0  0  0  0  0
    4.7520   -1.8407    0.0000 C   0  0  0  0  0  0  0  0  0  0  0  0
    2.8937   -2.9328    0.0000 C   0  0  0  0  0  0  0  0  0  0  0  0
    4.7688   -2.9256    0.0000 C   0  0  0  0  0  0  0  0  0  0  0  0
    3.8334   -3.4753    0.0000 C   0  0  0  0  0  0  0  0  0  0  0  0
    3.7680    2.7629    0.0000 C   0  0  0  0  0  0  0  0  0  0  0  0
    5.5601    1.7283    0.0000 C   0  0  0  0  0  0  0  0  0  0  0  0
    4.6660    3.2907    0.0000 C   0  0  0  0  0  0  0  0  0  0  0  0
    5.5681    2.7699    0.0000 C   0  0  0  0  0  0  0  0  0  0  0  0
    5.6521   -4.4154    0.0000 C   0  0  0  0  0  0  0  0  0  0  0  0
    3.7942    4.7874    0.0000 C   0  0  0  0  0  0  0  0  0  0  0  0
    7.3002    2.7632    0.0000 C   0  0  0  0  0  0  0  0  0  0  0  0
    1.8035    0.2999    0.0000 H   0  0  0  0  0  0  0  0  0  0  0  0
    1.3964   -0.3868    0.0000 H   0  0  0  0  0  0  0  0  0  0  0  0
    1.3900   -1.2162    0.0000 H   0  0  0  0  0  0  0  0  0  0  0  0
    1.7864   -1.9091    0.0000 H   0  0  0  0  0  0  0  0  0  0  0  0
    2.3811    1.5314    0.0000 H   0  0  0  0  0  0  0  0  0  0  0  0
    5.1870   -0.0886    0.0000 H   0  0  0  0  0  0  0  0  0  0  0  0
    5.2829   -1.5204    0.0000 H   0  0  0  0  0  0  0  0  0  0  0  0
    2.3556   -3.2407    0.0000 H   0  0  0  0  0  0  0  0  0  0  0  0
    3.2275    3.0667    0.0000 H   0  0  0  0  0  0  0  0  0  0  0  0
    6.0934    1.4121    0.0000 H   0  0  0  0  0  0  0  0  0  0  0  0
    3.3015   -4.7874    0.0000 H   0  0  0  0  0  0  0  0  0  0  0  0
    5.0321   -4.4226    0.0000 H   0  0  0  0  0  0  0  0  0  0  0  0
    5.6592   -5.0354    0.0000 H   0  0  0  0  0  0  0  0  0  0  0  0
    6.2720   -4.4083    0.0000 H   0  0  0  0  0  0  0  0  0  0  0  0
    4.1022    5.3255    0.0000 H   0  0  0  0  0  0  0  0  0  0  0  0
    3.2561    5.0953    0.0000 H   0  0  0  0  0  0  0  0  0  0  0  0
    3.4863    4.2492    0.0000 H   0  0  0  0  0  0  0  0  0  0  0  0
    6.9881    2.2275    0.0000 H   0  0  0  0  0  0  0  0  0  0  0  0
    7.8359    2.4511    0.0000 H   0  0  0  0  0  0  0  0  0  0  0  0
    7.6122    3.2989    0.0000 H   0  0  0  0  0  0  0  0  0  0  0  0
  1 17  1  0  0  0  0
  1 23  1  0  0  0  0
  2 18  1  0  0  0  0
  2 36  1  0  0  0  0
  3 21  1  0  0  0  0
  3 24  1  0  0  0  0
  4 22  1  0  0  0  0
  4 25  1  0  0  0  0
  5  6  1  0  0  0  0
  5  8  1  0  0  0  0
  5 11  2  0  0  0  0
  6  7  1  0  0  0  0
  6 26  1  0  0  0  0
  6 27  1  0  0  0  0
  7 10  1  0  0  0  0
  7 28  1  0  0  0  0
  7 29  1  0  0  0  0
  8  9  1  0  0  0  0
  8 12  2  0  0  0  0
  9 10  1  0  0  0  0
  9 15  2  0  0  0  0
 10 16  2  0  0  0  0
 11 13  1  0  0  0  0
 11 30  1  0  0  0  0
 12 14  1  0  0  0  0
 12 31  1  0  0  0  0
 13 14  1  0  0  0  0
 13 19  2  0  0  0  0
 14 20  2  0  0  0  0
 15 17  1  0  0  0  0
 15 32  1  0  0  0  0
 16 18  1  0  0  0  0
 16 33  1  0  0  0  0
 17 18  2  0  0  0  0
 19 21  1  0  0  0  0
 19 34  1  0  0  0  0
 20 22  1  0  0  0  0
 20 35  1  0  0  0  0
 21 22  2  0  0  0  0
 23 37  1  0  0  0  0
 23 38  1  0  0  0  0
 23 39  1  0  0  0  0
 24 40  1  0  0  0  0
 24 41  1  0  0  0  0
 24 42  1  0  0  0  0
 25 43  1  0  0  0  0
 25 44  1  0  0  0  0
 25 45  1  0  0  0  0
M  CHG  1   5   1
M  END
>  <PUBCHEM_COMPOUND_CID>
155189

>  <PUBCHEM_COMPOUND_CANONICALIZED>
1

>  <PUBCHEM_CACTVS_COMPLEXITY>
461

>  <PUBCHEM_CACTVS_HBOND_ACCEPTOR>
4

>  <PUBCHEM_CACTVS_HBOND_DONOR>
1

>  <PUBCHEM_CACTVS_ROTATABLE_BOND>
3

>  <PUBCHEM_CACTVS_SUBSKEYS>
AAADceB6OAAAAAAAAAAAAAAAAAAAAAAAAAA8eIEAAAAAAACx9AAAHgAACAAADAzBngY+htMMFgCgAzRnRACCiCAxIiAA2CA+7JgNJuLGsZuEcCtkwBHL+Aew0PMOoAABAAAQQABAAAIAACCAAAAAAAAAAA==

>  <PUBCHEM_IUPAC_OPENEYE_NAME>
2,10,11-trimethoxy-5,6-dihydroisoquinolino[2,1-b]isoquinolin-7-ium-3-ol

>  <PUBCHEM_IUPAC_CAS_NAME>
2,10,11-trimethoxy-5,6-dihydroisoquinolino[2,1-b]isoquinolin-7-ium-3-ol

>  <PUBCHEM_IUPAC_NAME>
2,10,11-trimethoxy-5,6-dihydroisoquinolino[2,1-b]isoquinolin-7-ium-3-ol

>  <PUBCHEM_IUPAC_SYSTEMATIC_NAME>
2,10,11-trimethoxy-5,6-dihydroisoquinolino[2,1-b]isoquinolin-7-ium-3-ol

>  <PUBCHEM_IUPAC_TRADITIONAL_NAME>
2,10,11-trimethoxy-5,6-dihydroisoquinolin[2,1-b]isoquinolin-7-ium-3-ol

>  <PUBCHEM_IUPAC_INCHI>
InChI=1S/C20H19NO4/c1-23-18-10-15-12(7-17(18)22)4-5-21-11-14-9-20(25-3)19(24-2)8-13(14)6-16(15)21/h6-11H,4-5H2,1-3H3/p+1

>  <PUBCHEM_IUPAC_INCHIKEY>
YKOWIGFWFQCIKO-UHFFFAOYSA-O

>  <PUBCHEM_XLOGP3_AA>
3.4

>  <PUBCHEM_EXACT_MASS>
338.139

>  <PUBCHEM_MOLECULAR_FORMULA>
C20H20NO4+

>  <PUBCHEM_MOLECULAR_WEIGHT>
338.383

>  <PUBCHEM_OPENEYE_CAN_SMILES>
COC1=C(C=C2C=[N+]3CCC4=CC(=C(C=C4C3=CC2=C1)OC)O)OC

>  <PUBCHEM_OPENEYE_ISO_SMILES>
COC1=C(C=C2C=[N+]3CCC4=CC(=C(C=C4C3=CC2=C1)OC)O)OC

>  <PUBCHEM_CACTVS_TPSA>
51.8

>  <PUBCHEM_MONOISOTOPIC_WEIGHT>
338.139

>  <PUBCHEM_TOTAL_CHARGE>
1

>  <PUBCHEM_HEAVY_ATOM_COUNT>
25

>  <PUBCHEM_ATOM_DEF_STEREO_COUNT>
0

>  <PUBCHEM_ATOM_UDEF_STEREO_COUNT>
0

>  <PUBCHEM_BOND_DEF_STEREO_COUNT>
0

>  <PUBCHEM_BOND_UDEF_STEREO_COUNT>
0

>  <PUBCHEM_ISOTOPIC_ATOM_COUNT>
0

>  <PUBCHEM_COMPONENT_COUNT>
1

>  <PUBCHEM_CACTVS_TAUTO_COUNT>
9

>  <PUBCHEM_COORDINATE_TYPE>
1
5
255

>  <PUBCHEM_BONDANNOTATIONS>
10  16  8
11  13  8
12  14  8
13  14  8
13  19  8
14  20  8
15  17  8
16  18  8
17  18  8
19  21  8
20  22  8
21  22  8
5  11  8
5  8  8
8  12  8
9  10  8
9  15  8

$$$$
