15540432
 OpenBabel06101807152D

 43 45  0  0  1  0  0  0  0  0999 V2000
    3.5836   -0.2583    0.0000 O   0  0  0  0  0  0  0  0  0  0  0  0
    8.0321   -0.5662    0.0000 O   0  0  0  0  0  0  0  0  0  0  0  0
    6.2740    2.5062    0.0000 O   0  0  0  0  0  0  0  0  0  0  0  0
    2.0000   -1.0630    0.0000 O   0  0  0  0  0  0  0  0  0  0  0  0
    6.2619   -0.5630    0.0000 C   0  0  1  0  0  0  0  0  0  0  0  0
    5.3958   -0.0630    0.0000 C   0  0  1  0  0  0  0  0  0  0  0  0
    4.5298   -0.5630    0.0000 C   0  0  2  0  0  0  0  0  0  0  0  0
    4.5298   -1.5630    0.0000 C   0  0  1  0  0  0  0  0  0  0  0  0
    5.3798    0.9785    0.0000 C   0  0  2  0  0  0  0  0  0  0  0  0
    6.2619   -1.5630    0.0000 C   0  0  0  0  0  0  0  0  0  0  0  0
    7.1719   -0.0562    0.0000 C   0  0  1  0  0  0  0  0  0  0  0  0
    5.3958   -2.0630    0.0000 C   0  0  0  0  0  0  0  0  0  0  0  0
    6.2778    1.5062    0.0000 C   0  0  2  0  0  0  0  0  0  0  0  0
    7.1799    0.9854    0.0000 C   0  0  0  0  0  0  0  0  0  0  0  0
    3.5836   -1.8678    0.0000 C   0  0  1  0  0  0  0  0  0  0  0  0
    7.1279   -1.0630    0.0000 C   0  0  0  0  0  0  0  0  0  0  0  0
    4.5080    1.4684    0.0000 C   0  0  0  0  0  0  0  0  0  0  0  0
    3.0000   -1.0630    0.0000 C   0  0  0  0  0  0  0  0  0  0  0  0
    3.2729   -2.8183    0.0000 C   0  0  0  0  0  0  0  0  0  0  0  0
    6.1287    0.3676    0.0000 H   0  0  0  0  0  0  0  0  0  0  0  0
    4.4399    0.2822    0.0000 H   0  0  0  0  0  0  0  0  0  0  0  0
    4.4399   -2.4083    0.0000 H   0  0  0  0  0  0  0  0  0  0  0  0
    5.3738    1.5984    0.0000 H   0  0  0  0  0  0  0  0  0  0  0  0
    6.4739   -2.1456    0.0000 H   0  0  0  0  0  0  0  0  0  0  0  0
    6.8725   -1.4554    0.0000 H   0  0  0  0  0  0  0  0  0  0  0  0
    7.7118    0.2486    0.0000 H   0  0  0  0  0  0  0  0  0  0  0  0
    4.9973   -2.5380    0.0000 H   0  0  0  0  0  0  0  0  0  0  0  0
    5.7944   -2.5380    0.0000 H   0  0  0  0  0  0  0  0  0  0  0  0
    6.8142    1.8173    0.0000 H   0  0  0  0  0  0  0  0  0  0  0  0
    7.7899    0.8746    0.0000 H   0  0  0  0  0  0  0  0  0  0  0  0
    7.3935    1.5675    0.0000 H   0  0  0  0  0  0  0  0  0  0  0  0
    2.9711   -1.9640    0.0000 H   0  0  0  0  0  0  0  0  0  0  0  0
    6.8179   -1.6000    0.0000 H   0  0  0  0  0  0  0  0  0  0  0  0
    7.6648   -1.3730    0.0000 H   0  0  0  0  0  0  0  0  0  0  0  0
    7.4379   -0.5261    0.0000 H   0  0  0  0  0  0  0  0  0  0  0  0
    4.8118    2.0089    0.0000 H   0  0  0  0  0  0  0  0  0  0  0  0
    3.9676    1.7722    0.0000 H   0  0  0  0  0  0  0  0  0  0  0  0
    4.2043    0.9279    0.0000 H   0  0  0  0  0  0  0  0  0  0  0  0
    2.6836   -2.6257    0.0000 H   0  0  0  0  0  0  0  0  0  0  0  0
    3.0803   -3.4076    0.0000 H   0  0  0  0  0  0  0  0  0  0  0  0
    3.8623   -3.0109    0.0000 H   0  0  0  0  0  0  0  0  0  0  0  0
    8.5726   -0.2624    0.0000 H   0  0  0  0  0  0  0  0  0  0  0  0
    6.8097    2.8183    0.0000 H   0  0  0  0  0  0  0  0  0  0  0  0
  1  7  1  0  0  0  0
  1 18  1  0  0  0  0
  2 42  1  0  0  0  0
  3 43  1  0  0  0  0
  4 18  2  0  0  0  0
  5  6  1  1  0  0  0
  5 10  1  0  0  0  0
  5 16  1  0  0  0  0
  6  7  1  6  0  0  0
  6 20  1  0  0  0  0
  7  8  1  1  0  0  0
  7 21  1  0  0  0  0
  8 12  1  0  0  0  0
  8 15  1  1  0  0  0
  8 22  1  0  0  0  0
  9  6  1  6  0  0  0
  9 17  1  0  0  0  0
  9 23  1  0  0  0  0
 10 12  1  0  0  0  0
 10 24  1  0  0  0  0
 10 25  1  0  0  0  0
 11  2  1  0  0  0  0
 11  5  1  6  0  0  0
 11 14  1  0  0  0  0
 11 26  1  0  0  0  0
 12 27  1  0  0  0  0
 12 28  1  0  0  0  0
 13  3  1  0  0  0  0
 13  9  1  6  0  0  0
 13 14  1  0  0  0  0
 13 29  1  0  0  0  0
 14 30  1  0  0  0  0
 14 31  1  0  0  0  0
 15 18  1  0  0  0  0
 15 19  1  0  0  0  0
 15 32  1  1  0  0  0
 16 33  1  0  0  0  0
 16 34  1  0  0  0  0
 16 35  1  0  0  0  0
 17 36  1  0  0  0  0
 17 37  1  0  0  0  0
 17 38  1  0  0  0  0
 19 39  1  0  0  0  0
 19 40  1  0  0  0  0
 19 41  1  0  0  0  0
M  END
>  <PUBCHEM_COMPOUND_CID>
15540432

>  <PUBCHEM_COMPOUND_CANONICALIZED>
1

>  <PUBCHEM_CACTVS_COMPLEXITY>
396

>  <PUBCHEM_CACTVS_HBOND_ACCEPTOR>
4

>  <PUBCHEM_CACTVS_HBOND_DONOR>
2

>  <PUBCHEM_CACTVS_ROTATABLE_BOND>
0

>  <PUBCHEM_CACTVS_SUBSKEYS>
AAADceBwOAAAAAAAAAAAAAAAAAAAASAAAAAwYAAAAAAAAEjAAAAAGgAACAAADxSggAICCAAABgAIAACQCAAAAAAAAAAAAAEAAAAAEBIAAAACQAAFAAAAAAHK6PSPgAAAAAAAAADAAAYQADAAAAAAAAAAAA==

>  <PUBCHEM_IUPAC_OPENEYE_NAME>
(3S,3aS,5aR,6R,8S,9R,9aS,9bS)-6,8-dihydroxy-3,5a,9-trimethyl-3,3a,4,5,6,7,8,9,9a,9b-decahydrobenzo[g]benzofuran-2-one

>  <PUBCHEM_IUPAC_CAS_NAME>
(3S,3aS,5aR,6R,8S,9R,9aS,9bS)-6,8-dihydroxy-3,5a,9-trimethyl-3,3a,4,5,6,7,8,9,9a,9b-decahydrobenzo[g]benzofuran-2-one

>  <PUBCHEM_IUPAC_NAME>
(3S,3aS,5aR,6R,8S,9R,9aS,9bS)-6,8-dihydroxy-3,5a,9-trimethyl-3,3a,4,5,6,7,8,9,9a,9b-decahydrobenzo[g][1]benzofuran-2-one

>  <PUBCHEM_IUPAC_SYSTEMATIC_NAME>
(3S,3aS,5aR,6R,8S,9R,9aS,9bS)-3,5a,9-trimethyl-6,8-bis(oxidanyl)-3,3a,4,5,6,7,8,9,9a,9b-decahydrobenzo[g][1]benzofuran-2-one

>  <PUBCHEM_IUPAC_TRADITIONAL_NAME>
(3S,3aS,5aR,6R,8S,9R,9aS,9bS)-6,8-dihydroxy-3,5a,9-trimethyl-3,3a,4,5,6,7,8,9,9a,9b-decahydrobenzo[g]benzofuran-2-one

>  <PUBCHEM_IUPAC_INCHI>
InChI=1S/C15H24O4/c1-7-9-4-5-15(3)11(17)6-10(16)8(2)12(15)13(9)19-14(7)18/h7-13,16-17H,4-6H2,1-3H3/t7-,8-,9-,10-,11+,12+,13-,15-/m0/s1

>  <PUBCHEM_IUPAC_INCHIKEY>
GAPZIAIPNAGPQZ-UIUPBXLSSA-N

>  <PUBCHEM_XLOGP3_AA>
1.8

>  <PUBCHEM_EXACT_MASS>
268.167

>  <PUBCHEM_MOLECULAR_FORMULA>
C15H24O4

>  <PUBCHEM_MOLECULAR_WEIGHT>
268.353

>  <PUBCHEM_OPENEYE_CAN_SMILES>
CC1C(CC(C2(C1C3C(CC2)C(C(=O)O3)C)C)O)O

>  <PUBCHEM_OPENEYE_ISO_SMILES>
C[C@H]1[C@H](C[C@H]([C@]2([C@H]1[C@@H]3[C@@H](CC2)[C@@H](C(=O)O3)C)C)O)O

>  <PUBCHEM_CACTVS_TPSA>
66.8

>  <PUBCHEM_MONOISOTOPIC_WEIGHT>
268.167

>  <PUBCHEM_TOTAL_CHARGE>
0

>  <PUBCHEM_HEAVY_ATOM_COUNT>
19

>  <PUBCHEM_ATOM_DEF_STEREO_COUNT>
8

>  <PUBCHEM_ATOM_UDEF_STEREO_COUNT>
0

>  <PUBCHEM_BOND_DEF_STEREO_COUNT>
0

>  <PUBCHEM_BOND_UDEF_STEREO_COUNT>
0

>  <PUBCHEM_ISOTOPIC_ATOM_COUNT>
0

>  <PUBCHEM_COMPONENT_COUNT>
1

>  <PUBCHEM_CACTVS_TAUTO_COUNT>
2

>  <PUBCHEM_COORDINATE_TYPE>
1
5
255

>  <PUBCHEM_BONDANNOTATIONS>
15  19  6
11  2  5
13  3  5
5  16  5
6  20  6
7  21  5
8  22  6
9  17  5

$$$$
