155791
 OpenBabel06101807152D

 41 43  0  0  1  0  0  0  0  0999 V2000
    2.6735   -2.3345    0.0000 O   0  0  0  0  0  0  0  0  0  0  0  0
    6.9858    1.8604    0.0000 O   0  0  0  0  0  0  0  0  0  0  0  0
    4.7057    0.5016    0.0000 C   0  0  3  0  0  0  0  0  0  0  0  0
    5.3570    1.2713    0.0000 C   0  0  3  0  0  0  0  0  0  0  0  0
    3.9397    1.1444    0.0000 C   0  0  3  0  0  0  0  0  0  0  0  0
    4.5846    1.9194    0.0000 C   0  0  0  0  0  0  0  0  0  0  0  0
    3.4397   -1.6912    0.0000 C   0  0  3  0  0  0  0  0  0  0  0  0
    4.8794   -0.4832    0.0000 C   0  0  0  0  0  0  0  0  0  0  0  0
    2.5000   -1.3492    0.0000 C   0  0  3  0  0  0  0  0  0  0  0  0
    4.3794   -1.3492    0.0000 C   0  0  0  0  0  0  0  0  0  0  0  0
    2.9397    1.1444    0.0000 C   0  0  0  0  0  0  0  0  0  0  0  0
    6.0014    2.0361    0.0000 C   0  0  0  0  0  0  0  0  0  0  0  0
    2.0000   -0.4832    0.0000 C   0  0  0  0  0  0  0  0  0  0  0  0
    6.1217    0.6270    0.0000 C   0  0  0  0  0  0  0  0  0  0  0  0
    2.1736    0.5016    0.0000 C   0  0  0  0  0  0  0  0  0  0  0  0
    4.3794   -2.0333    0.0000 C   0  0  0  0  0  0  0  0  0  0  0  0
    2.5977    2.0841    0.0000 C   0  0  0  0  0  0  0  0  0  0  0  0
    5.5263    0.2799    0.0000 H   0  0  0  0  0  0  0  0  0  0  0  0
    3.5789    1.9140    0.0000 H   0  0  0  0  0  0  0  0  0  0  0  0
    4.9825    2.3949    0.0000 H   0  0  0  0  0  0  0  0  0  0  0  0
    4.1086    2.3167    0.0000 H   0  0  0  0  0  0  0  0  0  0  0  0
    5.3049   -0.9342    0.0000 H   0  0  0  0  0  0  0  0  0  0  0  0
    5.4334   -0.2049    0.0000 H   0  0  0  0  0  0  0  0  0  0  0  0
    1.7012   -1.6398    0.0000 H   0  0  0  0  0  0  0  0  0  0  0  0
    4.4154   -1.9682    0.0000 H   0  0  0  0  0  0  0  0  0  0  0  0
    4.9827   -1.4922    0.0000 H   0  0  0  0  0  0  0  0  0  0  0  0
    6.2146    2.6182    0.0000 H   0  0  0  0  0  0  0  0  0  0  0  0
    5.4651    2.3472    0.0000 H   0  0  0  0  0  0  0  0  0  0  0  0
    1.4460   -0.2049    0.0000 H   0  0  0  0  0  0  0  0  0  0  0  0
    1.5745   -0.9342    0.0000 H   0  0  0  0  0  0  0  0  0  0  0  0
    5.7222    0.1528    0.0000 H   0  0  0  0  0  0  0  0  0  0  0  0
    6.5959    0.2275    0.0000 H   0  0  0  0  0  0  0  0  0  0  0  0
    6.5212    1.1011    0.0000 H   0  0  0  0  0  0  0  0  0  0  0  0
    1.9281    1.0709    0.0000 H   0  0  0  0  0  0  0  0  0  0  0  0
    1.5578    0.4296    0.0000 H   0  0  0  0  0  0  0  0  0  0  0  0
    4.1673   -2.6159    0.0000 H   0  0  0  0  0  0  0  0  0  0  0  0
    4.9620   -2.2453    0.0000 H   0  0  0  0  0  0  0  0  0  0  0  0
    4.5914   -1.4506    0.0000 H   0  0  0  0  0  0  0  0  0  0  0  0
    2.9962    2.5590    0.0000 H   0  0  0  0  0  0  0  0  0  0  0  0
    1.9871    2.1918    0.0000 H   0  0  0  0  0  0  0  0  0  0  0  0
    7.3853    2.3345    0.0000 H   0  0  0  0  0  0  0  0  0  0  0  0
  1  7  1  0  0  0  0
  1  9  1  0  0  0  0
  2 12  1  0  0  0  0
  2 41  1  0  0  0  0
  3  4  1  0  0  0  0
  3  5  1  0  0  0  0
  3  8  1  0  0  0  0
  3 18  1  0  0  0  0
  4  6  1  0  0  0  0
  4 12  1  0  0  0  0
  4 14  1  0  0  0  0
  5  6  1  0  0  0  0
  5 11  1  0  0  0  0
  5 19  1  0  0  0  0
  6 20  1  0  0  0  0
  6 21  1  0  0  0  0
  7  9  1  0  0  0  0
  7 10  1  0  0  0  0
  7 16  1  0  0  0  0
  8 10  1  0  0  0  0
  8 22  1  0  0  0  0
  8 23  1  0  0  0  0
  9 13  1  0  0  0  0
  9 24  1  0  0  0  0
 10 25  1  0  0  0  0
 10 26  1  0  0  0  0
 11 15  1  0  0  0  0
 11 17  2  0  0  0  0
 12 27  1  0  0  0  0
 12 28  1  0  0  0  0
 13 15  1  0  0  0  0
 13 29  1  0  0  0  0
 13 30  1  0  0  0  0
 14 31  1  0  0  0  0
 14 32  1  0  0  0  0
 14 33  1  0  0  0  0
 15 34  1  0  0  0  0
 15 35  1  0  0  0  0
 16 36  1  0  0  0  0
 16 37  1  0  0  0  0
 16 38  1  0  0  0  0
 17 39  1  0  0  0  0
 17 40  1  0  0  0  0
M  END
>  <PUBCHEM_COMPOUND_CID>
155791

>  <PUBCHEM_COMPOUND_CANONICALIZED>
1

>  <PUBCHEM_CACTVS_COMPLEXITY>
351

>  <PUBCHEM_CACTVS_HBOND_ACCEPTOR>
2

>  <PUBCHEM_CACTVS_HBOND_DONOR>
1

>  <PUBCHEM_CACTVS_ROTATABLE_BOND>
1

>  <PUBCHEM_CACTVS_SUBSKEYS>
AAADceBwMAAAAAAAAAAAAAAAEgBgAAAAAAAAAAAAAAAAAGCQAAAAGgAACAAAD1SggAICAAAABgCAAgBCAAAAAAAgAAAAAAAAAAgAEAIAAQACQAAEgAAAAAGAwPAPgAAAAAAAAAAAAAAAAAAAAAAAAAAAAA==

>  <PUBCHEM_IUPAC_INCHI>
InChI=1S/C15H24O2/c1-10-4-5-13-15(3,17-13)7-6-12-11(10)8-14(12,2)9-16/h11-13,16H,1,4-9H2,2-3H3

>  <PUBCHEM_IUPAC_INCHIKEY>
XLKXIWMHACWINL-UHFFFAOYSA-N

>  <PUBCHEM_XLOGP3_AA>
2.2

>  <PUBCHEM_EXACT_MASS>
236.178

>  <PUBCHEM_MOLECULAR_FORMULA>
C15H24O2

>  <PUBCHEM_MOLECULAR_WEIGHT>
236.355

>  <PUBCHEM_OPENEYE_CAN_SMILES>
CC12CCC3C(CC3(C)CO)C(=C)CCC1O2

>  <PUBCHEM_OPENEYE_ISO_SMILES>
CC12CCC3C(CC3(C)CO)C(=C)CCC1O2

>  <PUBCHEM_CACTVS_TPSA>
32.8

>  <PUBCHEM_MONOISOTOPIC_WEIGHT>
236.178

>  <PUBCHEM_TOTAL_CHARGE>
0

>  <PUBCHEM_HEAVY_ATOM_COUNT>
17

>  <PUBCHEM_ATOM_DEF_STEREO_COUNT>
0

>  <PUBCHEM_ATOM_UDEF_STEREO_COUNT>
5

>  <PUBCHEM_BOND_DEF_STEREO_COUNT>
0

>  <PUBCHEM_BOND_UDEF_STEREO_COUNT>
0

>  <PUBCHEM_ISOTOPIC_ATOM_COUNT>
0

>  <PUBCHEM_COMPONENT_COUNT>
1

>  <PUBCHEM_CACTVS_TAUTO_COUNT>
1

>  <PUBCHEM_COORDINATE_TYPE>
1
5
255

>  <PUBCHEM_BONDANNOTATIONS>
3  18  3
4  12  3
5  19  3
7  16  3
9  24  3

$$$$
