15592799
 OpenBabel06101807152D

 73 77  0  0  1  0  0  0  0  0999 V2000
    9.5236   -2.0198    0.0000 O   0  0  0  0  0  0  0  0  0  0  0  0
    6.0595   -2.0198    0.0000 O   0  0  0  0  0  0  0  0  0  0  0  0
    7.7916   -2.0198    0.0000 O   0  0  0  0  0  0  0  0  0  0  0  0
   10.3897    0.4802    0.0000 O   0  0  0  0  0  0  0  0  0  0  0  0
   12.1217   -0.5198    0.0000 O   0  0  0  0  0  0  0  0  0  0  0  0
   12.1217   -2.5198    0.0000 O   0  0  0  0  0  0  0  0  0  0  0  0
    6.0595   -5.0198    0.0000 O   0  0  0  0  0  0  0  0  0  0  0  0
    7.7916   -4.0198    0.0000 O   0  0  0  0  0  0  0  0  0  0  0  0
    4.3275   -4.0198    0.0000 O   0  0  0  0  0  0  0  0  0  0  0  0
   11.2557   -4.0198    0.0000 O   0  0  0  0  0  0  0  0  0  0  0  0
    9.5236    0.9802    0.0000 O   0  0  0  0  0  0  0  0  0  0  0  0
    6.0156    0.9870    0.0000 O   0  0  0  0  0  0  0  0  0  0  0  0
    3.4614   -2.5198    0.0000 O   0  0  0  0  0  0  0  0  0  0  0  0
    8.6794    2.5116    0.0000 O   0  0  0  0  0  0  0  0  0  0  0  0
    4.2639    5.0219    0.0000 O   0  0  0  0  0  0  0  0  0  0  0  0
    2.5357    4.0152    0.0000 O   0  0  0  0  0  0  0  0  0  0  0  0
    9.5236   -1.0198    0.0000 C   0  0  3  0  0  0  0  0  0  0  0  0
   10.3897   -0.5198    0.0000 C   0  0  3  0  0  0  0  0  0  0  0  0
   11.2557   -1.0198    0.0000 C   0  0  3  0  0  0  0  0  0  0  0  0
   11.2557   -2.0198    0.0000 C   0  0  3  0  0  0  0  0  0  0  0  0
   10.3897   -2.5198    0.0000 C   0  0  3  0  0  0  0  0  0  0  0  0
    8.6576   -0.5198    0.0000 C   0  0  0  0  0  0  0  0  0  0  0  0
    6.0595   -4.0198    0.0000 C   0  0  3  0  0  0  0  0  0  0  0  0
    6.9256   -3.5198    0.0000 C   0  0  3  0  0  0  0  0  0  0  0  0
    5.1935   -3.5198    0.0000 C   0  0  3  0  0  0  0  0  0  0  0  0
    6.9256   -2.5198    0.0000 C   0  0  3  0  0  0  0  0  0  0  0  0
    5.1935   -2.5198    0.0000 C   0  0  3  0  0  0  0  0  0  0  0  0
    7.7916   -1.0198    0.0000 C   0  0  0  0  0  0  0  0  0  0  0  0
   10.3897   -3.5198    0.0000 C   0  0  0  0  0  0  0  0  0  0  0  0
    8.6576    0.4802    0.0000 C   0  0  0  0  0  0  0  0  0  0  0  0
    4.3275   -2.0198    0.0000 C   0  0  0  0  0  0  0  0  0  0  0  0
    6.9256   -0.5198    0.0000 C   0  0  0  0  0  0  0  0  0  0  0  0
    7.7916    0.9802    0.0000 C   0  0  0  0  0  0  0  0  0  0  0  0
    6.9256    0.4802    0.0000 C   0  0  0  0  0  0  0  0  0  0  0  0
    7.8076    2.0217    0.0000 C   0  0  0  0  0  0  0  0  0  0  0  0
    6.0075    2.0286    0.0000 C   0  0  0  0  0  0  0  0  0  0  0  0
    6.9096    2.5494    0.0000 C   0  0  0  0  0  0  0  0  0  0  0  0
    5.1396    2.5253    0.0000 C   0  0  0  0  0  0  0  0  0  0  0  0
    5.1357    3.5253    0.0000 C   0  0  0  0  0  0  0  0  0  0  0  0
    4.2755    2.0219    0.0000 C   0  0  0  0  0  0  0  0  0  0  0  0
    4.2678    4.0219    0.0000 C   0  0  0  0  0  0  0  0  0  0  0  0
    3.4075    2.5186    0.0000 C   0  0  0  0  0  0  0  0  0  0  0  0
    3.4037    3.5186    0.0000 C   0  0  0  0  0  0  0  0  0  0  0  0
    9.5236   -0.3998    0.0000 H   0  0  0  0  0  0  0  0  0  0  0  0
   10.9266   -0.2098    0.0000 H   0  0  0  0  0  0  0  0  0  0  0  0
   11.7926   -1.3298    0.0000 H   0  0  0  0  0  0  0  0  0  0  0  0
   11.2557   -2.6398    0.0000 H   0  0  0  0  0  0  0  0  0  0  0  0
    9.8527   -2.8298    0.0000 H   0  0  0  0  0  0  0  0  0  0  0  0
    6.5965   -4.3298    0.0000 H   0  0  0  0  0  0  0  0  0  0  0  0
    7.4625   -3.2098    0.0000 H   0  0  0  0  0  0  0  0  0  0  0  0
    5.1935   -4.1398    0.0000 H   0  0  0  0  0  0  0  0  0  0  0  0
    6.9256   -1.8998    0.0000 H   0  0  0  0  0  0  0  0  0  0  0  0
    5.1935   -1.8998    0.0000 H   0  0  0  0  0  0  0  0  0  0  0  0
    9.7791   -3.4122    0.0000 H   0  0  0  0  0  0  0  0  0  0  0  0
   10.1776   -4.1024    0.0000 H   0  0  0  0  0  0  0  0  0  0  0  0
    4.7260   -1.5449    0.0000 H   0  0  0  0  0  0  0  0  0  0  0  0
    3.9290   -1.5449    0.0000 H   0  0  0  0  0  0  0  0  0  0  0  0
   10.9266    0.7902    0.0000 H   0  0  0  0  0  0  0  0  0  0  0  0
   12.6586   -0.8298    0.0000 H   0  0  0  0  0  0  0  0  0  0  0  0
   12.6586   -2.2098    0.0000 H   0  0  0  0  0  0  0  0  0  0  0  0
    6.3886   -0.8298    0.0000 H   0  0  0  0  0  0  0  0  0  0  0  0
    5.5226   -5.3298    0.0000 H   0  0  0  0  0  0  0  0  0  0  0  0
    7.7916   -4.6398    0.0000 H   0  0  0  0  0  0  0  0  0  0  0  0
    4.3275   -4.6398    0.0000 H   0  0  0  0  0  0  0  0  0  0  0  0
   11.2557   -4.6398    0.0000 H   0  0  0  0  0  0  0  0  0  0  0  0
    9.5236    1.6002    0.0000 H   0  0  0  0  0  0  0  0  0  0  0  0
    2.9245   -2.2098    0.0000 H   0  0  0  0  0  0  0  0  0  0  0  0
    6.9120    3.1694    0.0000 H   0  0  0  0  0  0  0  0  0  0  0  0
    5.6715    3.8373    0.0000 H   0  0  0  0  0  0  0  0  0  0  0  0
    4.2779    1.4019    0.0000 H   0  0  0  0  0  0  0  0  0  0  0  0
    2.8718    2.2065    0.0000 H   0  0  0  0  0  0  0  0  0  0  0  0
    3.7258    5.3298    0.0000 H   0  0  0  0  0  0  0  0  0  0  0  0
    2.0000    3.7032    0.0000 H   0  0  0  0  0  0  0  0  0  0  0  0
  1 17  1  0  0  0  0
  1 21  1  0  0  0  0
  2 26  1  0  0  0  0
  2 27  1  0  0  0  0
  3 26  1  0  0  0  0
  3 28  1  0  0  0  0
  4 18  1  0  0  0  0
  4 58  1  0  0  0  0
  5 19  1  0  0  0  0
  5 59  1  0  0  0  0
  6 20  1  0  0  0  0
  6 60  1  0  0  0  0
  7 23  1  0  0  0  0
  7 62  1  0  0  0  0
  8 24  1  0  0  0  0
  8 63  1  0  0  0  0
  9 25  1  0  0  0  0
  9 64  1  0  0  0  0
 10 29  1  0  0  0  0
 10 65  1  0  0  0  0
 11 30  1  0  0  0  0
 11 66  1  0  0  0  0
 12 34  1  0  0  0  0
 12 36  1  0  0  0  0
 13 31  1  0  0  0  0
 13 67  1  0  0  0  0
 14 35  2  0  0  0  0
 15 41  1  0  0  0  0
 15 72  1  0  0  0  0
 16 43  1  0  0  0  0
 16 73  1  0  0  0  0
 17 18  1  0  0  0  0
 17 22  1  0  0  0  0
 17 44  1  0  0  0  0
 18 19  1  0  0  0  0
 18 45  1  0  0  0  0
 19 20  1  0  0  0  0
 19 46  1  0  0  0  0
 20 21  1  0  0  0  0
 20 47  1  0  0  0  0
 21 29  1  0  0  0  0
 21 48  1  0  0  0  0
 22 28  2  0  0  0  0
 22 30  1  0  0  0  0
 23 24  1  0  0  0  0
 23 25  1  0  0  0  0
 23 49  1  0  0  0  0
 24 26  1  0  0  0  0
 24 50  1  0  0  0  0
 25 27  1  0  0  0  0
 25 51  1  0  0  0  0
 26 52  1  0  0  0  0
 27 31  1  0  0  0  0
 27 53  1  0  0  0  0
 28 32  1  0  0  0  0
 29 54  1  0  0  0  0
 29 55  1  0  0  0  0
 30 33  2  0  0  0  0
 31 56  1  0  0  0  0
 31 57  1  0  0  0  0
 32 34  2  0  0  0  0
 32 61  1  0  0  0  0
 33 34  1  0  0  0  0
 33 35  1  0  0  0  0
 35 37  1  0  0  0  0
 36 37  2  0  0  0  0
 36 38  1  0  0  0  0
 37 68  1  0  0  0  0
 38 39  2  0  0  0  0
 38 40  1  0  0  0  0
 39 41  1  0  0  0  0
 39 69  1  0  0  0  0
 40 42  2  0  0  0  0
 40 70  1  0  0  0  0
 41 43  2  0  0  0  0
 42 43  1  0  0  0  0
 42 71  1  0  0  0  0
M  END
>  <PUBCHEM_COMPOUND_CID>
15592799

>  <PUBCHEM_COMPOUND_CANONICALIZED>
1

>  <PUBCHEM_CACTVS_COMPLEXITY>
1010

>  <PUBCHEM_CACTVS_HBOND_ACCEPTOR>
16

>  <PUBCHEM_CACTVS_HBOND_DONOR>
11

>  <PUBCHEM_CACTVS_ROTATABLE_BOND>
6

>  <PUBCHEM_CACTVS_SUBSKEYS>
AAADceB4PgAAAAAAAAAAAAAAAAAAAAAAAAA0aIECAAAAAACBQAAAGgAACAAADBSwmAMwDoAABgCIAqBSAAACCAAkIAAIiAEGiMgdNzaGNRqieWGl4BUPuQfI7PzOIAADCAAIQABAAAYQABCAAAAAAAAAAA==

>  <PUBCHEM_IUPAC_OPENEYE_NAME>
2-(3,4-dihydroxyphenyl)-5-hydroxy-6-[3,4,5-trihydroxy-6-(hydroxymethyl)tetrahydropyran-2-yl]-7-[3,4,5-trihydroxy-6-(hydroxymethyl)tetrahydropyran-2-yl]oxy-chromen-4-one

>  <PUBCHEM_IUPAC_CAS_NAME>
2-(3,4-dihydroxyphenyl)-5-hydroxy-6-[3,4,5-trihydroxy-6-(hydroxymethyl)-2-oxanyl]-7-[[3,4,5-trihydroxy-6-(hydroxymethyl)-2-oxanyl]oxy]-1-benzopyran-4-one

>  <PUBCHEM_IUPAC_NAME>
2-(3,4-dihydroxyphenyl)-5-hydroxy-6-[3,4,5-trihydroxy-6-(hydroxymethyl)oxan-2-yl]-7-[3,4,5-trihydroxy-6-(hydroxymethyl)oxan-2-yl]oxychromen-4-one

>  <PUBCHEM_IUPAC_SYSTEMATIC_NAME>
2-[3,4-bis(oxidanyl)phenyl]-6-[6-(hydroxymethyl)-3,4,5-tris(oxidanyl)oxan-2-yl]-7-[6-(hydroxymethyl)-3,4,5-tris(oxidanyl)oxan-2-yl]oxy-5-oxidanyl-chromen-4-one

>  <PUBCHEM_IUPAC_TRADITIONAL_NAME>
2-(3,4-dihydroxyphenyl)-5-hydroxy-6-(3,4,5-trihydroxy-6-methylol-tetrahydropyran-2-yl)-7-(3,4,5-trihydroxy-6-methylol-tetrahydropyran-2-yl)oxy-chromone

>  <PUBCHEM_IUPAC_INCHI>
InChI=1S/C27H30O16/c28-6-15-19(33)22(36)24(38)26(41-15)18-14(42-27-25(39)23(37)20(34)16(7-29)43-27)5-13-17(21(18)35)11(32)4-12(40-13)8-1-2-9(30)10(31)3-8/h1-5,15-16,19-20,22-31,33-39H,6-7H2

>  <PUBCHEM_IUPAC_INCHIKEY>
OQKYVRDRDIXQMK-UHFFFAOYSA-N

>  <PUBCHEM_XLOGP3_AA>
-2

>  <PUBCHEM_EXACT_MASS>
610.153

>  <PUBCHEM_MOLECULAR_FORMULA>
C27H30O16

>  <PUBCHEM_MOLECULAR_WEIGHT>
610.521

>  <PUBCHEM_OPENEYE_CAN_SMILES>
C1=CC(=C(C=C1C2=CC(=O)C3=C(C(=C(C=C3O2)OC4C(C(C(C(O4)CO)O)O)O)C5C(C(C(C(O5)CO)O)O)O)O)O)O

>  <PUBCHEM_OPENEYE_ISO_SMILES>
C1=CC(=C(C=C1C2=CC(=O)C3=C(C(=C(C=C3O2)OC4C(C(C(C(O4)CO)O)O)O)C5C(C(C(C(O5)CO)O)O)O)O)O)O

>  <PUBCHEM_CACTVS_TPSA>
277

>  <PUBCHEM_MONOISOTOPIC_WEIGHT>
610.153

>  <PUBCHEM_TOTAL_CHARGE>
0

>  <PUBCHEM_HEAVY_ATOM_COUNT>
43

>  <PUBCHEM_ATOM_DEF_STEREO_COUNT>
0

>  <PUBCHEM_ATOM_UDEF_STEREO_COUNT>
10

>  <PUBCHEM_BOND_DEF_STEREO_COUNT>
0

>  <PUBCHEM_BOND_UDEF_STEREO_COUNT>
0

>  <PUBCHEM_ISOTOPIC_ATOM_COUNT>
0

>  <PUBCHEM_COMPONENT_COUNT>
1

>  <PUBCHEM_CACTVS_TAUTO_COUNT>
68

>  <PUBCHEM_COORDINATE_TYPE>
1
5
255

>  <PUBCHEM_BONDANNOTATIONS>
12  34  8
12  36  8
17  22  3
21  29  3
22  28  8
22  30  8
27  31  3
28  32  8
26  3  3
30  33  8
32  34  8
33  34  8
33  35  8
35  37  8
36  37  8
38  39  8
38  40  8
39  41  8
18  4  3
40  42  8
41  43  8
42  43  8
19  5  3
20  6  3
23  7  3
24  8  3
25  9  3

$$$$
