15714486
 OpenBabel06101807152D

 30 30  0  0  0  0  0  0  0  0999 V2000
    6.0010    0.6900    0.0000 C   0  0  0  0  0  0  0  0  0  0  0  0
    4.2690   -0.3100    0.0000 C   0  0  0  0  0  0  0  0  0  0  0  0
    5.1350    1.1900    0.0000 C   0  0  0  0  0  0  0  0  0  0  0  0
    5.1350   -0.8100    0.0000 C   0  0  0  0  0  0  0  0  0  0  0  0
    3.4030   -0.8100    0.0000 C   0  0  0  0  0  0  0  0  0  0  0  0
    6.0010   -0.3100    0.0000 C   0  0  0  0  0  0  0  0  0  0  0  0
    4.2690    0.6900    0.0000 C   0  0  0  0  0  0  0  0  0  0  0  0
    5.1350   -1.8100    0.0000 C   0  0  0  0  0  0  0  0  0  0  0  0
    2.5369   -0.3100    0.0000 C   0  0  0  0  0  0  0  0  0  0  0  0
    3.4030    1.1900    0.0000 C   0  0  0  0  0  0  0  0  0  0  0  0
    2.5369    0.6900    0.0000 C   0  0  0  0  0  0  0  0  0  0  0  0
    4.6547    0.2304    0.0000 C   0  0  0  0  0  0  0  0  0  0  0  0
    6.6116    0.5823    0.0000 H   0  0  0  0  0  0  0  0  0  0  0  0
    6.2131    1.2726    0.0000 H   0  0  0  0  0  0  0  0  0  0  0  0
    4.6675    0.1649    0.0000 H   0  0  0  0  0  0  0  0  0  0  0  0
    3.8705    0.1649    0.0000 H   0  0  0  0  0  0  0  0  0  0  0  0
    5.5335    1.6650    0.0000 H   0  0  0  0  0  0  0  0  0  0  0  0
    4.7365    1.6650    0.0000 H   0  0  0  0  0  0  0  0  0  0  0  0
    3.0044   -1.2850    0.0000 H   0  0  0  0  0  0  0  0  0  0  0  0
    3.8015   -1.2850    0.0000 H   0  0  0  0  0  0  0  0  0  0  0  0
    6.5380   -0.6200    0.0000 H   0  0  0  0  0  0  0  0  0  0  0  0
    4.5150   -1.8100    0.0000 H   0  0  0  0  0  0  0  0  0  0  0  0
    5.1350   -2.4300    0.0000 H   0  0  0  0  0  0  0  0  0  0  0  0
    5.7550   -1.8100    0.0000 H   0  0  0  0  0  0  0  0  0  0  0  0
    2.0000   -0.6200    0.0000 H   0  0  0  0  0  0  0  0  0  0  0  0
    3.4030    1.8100    0.0000 H   0  0  0  0  0  0  0  0  0  0  0  0
    2.0000    1.0000    0.0000 H   0  0  0  0  0  0  0  0  0  0  0  0
    4.1798   -0.1682    0.0000 H   0  0  0  0  0  0  0  0  0  0  0  0
    5.0533   -0.2444    0.0000 H   0  0  0  0  0  0  0  0  0  0  0  0
    5.1296    0.6290    0.0000 H   0  0  0  0  0  0  0  0  0  0  0  0
  1  3  1  0  0  0  0
  1  6  1  0  0  0  0
  1 13  1  0  0  0  0
  1 14  1  0  0  0  0
  2  4  1  0  0  0  0
  2  5  1  0  0  0  0
  2 15  1  0  0  0  0
  2 16  1  0  0  0  0
  3  7  1  0  0  0  0
  3 17  1  0  0  0  0
  3 18  1  0  0  0  0
  4  6  2  0  0  0  0
  4  8  1  0  0  0  0
  5  9  1  0  0  0  0
  5 19  1  0  0  0  0
  5 20  1  0  0  0  0
  6 21  1  0  0  0  0
  7 10  2  0  0  0  0
  7 12  1  0  0  0  0
  8 22  1  0  0  0  0
  8 23  1  0  0  0  0
  8 24  1  0  0  0  0
  9 11  2  0  0  0  0
  9 25  1  0  0  0  0
 10 11  1  0  0  0  0
 10 26  1  0  0  0  0
 11 27  1  0  0  0  0
 12 28  1  0  0  0  0
 12 29  1  0  0  0  0
 12 30  1  0  0  0  0
M  END
>  <PUBCHEM_COMPOUND_CID>
15714486

>  <PUBCHEM_COMPOUND_CANONICALIZED>
1

>  <PUBCHEM_CACTVS_COMPLEXITY>
216

>  <PUBCHEM_CACTVS_HBOND_ACCEPTOR>
0

>  <PUBCHEM_CACTVS_HBOND_DONOR>
0

>  <PUBCHEM_CACTVS_ROTATABLE_BOND>
0

>  <PUBCHEM_CACTVS_SUBSKEYS>
AAADceBwAAAAAAAAAAAAAAAAAAAAAAAAAAAAAAAAAAAAAACAAAAAGAAAAAAADACAAAACAAAAAACAAiBCAAAAAAAgAAAICAAAAAgIAAIAAQAAAAAAgAAIgAIAAAAAAAAAAAAAAAAAAAAAAAAAAAAAAAAAAA==

>  <PUBCHEM_IUPAC_OPENEYE_NAME>
(1E,3Z,7Z)-1,7-dimethylcyclodeca-1,3,7-triene

>  <PUBCHEM_IUPAC_CAS_NAME>
(1E,3Z,7Z)-1,7-dimethylcyclodeca-1,3,7-triene

>  <PUBCHEM_IUPAC_NAME>
(1E,3Z,7Z)-1,7-dimethylcyclodeca-1,3,7-triene

>  <PUBCHEM_IUPAC_SYSTEMATIC_NAME>
(1E,3Z,7Z)-1,7-dimethylcyclodeca-1,3,7-triene

>  <PUBCHEM_IUPAC_TRADITIONAL_NAME>
(1E,3Z,7Z)-1,7-dimethylcyclodeca-1,3,7-triene

>  <PUBCHEM_IUPAC_INCHI>
InChI=1S/C12H18/c1-11-7-4-3-5-8-12(2)10-6-9-11/h3-4,7,10H,5-6,8-9H2,1-2H3/b4-3-,11-7+,12-10-

>  <PUBCHEM_IUPAC_INCHIKEY>
ACTKFDMFHYIKRY-KCWZREBISA-N

>  <PUBCHEM_XLOGP3_AA>
3.4

>  <PUBCHEM_EXACT_MASS>
162.141

>  <PUBCHEM_MOLECULAR_FORMULA>
C12H18

>  <PUBCHEM_MOLECULAR_WEIGHT>
162.276

>  <PUBCHEM_OPENEYE_CAN_SMILES>
CC1=CCCC(=CC=CCC1)C

>  <PUBCHEM_OPENEYE_ISO_SMILES>
C/C/1=C/CC/C(=C/C=C\CC1)/C

>  <PUBCHEM_CACTVS_TPSA>
0

>  <PUBCHEM_MONOISOTOPIC_WEIGHT>
162.141

>  <PUBCHEM_TOTAL_CHARGE>
0

>  <PUBCHEM_HEAVY_ATOM_COUNT>
12

>  <PUBCHEM_ATOM_DEF_STEREO_COUNT>
0

>  <PUBCHEM_ATOM_UDEF_STEREO_COUNT>
0

>  <PUBCHEM_BOND_DEF_STEREO_COUNT>
3

>  <PUBCHEM_BOND_UDEF_STEREO_COUNT>
0

>  <PUBCHEM_ISOTOPIC_ATOM_COUNT>
0

>  <PUBCHEM_COMPONENT_COUNT>
1

>  <PUBCHEM_CACTVS_TAUTO_COUNT>
1

>  <PUBCHEM_COORDINATE_TYPE>
1
5
255

$$$$
