15725888
 OpenBabel06101807152D

 53 57  0  0  0  0  0  0  0  0999 V2000
    8.2356    3.8692    0.0000 O   0  0  0  0  0  0  0  0  0  0  0  0
    6.3821    0.7710    0.0000 O   0  0  0  0  0  0  0  0  0  0  0  0
    4.6283    3.8024    0.0000 O   0  0  0  0  0  0  0  0  0  0  0  0
    3.7840    2.2710    0.0000 O   0  0  0  0  0  0  0  0  0  0  0  0
    5.5692   -3.9257    0.0000 O   0  0  0  0  0  0  0  0  0  0  0  0
    7.3403   -0.7746    0.0000 O   0  0  0  0  0  0  0  0  0  0  0  0
    3.7578   -2.8799    0.0000 O   0  0  0  0  0  0  0  0  0  0  0  0
    9.1752    3.3266    0.0000 C   0  0  0  0  0  0  0  0  0  0  0  0
    7.2921    2.2778    0.0000 C   0  0  0  0  0  0  0  0  0  0  0  0
    6.3821    1.7710    0.0000 C   0  0  0  0  0  0  0  0  0  0  0  0
    5.5161    2.2710    0.0000 C   0  0  0  0  0  0  0  0  0  0  0  0
    7.3002    3.3194    0.0000 C   0  0  0  0  0  0  0  0  0  0  0  0
    5.5161    0.2710    0.0000 C   0  0  0  0  0  0  0  0  0  0  0  0
    4.6501    0.7710    0.0000 C   0  0  0  0  0  0  0  0  0  0  0  0
    5.5322   -0.7705    0.0000 C   0  0  0  0  0  0  0  0  0  0  0  0
    9.1668    2.2417    0.0000 C   0  0  0  0  0  0  0  0  0  0  0  0
    4.6501    1.7710    0.0000 C   0  0  0  0  0  0  0  0  0  0  0  0
    4.6341   -1.2983    0.0000 C   0  0  0  0  0  0  0  0  0  0  0  0
    8.2190    1.7137    0.0000 C   0  0  0  0  0  0  0  0  0  0  0  0
    3.7320   -0.7775    0.0000 C   0  0  0  0  0  0  0  0  0  0  0  0
    5.5000    3.3125    0.0000 C   0  0  0  0  0  0  0  0  0  0  0  0
    6.3981    3.8402    0.0000 C   0  0  0  0  0  0  0  0  0  0  0  0
    3.7401    0.2641    0.0000 C   0  0  0  0  0  0  0  0  0  0  0  0
   10.1752    3.3228    0.0000 C   0  0  0  0  0  0  0  0  0  0  0  0
    9.6785    4.1907    0.0000 C   0  0  0  0  0  0  0  0  0  0  0  0
    6.4841   -1.2912    0.0000 C   0  0  0  0  0  0  0  0  0  0  0  0
    4.6258   -2.3832    0.0000 C   0  0  0  0  0  0  0  0  0  0  0  0
    2.8641   -1.2741    0.0000 C   0  0  0  0  0  0  0  0  0  0  0  0
    5.5654   -2.9257    0.0000 C   0  0  0  0  0  0  0  0  0  0  0  0
    6.5008   -2.3760    0.0000 C   0  0  0  0  0  0  0  0  0  0  0  0
    2.0000   -0.7708    0.0000 C   0  0  0  0  0  0  0  0  0  0  0  0
    2.8602   -2.2741    0.0000 C   0  0  0  0  0  0  0  0  0  0  0  0
    6.4372   -4.4224    0.0000 C   0  0  0  0  0  0  0  0  0  0  0  0
    9.7002    1.9255    0.0000 H   0  0  0  0  0  0  0  0  0  0  0  0
    8.2070    1.0939    0.0000 H   0  0  0  0  0  0  0  0  0  0  0  0
    3.2068    0.5803    0.0000 H   0  0  0  0  0  0  0  0  0  0  0  0
    6.3957    4.4602    0.0000 H   0  0  0  0  0  0  0  0  0  0  0  0
   10.1728    2.7028    0.0000 H   0  0  0  0  0  0  0  0  0  0  0  0
   10.7952    3.3204    0.0000 H   0  0  0  0  0  0  0  0  0  0  0  0
   10.1776    3.9428    0.0000 H   0  0  0  0  0  0  0  0  0  0  0  0
   10.2143    3.8787    0.0000 H   0  0  0  0  0  0  0  0  0  0  0  0
    9.9906    4.7265    0.0000 H   0  0  0  0  0  0  0  0  0  0  0  0
    9.1428    4.5028    0.0000 H   0  0  0  0  0  0  0  0  0  0  0  0
    7.0413   -2.6798    0.0000 H   0  0  0  0  0  0  0  0  0  0  0  0
    4.6211    4.4224    0.0000 H   0  0  0  0  0  0  0  0  0  0  0  0
    2.3121   -0.2351    0.0000 H   0  0  0  0  0  0  0  0  0  0  0  0
    1.4643   -0.4587    0.0000 H   0  0  0  0  0  0  0  0  0  0  0  0
    1.6879   -1.3065    0.0000 H   0  0  0  0  0  0  0  0  0  0  0  0
    2.3221   -2.5820    0.0000 H   0  0  0  0  0  0  0  0  0  0  0  0
    3.3960   -2.5862    0.0000 H   0  0  0  0  0  0  0  0  0  0  0  0
    6.1293   -4.9605    0.0000 H   0  0  0  0  0  0  0  0  0  0  0  0
    6.9753   -4.7303    0.0000 H   0  0  0  0  0  0  0  0  0  0  0  0
    6.7451   -3.8843    0.0000 H   0  0  0  0  0  0  0  0  0  0  0  0
  1  8  1  0  0  0  0
  1 12  1  0  0  0  0
  2 10  1  0  0  0  0
  2 13  1  0  0  0  0
  3 21  1  0  0  0  0
  3 45  1  0  0  0  0
  4 17  2  0  0  0  0
  5 29  1  0  0  0  0
  5 33  1  0  0  0  0
  6 26  2  0  0  0  0
  7 27  2  0  0  0  0
  8 16  1  0  0  0  0
  8 24  1  0  0  0  0
  8 25  1  0  0  0  0
  9 10  1  0  0  0  0
  9 12  2  0  0  0  0
  9 19  1  0  0  0  0
 10 11  2  0  0  0  0
 11 17  1  0  0  0  0
 11 21  1  0  0  0  0
 12 22  1  0  0  0  0
 13 14  1  0  0  0  0
 13 15  2  0  0  0  0
 14 17  1  0  0  0  0
 14 23  2  0  0  0  0
 15 18  1  0  0  0  0
 15 26  1  0  0  0  0
 16 19  2  0  0  0  0
 16 34  1  0  0  0  0
 18 20  2  0  0  0  0
 18 27  1  0  0  0  0
 19 35  1  0  0  0  0
 20 23  1  0  0  0  0
 20 28  1  0  0  0  0
 21 22  2  0  0  0  0
 22 37  1  0  0  0  0
 23 36  1  0  0  0  0
 24 38  1  0  0  0  0
 24 39  1  0  0  0  0
 24 40  1  0  0  0  0
 25 41  1  0  0  0  0
 25 42  1  0  0  0  0
 25 43  1  0  0  0  0
 26 30  1  0  0  0  0
 27 29  1  0  0  0  0
 28 31  1  0  0  0  0
 28 32  2  0  0  0  0
 29 30  2  0  0  0  0
 30 44  1  0  0  0  0
 31 46  1  0  0  0  0
 31 47  1  0  0  0  0
 31 48  1  0  0  0  0
 32 49  1  0  0  0  0
 32 50  1  0  0  0  0
 33 51  1  0  0  0  0
 33 52  1  0  0  0  0
 33 53  1  0  0  0  0
M  END
>  <PUBCHEM_COMPOUND_CID>
15725888

>  <PUBCHEM_COMPOUND_CANONICALIZED>
1

>  <PUBCHEM_CACTVS_COMPLEXITY>
975

>  <PUBCHEM_CACTVS_HBOND_ACCEPTOR>
7

>  <PUBCHEM_CACTVS_HBOND_DONOR>
1

>  <PUBCHEM_CACTVS_ROTATABLE_BOND>
2

>  <PUBCHEM_CACTVS_SUBSKEYS>
AAADceB4OAAAAAAAAAAAAAAAAAAAAAAAAAA0YIECAAAAAACRQAAAGgAACAAADESAmAIyBoAABgCIAqBSAAICCAAkIAAIiAFGCMgMJzaGNR6CeWCl4BUIuYeL7vzu4AADCAAYAADAAAYQADAAAAAAAAAAAA==

>  <PUBCHEM_IUPAC_INCHI>
InChI=1S/C26H20O7/c1-11(2)13-8-14-22(29)21-16(28)9-17-12(6-7-26(3,4)33-17)24(21)32-25(14)20-15(27)10-18(31-5)23(30)19(13)20/h6-10,28H,1H2,2-5H3

>  <PUBCHEM_IUPAC_INCHIKEY>
HYOUKKTWDGSFHB-UHFFFAOYSA-N

>  <PUBCHEM_XLOGP3_AA>
5.2

>  <PUBCHEM_EXACT_MASS>
444.121

>  <PUBCHEM_MOLECULAR_FORMULA>
C26H20O7

>  <PUBCHEM_MOLECULAR_WEIGHT>
444.439

>  <PUBCHEM_OPENEYE_CAN_SMILES>
CC(=C)C1=C2C(=C3C(=C1)C(=O)C4=C(C=C5C(=C4O3)C=CC(O5)(C)C)O)C(=O)C=C(C2=O)OC

>  <PUBCHEM_OPENEYE_ISO_SMILES>
CC(=C)C1=C2C(=C3C(=C1)C(=O)C4=C(C=C5C(=C4O3)C=CC(O5)(C)C)O)C(=O)C=C(C2=O)OC

>  <PUBCHEM_CACTVS_TPSA>
99.1

>  <PUBCHEM_MONOISOTOPIC_WEIGHT>
444.121

>  <PUBCHEM_TOTAL_CHARGE>
0

>  <PUBCHEM_HEAVY_ATOM_COUNT>
33

>  <PUBCHEM_ATOM_DEF_STEREO_COUNT>
0

>  <PUBCHEM_ATOM_UDEF_STEREO_COUNT>
0

>  <PUBCHEM_BOND_DEF_STEREO_COUNT>
0

>  <PUBCHEM_BOND_UDEF_STEREO_COUNT>
0

>  <PUBCHEM_ISOTOPIC_ATOM_COUNT>
0

>  <PUBCHEM_COMPONENT_COUNT>
1

>  <PUBCHEM_CACTVS_TAUTO_COUNT>
6

>  <PUBCHEM_COORDINATE_TYPE>
1
5
255

>  <PUBCHEM_BONDANNOTATIONS>
10  11  8
11  17  8
11  21  8
12  22  8
13  14  8
13  15  8
14  17  8
14  23  8
15  18  8
18  20  8
2  10  8
2  13  8
20  23  8
21  22  8
9  10  8
9  12  8

$$$$
