157242
 OpenBabel06101807152D

184193  0  0  1  0  0  0  0  0999 V2000
    6.8671   -4.7722    0.0000 O   0  0  0  0  0  0  0  0  0  0  0  0
    8.6424    4.5822    0.0000 O   0  0  0  0  0  0  0  0  0  0  0  0
    6.8270    5.6211    0.0000 O   0  0  0  0  0  0  0  0  0  0  0  0
    9.3112   -4.0806    0.0000 O   0  0  0  0  0  0  0  0  0  0  0  0
    5.1350   -4.7722    0.0000 O   0  0  0  0  0  0  0  0  0  0  0  0
    7.7764    6.0822    0.0000 O   0  0  0  0  0  0  0  0  0  0  0  0
    6.8671   -6.7722    0.0000 O   0  0  0  0  0  0  0  0  0  0  0  0
   10.3745    5.5822    0.0000 O   0  0  0  0  0  0  0  0  0  0  0  0
    5.1350   -7.7722    0.0000 O   0  0  0  0  0  0  0  0  0  0  0  0
   10.3745    7.5822    0.0000 O   0  0  0  0  0  0  0  0  0  0  0  0
    3.4030   -6.7722    0.0000 O   0  0  0  0  0  0  0  0  0  0  0  0
    8.6424    8.5822    0.0000 O   0  0  0  0  0  0  0  0  0  0  0  0
    6.0010   -8.2722    0.0000 O   0  0  0  0  0  0  0  0  0  0  0  0
    2.5369   -5.2722    0.0000 O   0  0  0  0  0  0  0  0  0  0  0  0
    3.4030   -3.7722    0.0000 O   0  0  0  0  0  0  0  0  0  0  0  0
    9.5085    9.0822    0.0000 O   0  0  0  0  0  0  0  0  0  0  0  0
    8.5991   -7.7722    0.0000 O   0  0  0  0  0  0  0  0  0  0  0  0
    8.5991   -9.7722    0.0000 O   0  0  0  0  0  0  0  0  0  0  0  0
   12.1066    8.5822    0.0000 O   0  0  0  0  0  0  0  0  0  0  0  0
    6.8671  -10.7723    0.0000 O   0  0  0  0  0  0  0  0  0  0  0  0
   12.1066   10.5823    0.0000 O   0  0  0  0  0  0  0  0  0  0  0  0
    9.4651   -9.2722    0.0000 O   0  0  0  0  0  0  0  0  0  0  0  0
   10.3745   11.5823    0.0000 O   0  0  0  0  0  0  0  0  0  0  0  0
    5.1350  -10.7723    0.0000 O   0  0  0  0  0  0  0  0  0  0  0  0
    8.6424   11.5823    0.0000 O   0  0  0  0  0  0  0  0  0  0  0  0
   10.3312   -6.7722    0.0000 O   0  0  0  0  0  0  0  0  0  0  0  0
   12.0632   -7.7722    0.0000 O   0  0  0  0  0  0  0  0  0  0  0  0
   12.0632   -9.7722    0.0000 O   0  0  0  0  0  0  0  0  0  0  0  0
   11.1972  -11.2723    0.0000 O   0  0  0  0  0  0  0  0  0  0  0  0
    7.7681   -0.0720    0.0000 C   0  0  3  0  0  0  0  0  0  0  0  0
    6.9040   -0.5754    0.0000 C   0  0  3  0  0  0  0  0  0  0  0  0
    6.8920   -1.6169    0.0000 C   0  0  3  0  0  0  0  0  0  0  0  0
    7.7643    0.9280    0.0000 C   0  0  3  0  0  0  0  0  0  0  0  0
    7.7920   -2.1412    0.0000 C   0  0  3  0  0  0  0  0  0  0  0  0
    8.6801   -0.5754    0.0000 C   0  0  0  0  0  0  0  0  0  0  0  0
    6.8963    1.4246    0.0000 C   0  0  0  0  0  0  0  0  0  0  0  0
    6.8762    2.4661    0.0000 C   0  0  3  0  0  0  0  0  0  0  0  0
    8.6921   -1.6169    0.0000 C   0  0  0  0  0  0  0  0  0  0  0  0
    7.8046   -3.2261    0.0000 C   0  0  3  0  0  0  0  0  0  0  0  0
    7.7722    2.9973    0.0000 C   0  0  3  0  0  0  0  0  0  0  0  0
    8.6723    1.4383    0.0000 C   0  0  0  0  0  0  0  0  0  0  0  0
    6.0361   -0.0787    0.0000 C   0  0  0  0  0  0  0  0  0  0  0  0
    5.9421   -2.1412    0.0000 C   0  0  0  0  0  0  0  0  0  0  0  0
    8.6763    2.4799    0.0000 C   0  0  0  0  0  0  0  0  0  0  0  0
    8.7522    0.1054    0.0000 C   0  0  0  0  0  0  0  0  0  0  0  0
    6.8671   -3.7722    0.0000 C   0  0  3  0  0  0  0  0  0  0  0  0
    6.0322    0.9213    0.0000 C   0  0  0  0  0  0  0  0  0  0  0  0
    6.0279   -1.1136    0.0000 C   0  0  0  0  0  0  0  0  0  0  0  0
    5.9295   -3.2261    0.0000 C   0  0  0  0  0  0  0  0  0  0  0  0
    8.7497    0.7581    0.0000 C   0  0  0  0  0  0  0  0  0  0  0  0
    5.9223    2.9830    0.0000 C   0  0  0  0  0  0  0  0  0  0  0  0
    7.7764    4.0822    0.0000 C   0  0  3  0  0  0  0  0  0  0  0  0
    5.9014    4.0678    0.0000 C   0  0  0  0  0  0  0  0  0  0  0  0
    6.8347    4.6211    0.0000 C   0  0  3  0  0  0  0  0  0  0  0  0
    8.8046   -3.2184    0.0000 C   0  0  0  0  0  0  0  0  0  0  0  0
    8.3113   -4.0883    0.0000 C   0  0  0  0  0  0  0  0  0  0  0  0
    8.6324    3.5072    0.0000 C   0  0  0  0  0  0  0  0  0  0  0  0
    4.9015    4.0524    0.0000 C   0  0  0  0  0  0  0  0  0  0  0  0
    5.3881    4.9260    0.0000 C   0  0  0  0  0  0  0  0  0  0  0  0
    6.0010   -5.2722    0.0000 C   0  0  3  0  0  0  0  0  0  0  0  0
    8.6424    5.5822    0.0000 C   0  0  3  0  0  0  0  0  0  0  0  0
    6.0010   -6.2722    0.0000 C   0  0  3  0  0  0  0  0  0  0  0  0
    9.5085    6.0822    0.0000 C   0  0  3  0  0  0  0  0  0  0  0  0
    5.1350   -6.7722    0.0000 C   0  0  3  0  0  0  0  0  0  0  0  0
    9.5085    7.0822    0.0000 C   0  0  3  0  0  0  0  0  0  0  0  0
    4.2690   -5.2722    0.0000 C   0  0  3  0  0  0  0  0  0  0  0  0
    4.2690   -6.2722    0.0000 C   0  0  3  0  0  0  0  0  0  0  0  0
    7.7764    7.0822    0.0000 C   0  0  0  0  0  0  0  0  0  0  0  0
    8.6424    7.5822    0.0000 C   0  0  3  0  0  0  0  0  0  0  0  0
    6.8671   -7.7722    0.0000 C   0  0  3  0  0  0  0  0  0  0  0  0
    3.4030   -4.7722    0.0000 C   0  0  0  0  0  0  0  0  0  0  0  0
    7.7331   -8.2722    0.0000 C   0  0  3  0  0  0  0  0  0  0  0  0
   10.3745    8.5822    0.0000 C   0  0  3  0  0  0  0  0  0  0  0  0
    7.7331   -9.2722    0.0000 C   0  0  3  0  0  0  0  0  0  0  0  0
    6.0010   -9.2722    0.0000 C   0  0  3  0  0  0  0  0  0  0  0  0
   11.2405    9.0822    0.0000 C   0  0  3  0  0  0  0  0  0  0  0  0
    6.8671   -9.7722    0.0000 C   0  0  3  0  0  0  0  0  0  0  0  0
   11.2405   10.0823    0.0000 C   0  0  3  0  0  0  0  0  0  0  0  0
    9.5085   10.0823    0.0000 C   0  0  3  0  0  0  0  0  0  0  0  0
   10.3745   10.5823    0.0000 C   0  0  3  0  0  0  0  0  0  0  0  0
    5.1350   -9.7722    0.0000 C   0  0  0  0  0  0  0  0  0  0  0  0
    9.4651   -8.2722    0.0000 C   0  0  3  0  0  0  0  0  0  0  0  0
    8.6424   10.5823    0.0000 C   0  0  0  0  0  0  0  0  0  0  0  0
   10.3312   -7.7722    0.0000 C   0  0  3  0  0  0  0  0  0  0  0  0
   11.1972   -8.2722    0.0000 C   0  0  3  0  0  0  0  0  0  0  0  0
   10.3312   -9.7722    0.0000 C   0  0  3  0  0  0  0  0  0  0  0  0
   11.1972   -9.2722    0.0000 C   0  0  3  0  0  0  0  0  0  0  0  0
   10.3312  -10.7723    0.0000 C   0  0  0  0  0  0  0  0  0  0  0  0
    7.4398   -0.8874    0.0000 H   0  0  0  0  0  0  0  0  0  0  0  0
    8.3314   -2.4471    0.0000 H   0  0  0  0  0  0  0  0  0  0  0  0
    9.2921   -0.6744    0.0000 H   0  0  0  0  0  0  0  0  0  0  0  0
    8.8824    0.0107    0.0000 H   0  0  0  0  0  0  0  0  0  0  0  0
    6.3466    2.1437    0.0000 H   0  0  0  0  0  0  0  0  0  0  0  0
    8.9079   -2.1982    0.0000 H   0  0  0  0  0  0  0  0  0  0  0  0
    9.3017   -1.5038    0.0000 H   0  0  0  0  0  0  0  0  0  0  0  0
    8.8791    0.8538    0.0000 H   0  0  0  0  0  0  0  0  0  0  0  0
    9.2836    1.5420    0.0000 H   0  0  0  0  0  0  0  0  0  0  0  0
    5.4251    0.0266    0.0000 H   0  0  0  0  0  0  0  0  0  0  0  0
    5.8263   -0.6621    0.0000 H   0  0  0  0  0  0  0  0  0  0  0  0
    5.7398   -1.5552    0.0000 H   0  0  0  0  0  0  0  0  0  0  0  0
    5.3300   -2.2402    0.0000 H   0  0  0  0  0  0  0  0  0  0  0  0
    9.2868    2.3715    0.0000 H   0  0  0  0  0  0  0  0  0  0  0  0
    8.8876    3.0628    0.0000 H   0  0  0  0  0  0  0  0  0  0  0  0
    8.8623   -0.5048    0.0000 H   0  0  0  0  0  0  0  0  0  0  0  0
    9.3624    0.2154    0.0000 H   0  0  0  0  0  0  0  0  0  0  0  0
    8.6422    0.7156    0.0000 H   0  0  0  0  0  0  0  0  0  0  0  0
    7.4046   -4.0812    0.0000 H   0  0  0  0  0  0  0  0  0  0  0  0
    5.4941    1.2292    0.0000 H   0  0  0  0  0  0  0  0  0  0  0  0
    6.3400   -0.5779    0.0000 H   0  0  0  0  0  0  0  0  0  0  0  0
    5.4922   -0.8015    0.0000 H   0  0  0  0  0  0  0  0  0  0  0  0
    5.7158   -1.6493    0.0000 H   0  0  0  0  0  0  0  0  0  0  0  0
    5.3199   -3.1130    0.0000 H   0  0  0  0  0  0  0  0  0  0  0  0
    5.7137   -3.8074    0.0000 H   0  0  0  0  0  0  0  0  0  0  0  0
    8.6444    0.1471    0.0000 H   0  0  0  0  0  0  0  0  0  0  0  0
    9.3607    0.6528    0.0000 H   0  0  0  0  0  0  0  0  0  0  0  0
    8.8550    1.3691    0.0000 H   0  0  0  0  0  0  0  0  0  0  0  0
    5.3095    3.0773    0.0000 H   0  0  0  0  0  0  0  0  0  0  0  0
    5.7246    2.3954    0.0000 H   0  0  0  0  0  0  0  0  0  0  0  0
    8.3128    3.7712    0.0000 H   0  0  0  0  0  0  0  0  0  0  0  0
    7.3698    4.9342    0.0000 H   0  0  0  0  0  0  0  0  0  0  0  0
    9.3855   -3.0019    0.0000 H   0  0  0  0  0  0  0  0  0  0  0  0
    8.6922   -2.6087    0.0000 H   0  0  0  0  0  0  0  0  0  0  0  0
    7.7767   -4.4024    0.0000 H   0  0  0  0  0  0  0  0  0  0  0  0
    8.6254   -4.6228    0.0000 H   0  0  0  0  0  0  0  0  0  0  0  0
    8.8458   -3.7742    0.0000 H   0  0  0  0  0  0  0  0  0  0  0  0
    8.9486    2.9739    0.0000 H   0  0  0  0  0  0  0  0  0  0  0  0
    9.1657    3.8234    0.0000 H   0  0  0  0  0  0  0  0  0  0  0  0
    8.3162    4.0406    0.0000 H   0  0  0  0  0  0  0  0  0  0  0  0
    5.9202    5.2442    0.0000 H   0  0  0  0  0  0  0  0  0  0  0  0
    5.0699    5.4581    0.0000 H   0  0  0  0  0  0  0  0  0  0  0  0
    4.8560    4.6078    0.0000 H   0  0  0  0  0  0  0  0  0  0  0  0
    4.8920    4.6723    0.0000 H   0  0  0  0  0  0  0  0  0  0  0  0
    4.2816    4.0428    0.0000 H   0  0  0  0  0  0  0  0  0  0  0  0
    4.9111    3.4325    0.0000 H   0  0  0  0  0  0  0  0  0  0  0  0
    6.2877    5.9270    0.0000 H   0  0  0  0  0  0  0  0  0  0  0  0
    6.0010   -4.6523    0.0000 H   0  0  0  0  0  0  0  0  0  0  0  0
    9.9312   -4.0758    0.0000 H   0  0  0  0  0  0  0  0  0  0  0  0
    8.1055    5.2722    0.0000 H   0  0  0  0  0  0  0  0  0  0  0  0
    6.0010   -6.8922    0.0000 H   0  0  0  0  0  0  0  0  0  0  0  0
   10.0454    6.3922    0.0000 H   0  0  0  0  0  0  0  0  0  0  0  0
    4.5981   -7.0822    0.0000 H   0  0  0  0  0  0  0  0  0  0  0  0
    9.5085    7.7022    0.0000 H   0  0  0  0  0  0  0  0  0  0  0  0
    4.2690   -4.6523    0.0000 H   0  0  0  0  0  0  0  0  0  0  0  0
    3.7320   -5.9622    0.0000 H   0  0  0  0  0  0  0  0  0  0  0  0
    7.5644    7.6649    0.0000 H   0  0  0  0  0  0  0  0  0  0  0  0
    7.1658    6.9746    0.0000 H   0  0  0  0  0  0  0  0  0  0  0  0
    8.1055    7.8922    0.0000 H   0  0  0  0  0  0  0  0  0  0  0  0
   10.9114    5.8922    0.0000 H   0  0  0  0  0  0  0  0  0  0  0  0
    7.4040   -7.4622    0.0000 H   0  0  0  0  0  0  0  0  0  0  0  0
    4.5981   -8.0822    0.0000 H   0  0  0  0  0  0  0  0  0  0  0  0
    3.4030   -7.3922    0.0000 H   0  0  0  0  0  0  0  0  0  0  0  0
    8.1055    8.8922    0.0000 H   0  0  0  0  0  0  0  0  0  0  0  0
    8.2700   -8.5822    0.0000 H   0  0  0  0  0  0  0  0  0  0  0  0
    9.8376    8.2722    0.0000 H   0  0  0  0  0  0  0  0  0  0  0  0
    7.7331   -9.8922    0.0000 H   0  0  0  0  0  0  0  0  0  0  0  0
    5.4641   -8.9622    0.0000 H   0  0  0  0  0  0  0  0  0  0  0  0
   11.7775    9.3922    0.0000 H   0  0  0  0  0  0  0  0  0  0  0  0
    2.0000   -4.9622    0.0000 H   0  0  0  0  0  0  0  0  0  0  0  0
    6.3301  -10.0823    0.0000 H   0  0  0  0  0  0  0  0  0  0  0  0
   11.2405   10.7023    0.0000 H   0  0  0  0  0  0  0  0  0  0  0  0
    8.9715    9.7722    0.0000 H   0  0  0  0  0  0  0  0  0  0  0  0
    9.8376   10.8923    0.0000 H   0  0  0  0  0  0  0  0  0  0  0  0
    4.9230   -9.1896    0.0000 H   0  0  0  0  0  0  0  0  0  0  0  0
    4.5244   -9.8799    0.0000 H   0  0  0  0  0  0  0  0  0  0  0  0
    9.4651   -7.6522    0.0000 H   0  0  0  0  0  0  0  0  0  0  0  0
    8.5991  -10.3923    0.0000 H   0  0  0  0  0  0  0  0  0  0  0  0
   12.6435    8.8922    0.0000 H   0  0  0  0  0  0  0  0  0  0  0  0
    7.4040  -11.0823    0.0000 H   0  0  0  0  0  0  0  0  0  0  0  0
    8.0319   10.6899    0.0000 H   0  0  0  0  0  0  0  0  0  0  0  0
    8.4304    9.9997    0.0000 H   0  0  0  0  0  0  0  0  0  0  0  0
   10.8681   -7.4622    0.0000 H   0  0  0  0  0  0  0  0  0  0  0  0
   12.1066   11.2023    0.0000 H   0  0  0  0  0  0  0  0  0  0  0  0
   10.9114   11.8923    0.0000 H   0  0  0  0  0  0  0  0  0  0  0  0
    4.5981  -11.0823    0.0000 H   0  0  0  0  0  0  0  0  0  0  0  0
   11.7341   -8.5822    0.0000 H   0  0  0  0  0  0  0  0  0  0  0  0
    9.7942  -10.0823    0.0000 H   0  0  0  0  0  0  0  0  0  0  0  0
   11.1972   -9.8922    0.0000 H   0  0  0  0  0  0  0  0  0  0  0  0
    8.1055   11.8923    0.0000 H   0  0  0  0  0  0  0  0  0  0  0  0
   10.8681   -6.4622    0.0000 H   0  0  0  0  0  0  0  0  0  0  0  0
    9.7206  -10.6646    0.0000 H   0  0  0  0  0  0  0  0  0  0  0  0
   10.1191  -11.3549    0.0000 H   0  0  0  0  0  0  0  0  0  0  0  0
   12.6002   -8.0822    0.0000 H   0  0  0  0  0  0  0  0  0  0  0  0
   12.6002   -9.4622    0.0000 H   0  0  0  0  0  0  0  0  0  0  0  0
   11.1972  -11.8923    0.0000 H   0  0  0  0  0  0  0  0  0  0  0  0
  1 46  1  0  0  0  0
  1 60  1  0  0  0  0
  2 52  1  0  0  0  0
  2 61  1  0  0  0  0
  3 54  1  0  0  0  0
  3135  1  0  0  0  0
  4 55  1  0  0  0  0
  4137  1  0  0  0  0
  5 60  1  0  0  0  0
  5 66  1  0  0  0  0
  6 61  1  0  0  0  0
  6 68  1  0  0  0  0
  7 62  1  0  0  0  0
  7 70  1  0  0  0  0
  8 63  1  0  0  0  0
  8148  1  0  0  0  0
  9 64  1  0  0  0  0
  9150  1  0  0  0  0
 10 65  1  0  0  0  0
 10 73  1  0  0  0  0
 11 67  1  0  0  0  0
 11151  1  0  0  0  0
 12 69  1  0  0  0  0
 12152  1  0  0  0  0
 13 70  1  0  0  0  0
 13 75  1  0  0  0  0
 14 71  1  0  0  0  0
 14158  1  0  0  0  0
 15 71  2  0  0  0  0
 16 73  1  0  0  0  0
 16 79  1  0  0  0  0
 17 72  1  0  0  0  0
 17 82  1  0  0  0  0
 18 74  1  0  0  0  0
 18166  1  0  0  0  0
 19 76  1  0  0  0  0
 19167  1  0  0  0  0
 20 77  1  0  0  0  0
 20168  1  0  0  0  0
 21 78  1  0  0  0  0
 21172  1  0  0  0  0
 22 82  1  0  0  0  0
 22 86  1  0  0  0  0
 23 80  1  0  0  0  0
 23173  1  0  0  0  0
 24 81  1  0  0  0  0
 24174  1  0  0  0  0
 25 83  1  0  0  0  0
 25178  1  0  0  0  0
 26 84  1  0  0  0  0
 26179  1  0  0  0  0
 27 85  1  0  0  0  0
 27182  1  0  0  0  0
 28 87  1  0  0  0  0
 28183  1  0  0  0  0
 29 88  1  0  0  0  0
 29184  1  0  0  0  0
 30 31  1  0  0  0  0
 30 33  1  0  0  0  0
 30 35  1  0  0  0  0
 30 45  1  0  0  0  0
 31 32  1  0  0  0  0
 31 42  1  0  0  0  0
 31 89  1  0  0  0  0
 32 34  1  0  0  0  0
 32 43  1  0  0  0  0
 32 48  1  0  0  0  0
 33 36  1  0  0  0  0
 33 41  1  0  0  0  0
 33 50  1  0  0  0  0
 34 38  1  0  0  0  0
 34 39  1  0  0  0  0
 34 90  1  0  0  0  0
 35 38  1  0  0  0  0
 35 91  1  0  0  0  0
 35 92  1  0  0  0  0
 36 37  1  0  0  0  0
 36 47  2  0  0  0  0
 37 40  1  0  0  0  0
 37 51  1  0  0  0  0
 37 93  1  0  0  0  0
 38 94  1  0  0  0  0
 38 95  1  0  0  0  0
 39 46  1  0  0  0  0
 39 55  1  0  0  0  0
 39 56  1  0  0  0  0
 40 44  1  0  0  0  0
 40 52  1  0  0  0  0
 40 57  1  0  0  0  0
 41 44  1  0  0  0  0
 41 96  1  0  0  0  0
 41 97  1  0  0  0  0
 42 47  1  0  0  0  0
 42 98  1  0  0  0  0
 42 99  1  0  0  0  0
 43 49  1  0  0  0  0
 43100  1  0  0  0  0
 43101  1  0  0  0  0
 44102  1  0  0  0  0
 44103  1  0  0  0  0
 45104  1  0  0  0  0
 45105  1  0  0  0  0
 45106  1  0  0  0  0
 46 49  1  0  0  0  0
 46107  1  0  0  0  0
 47108  1  0  0  0  0
 48109  1  0  0  0  0
 48110  1  0  0  0  0
 48111  1  0  0  0  0
 49112  1  0  0  0  0
 49113  1  0  0  0  0
 50114  1  0  0  0  0
 50115  1  0  0  0  0
 50116  1  0  0  0  0
 51 53  1  0  0  0  0
 51117  1  0  0  0  0
 51118  1  0  0  0  0
 52 54  1  0  0  0  0
 52119  1  0  0  0  0
 53 54  1  0  0  0  0
 53 58  1  0  0  0  0
 53 59  1  0  0  0  0
 54120  1  0  0  0  0
 55121  1  0  0  0  0
 55122  1  0  0  0  0
 56123  1  0  0  0  0
 56124  1  0  0  0  0
 56125  1  0  0  0  0
 57126  1  0  0  0  0
 57127  1  0  0  0  0
 57128  1  0  0  0  0
 58132  1  0  0  0  0
 58133  1  0  0  0  0
 58134  1  0  0  0  0
 59129  1  0  0  0  0
 59130  1  0  0  0  0
 59131  1  0  0  0  0
 60 62  1  0  0  0  0
 60136  1  0  0  0  0
 61 63  1  0  0  0  0
 61138  1  0  0  0  0
 62 64  1  0  0  0  0
 62139  1  0  0  0  0
 63 65  1  0  0  0  0
 63140  1  0  0  0  0
 64 67  1  0  0  0  0
 64141  1  0  0  0  0
 65 69  1  0  0  0  0
 65142  1  0  0  0  0
 66 67  1  0  0  0  0
 66 71  1  0  0  0  0
 66143  1  0  0  0  0
 67144  1  0  0  0  0
 68 69  1  0  0  0  0
 68145  1  0  0  0  0
 68146  1  0  0  0  0
 69147  1  0  0  0  0
 70 72  1  0  0  0  0
 70149  1  0  0  0  0
 72 74  1  0  0  0  0
 72153  1  0  0  0  0
 73 76  1  0  0  0  0
 73154  1  0  0  0  0
 74 77  1  0  0  0  0
 74155  1  0  0  0  0
 75 77  1  0  0  0  0
 75 81  1  0  0  0  0
 75156  1  0  0  0  0
 76 78  1  0  0  0  0
 76157  1  0  0  0  0
 77159  1  0  0  0  0
 78 80  1  0  0  0  0
 78160  1  0  0  0  0
 79 80  1  0  0  0  0
 79 83  1  0  0  0  0
 79161  1  0  0  0  0
 80162  1  0  0  0  0
 81163  1  0  0  0  0
 81164  1  0  0  0  0
 82 84  1  0  0  0  0
 82165  1  0  0  0  0
 83169  1  0  0  0  0
 83170  1  0  0  0  0
 84 85  1  0  0  0  0
 84171  1  0  0  0  0
 85 87  1  0  0  0  0
 85175  1  0  0  0  0
 86 87  1  0  0  0  0
 86 88  1  0  0  0  0
 86176  1  0  0  0  0
 87177  1  0  0  0  0
 88180  1  0  0  0  0
 88181  1  0  0  0  0
M  END
>  <PUBCHEM_COMPOUND_CID>
157242

>  <PUBCHEM_COMPOUND_CANONICALIZED>
1

>  <PUBCHEM_CACTVS_COMPLEXITY>
2460

>  <PUBCHEM_CACTVS_HBOND_ACCEPTOR>
29

>  <PUBCHEM_CACTVS_HBOND_DONOR>
18

>  <PUBCHEM_CACTVS_ROTATABLE_BOND>
15

>  <PUBCHEM_CACTVS_SUBSKEYS>
AAADcfB8PgAAAAAAAAAAAAAAAAAAAAAAAAA0aNGiQAAAAADAAAAAGgAACAAADxSwgAMCCAAABgCIAiDSCAIAAAAgAAAACAFAAAgREBYAAQQiQAAFoAAPAAPK7PxPgAAAAAAAAADAAAYAADCAAAAAAAAAAA==

>  <PUBCHEM_IUPAC_OPENEYE_NAME>
5-[4,5-dihydroxy-6-(hydroxymethyl)-3-[3,4,5-trihydroxy-6-(hydroxymethyl)tetrahydropyran-2-yl]oxy-tetrahydropyran-2-yl]oxy-6-[[9-[3,5-dihydroxy-4-[3,4,5-trihydroxy-6-(hydroxymethyl)tetrahydropyran-2-yl]oxy-tetrahydropyran-2-yl]oxy-10-hydroxy-4-(hydroxymethyl)-4,6a,6b,8a,11,11,14b-heptamethyl-1,2,3,4a,5,6,7,8,9,10,12,12a,14,14a-tetradecahydropicen-3-yl]oxy]-3,4-dihydroxy-tetrahydropyran-2-carboxylic acid

>  <PUBCHEM_IUPAC_CAS_NAME>
5-[[4,5-dihydroxy-6-(hydroxymethyl)-3-[[3,4,5-trihydroxy-6-(hydroxymethyl)-2-oxanyl]oxy]-2-oxanyl]oxy]-6-[[9-[[3,5-dihydroxy-4-[[3,4,5-trihydroxy-6-(hydroxymethyl)-2-oxanyl]oxy]-2-oxanyl]oxy]-10-hydroxy-4-(hydroxymethyl)-4,6a,6b,8a,11,11,14b-heptamethyl-1,2,3,4a,5,6,7,8,9,10,12,12a,14,14a-tetradecahydropicen-3-yl]oxy]-3,4-dihydroxy-2-oxanecarboxylic acid

>  <PUBCHEM_IUPAC_NAME>
5-[4,5-dihydroxy-6-(hydroxymethyl)-3-[3,4,5-trihydroxy-6-(hydroxymethyl)oxan-2-yl]oxyoxan-2-yl]oxy-6-[[9-[3,5-dihydroxy-4-[3,4,5-trihydroxy-6-(hydroxymethyl)oxan-2-yl]oxyoxan-2-yl]oxy-10-hydroxy-4-(hydroxymethyl)-4,6a,6b,8a,11,11,14b-heptamethyl-1,2,3,4a,5,6,7,8,9,10,12,12a,14,14a-tetradecahydropicen-3-yl]oxy]-3,4-dihydroxyoxane-2-carboxylic acid

>  <PUBCHEM_IUPAC_SYSTEMATIC_NAME>
5-[6-(hydroxymethyl)-3-[6-(hydroxymethyl)-3,4,5-tris(oxidanyl)oxan-2-yl]oxy-4,5-bis(oxidanyl)oxan-2-yl]oxy-6-[[4-(hydroxymethyl)-9-[4-[6-(hydroxymethyl)-3,4,5-tris(oxidanyl)oxan-2-yl]oxy-3,5-bis(oxidanyl)oxan-2-yl]oxy-4,6a,6b,8a,11,11,14b-heptamethyl-10-oxidanyl-1,2,3,4a,5,6,7,8,9,10,12,12a,14,14a-tetradecahydropicen-3-yl]oxy]-3,4-bis(oxidanyl)oxane-2-carboxylic acid

>  <PUBCHEM_IUPAC_TRADITIONAL_NAME>
5-[4,5-dihydroxy-6-methylol-3-(3,4,5-trihydroxy-6-methylol-tetrahydropyran-2-yl)oxy-tetrahydropyran-2-yl]oxy-6-[[9-[3,5-dihydroxy-4-(3,4,5-trihydroxy-6-methylol-tetrahydropyran-2-yl)oxy-tetrahydropyran-2-yl]oxy-10-hydroxy-4,6a,6b,8a,11,11,14b-heptamethyl-4-methylol-1,2,3,4a,5,6,7,8,9,10,12,12a,14,14a-tetradecahydropicen-3-yl]oxy]-3,4-dihydroxy-tetrahydropyran-2-carboxylic acid

>  <PUBCHEM_IUPAC_INCHI>
InChI=1S/C59H96O29/c1-54(2)16-23-22-8-9-29-56(4)12-11-30(83-53-45(38(72)37(71)43(85-53)48(77)78)87-52-44(36(70)33(67)27(19-62)82-52)86-51-40(74)35(69)32(66)26(18-61)81-51)57(5,21-63)28(56)10-13-59(29,7)58(22,6)15-14-55(23,3)47(46(54)76)88-49-41(75)42(24(64)20-79-49)84-50-39(73)34(68)31(65)25(17-60)80-50/h8,23-47,49-53,60-76H,9-21H2,1-7H3,(H,77,78)

>  <PUBCHEM_IUPAC_INCHIKEY>
XFXHYKZIZSNVSQ-UHFFFAOYSA-N

>  <PUBCHEM_XLOGP3_AA>
-2.4

>  <PUBCHEM_EXACT_MASS>
1268.604

>  <PUBCHEM_MOLECULAR_FORMULA>
C59H96O29

>  <PUBCHEM_MOLECULAR_WEIGHT>
1269.388

>  <PUBCHEM_OPENEYE_CAN_SMILES>
CC1(CC2C3=CCC4C5(CCC(C(C5CCC4(C3(CCC2(C(C1O)OC6C(C(C(CO6)O)OC7C(C(C(C(O7)CO)O)O)O)O)C)C)C)(C)CO)OC8C(C(C(C(O8)C(=O)O)O)O)OC9C(C(C(C(O9)CO)O)O)OC1C(C(C(C(O1)CO)O)O)O)C)C

>  <PUBCHEM_OPENEYE_ISO_SMILES>
CC1(CC2C3=CCC4C5(CCC(C(C5CCC4(C3(CCC2(C(C1O)OC6C(C(C(CO6)O)OC7C(C(C(C(O7)CO)O)O)O)O)C)C)C)(C)CO)OC8C(C(C(C(O8)C(=O)O)O)O)OC9C(C(C(C(O9)CO)O)O)OC1C(C(C(C(O1)CO)O)O)O)C)C

>  <PUBCHEM_CACTVS_TPSA>
474

>  <PUBCHEM_MONOISOTOPIC_WEIGHT>
1268.604

>  <PUBCHEM_TOTAL_CHARGE>
0

>  <PUBCHEM_HEAVY_ATOM_COUNT>
88

>  <PUBCHEM_ATOM_DEF_STEREO_COUNT>
0

>  <PUBCHEM_ATOM_UDEF_STEREO_COUNT>
35

>  <PUBCHEM_BOND_DEF_STEREO_COUNT>
0

>  <PUBCHEM_BOND_UDEF_STEREO_COUNT>
0

>  <PUBCHEM_ISOTOPIC_ATOM_COUNT>
0

>  <PUBCHEM_COMPONENT_COUNT>
1

>  <PUBCHEM_CACTVS_TAUTO_COUNT>
1

>  <PUBCHEM_COORDINATE_TYPE>
1
5
255

>  <PUBCHEM_BONDANNOTATIONS>
46  1  3
60  1  3
65  10  3
73  10  3
67  11  3
69  12  3
72  17  3
82  17  3
74  18  3
76  19  3
52  2  3
61  2  3
77  20  3
78  21  3
80  23  3
84  26  3
85  27  3
87  28  3
54  3  3
30  45  3
31  42  3
32  48  3
33  50  3
34  38  3
37  51  3
39  56  3
40  57  3
66  71  3
62  7  3
70  7  3
75  81  3
79  83  3
63  8  3
86  88  3
64  9  3

$$$$
