15731056
 OpenBabel06101807152D

 49 50  0  0  0  0  0  0  0  0999 V2000
    3.7320    1.1550    0.0000 O   0  0  0  0  0  0  0  0  0  0  0  0
    7.1962    1.1550    0.0000 O   0  0  0  0  0  0  0  0  0  0  0  0
    2.8660   -0.3450    0.0000 O   0  0  0  0  0  0  0  0  0  0  0  0
    8.0622    6.6550    0.0000 O   0  0  0  0  0  0  0  0  0  0  0  0
    2.8660   -6.3450    0.0000 O   0  0  0  0  0  0  0  0  0  0  0  0
    5.4641    2.1550    0.0000 C   0  0  0  0  0  0  0  0  0  0  0  0
    5.4641    1.1550    0.0000 C   0  0  0  0  0  0  0  0  0  0  0  0
    6.3301    3.6550    0.0000 C   0  0  0  0  0  0  0  0  0  0  0  0
    6.3301    2.6550    0.0000 C   0  0  0  0  0  0  0  0  0  0  0  0
    7.1962    4.1550    0.0000 C   0  0  0  0  0  0  0  0  0  0  0  0
    4.5981    0.6550    0.0000 C   0  0  0  0  0  0  0  0  0  0  0  0
    6.3301    0.6550    0.0000 C   0  0  0  0  0  0  0  0  0  0  0  0
    4.5981   -0.3450    0.0000 C   0  0  0  0  0  0  0  0  0  0  0  0
    7.1962    5.1550    0.0000 C   0  0  0  0  0  0  0  0  0  0  0  0
    5.4641    4.1550    0.0000 C   0  0  0  0  0  0  0  0  0  0  0  0
    6.3301   -0.3450    0.0000 C   0  0  0  0  0  0  0  0  0  0  0  0
    5.4641   -0.8450    0.0000 C   0  0  0  0  0  0  0  0  0  0  0  0
    3.7320   -0.8450    0.0000 C   0  0  0  0  0  0  0  0  0  0  0  0
    8.0622    5.6550    0.0000 C   0  0  0  0  0  0  0  0  0  0  0  0
    3.7320   -1.8450    0.0000 C   0  0  0  0  0  0  0  0  0  0  0  0
    2.8660   -2.3450    0.0000 C   0  0  0  0  0  0  0  0  0  0  0  0
    2.8660   -3.3450    0.0000 C   0  0  0  0  0  0  0  0  0  0  0  0
    2.0000   -3.8450    0.0000 C   0  0  0  0  0  0  0  0  0  0  0  0
    3.7320   -3.8450    0.0000 C   0  0  0  0  0  0  0  0  0  0  0  0
    2.0000   -4.8450    0.0000 C   0  0  0  0  0  0  0  0  0  0  0  0
    3.7320   -4.8450    0.0000 C   0  0  0  0  0  0  0  0  0  0  0  0
    2.8660   -5.3450    0.0000 C   0  0  0  0  0  0  0  0  0  0  0  0
    5.2520    2.7376    0.0000 H   0  0  0  0  0  0  0  0  0  0  0  0
    4.8535    2.0473    0.0000 H   0  0  0  0  0  0  0  0  0  0  0  0
    7.4082    3.5724    0.0000 H   0  0  0  0  0  0  0  0  0  0  0  0
    7.8067    4.2627    0.0000 H   0  0  0  0  0  0  0  0  0  0  0  0
    6.8671    2.3450    0.0000 H   0  0  0  0  0  0  0  0  0  0  0  0
    6.9841    5.7376    0.0000 H   0  0  0  0  0  0  0  0  0  0  0  0
    6.5856    5.0473    0.0000 H   0  0  0  0  0  0  0  0  0  0  0  0
    5.7741    4.6919    0.0000 H   0  0  0  0  0  0  0  0  0  0  0  0
    4.9272    4.4650    0.0000 H   0  0  0  0  0  0  0  0  0  0  0  0
    5.1541    3.6181    0.0000 H   0  0  0  0  0  0  0  0  0  0  0  0
    6.8671   -0.6550    0.0000 H   0  0  0  0  0  0  0  0  0  0  0  0
    5.4641   -1.4650    0.0000 H   0  0  0  0  0  0  0  0  0  0  0  0
    8.5991    5.3450    0.0000 H   0  0  0  0  0  0  0  0  0  0  0  0
    4.2690   -2.1550    0.0000 H   0  0  0  0  0  0  0  0  0  0  0  0
    3.7320    1.7750    0.0000 H   0  0  0  0  0  0  0  0  0  0  0  0
    7.7331    0.8450    0.0000 H   0  0  0  0  0  0  0  0  0  0  0  0
    2.3291   -2.0350    0.0000 H   0  0  0  0  0  0  0  0  0  0  0  0
    1.4631   -3.5350    0.0000 H   0  0  0  0  0  0  0  0  0  0  0  0
    4.2690   -3.5350    0.0000 H   0  0  0  0  0  0  0  0  0  0  0  0
    1.4631   -5.1550    0.0000 H   0  0  0  0  0  0  0  0  0  0  0  0
    4.2690   -5.1550    0.0000 H   0  0  0  0  0  0  0  0  0  0  0  0
    2.3291   -6.6550    0.0000 H   0  0  0  0  0  0  0  0  0  0  0  0
  1 11  1  0  0  0  0
  1 42  1  0  0  0  0
  2 12  1  0  0  0  0
  2 43  1  0  0  0  0
  3 18  2  0  0  0  0
  4 19  2  0  0  0  0
  5 27  1  0  0  0  0
  5 49  1  0  0  0  0
  6  7  1  0  0  0  0
  6  9  1  0  0  0  0
  6 28  1  0  0  0  0
  6 29  1  0  0  0  0
  7 11  1  0  0  0  0
  7 12  2  0  0  0  0
  8  9  2  0  0  0  0
  8 10  1  0  0  0  0
  8 15  1  0  0  0  0
  9 32  1  0  0  0  0
 10 14  1  0  0  0  0
 10 30  1  0  0  0  0
 10 31  1  0  0  0  0
 11 13  2  0  0  0  0
 12 16  1  0  0  0  0
 13 17  1  0  0  0  0
 13 18  1  0  0  0  0
 14 19  1  0  0  0  0
 14 33  1  0  0  0  0
 14 34  1  0  0  0  0
 15 35  1  0  0  0  0
 15 36  1  0  0  0  0
 15 37  1  0  0  0  0
 16 17  2  0  0  0  0
 16 38  1  0  0  0  0
 17 39  1  0  0  0  0
 18 20  1  0  0  0  0
 19 40  1  0  0  0  0
 20 21  2  0  0  0  0
 20 41  1  0  0  0  0
 21 22  1  0  0  0  0
 21 44  1  0  0  0  0
 22 23  2  0  0  0  0
 22 24  1  0  0  0  0
 23 25  1  0  0  0  0
 23 45  1  0  0  0  0
 24 26  2  0  0  0  0
 24 46  1  0  0  0  0
 25 27  2  0  0  0  0
 25 47  1  0  0  0  0
 26 27  1  0  0  0  0
 26 48  1  0  0  0  0
M  END
>  <PUBCHEM_COMPOUND_CID>
15731056

>  <PUBCHEM_COMPOUND_CANONICALIZED>
1

>  <PUBCHEM_CACTVS_COMPLEXITY>
545

>  <PUBCHEM_CACTVS_HBOND_ACCEPTOR>
5

>  <PUBCHEM_CACTVS_HBOND_DONOR>
3

>  <PUBCHEM_CACTVS_ROTATABLE_BOND>
8

>  <PUBCHEM_CACTVS_SUBSKEYS>
AAADceB4OAAAAAAAAAAAAAAAAAAAAAAAAAAwYAAAAAAAAAABQAAAGgAACAAADASgmAIyBoAAAgCIAqhSgAACAAAkIAAIiAEGCMgIJzaCFRKAcUAl4BUImYeI7OTOIAACCAAIAABAAAQQABAAAAAAAAAAAA==

>  <PUBCHEM_IUPAC_OPENEYE_NAME>
(E)-6-[2,6-dihydroxy-3-[(E)-3-(4-hydroxyphenyl)prop-2-enoyl]phenyl]-4-methyl-hex-4-enal

>  <PUBCHEM_IUPAC_CAS_NAME>
(E)-6-[2,6-dihydroxy-3-[(E)-3-(4-hydroxyphenyl)-1-oxoprop-2-enyl]phenyl]-4-methyl-4-hexenal

>  <PUBCHEM_IUPAC_NAME>
(E)-6-[2,6-dihydroxy-3-[(E)-3-(4-hydroxyphenyl)prop-2-enoyl]phenyl]-4-methylhex-4-enal

>  <PUBCHEM_IUPAC_SYSTEMATIC_NAME>
(E)-6-[3-[(E)-3-(4-hydroxyphenyl)prop-2-enoyl]-2,6-bis(oxidanyl)phenyl]-4-methyl-hex-4-enal

>  <PUBCHEM_IUPAC_TRADITIONAL_NAME>
(E)-6-[2,6-dihydroxy-3-[(E)-3-(4-hydroxyphenyl)acryloyl]phenyl]-4-methyl-hex-4-enal

>  <PUBCHEM_IUPAC_INCHI>
InChI=1S/C22H22O5/c1-15(3-2-14-23)4-10-18-21(26)13-11-19(22(18)27)20(25)12-7-16-5-8-17(24)9-6-16/h4-9,11-14,24,26-27H,2-3,10H2,1H3/b12-7+,15-4+

>  <PUBCHEM_IUPAC_INCHIKEY>
SXDGLCCGJJGJRY-FEUCYYSJSA-N

>  <PUBCHEM_XLOGP3_AA>
4.4

>  <PUBCHEM_EXACT_MASS>
366.147

>  <PUBCHEM_MOLECULAR_FORMULA>
C22H22O5

>  <PUBCHEM_MOLECULAR_WEIGHT>
366.413

>  <PUBCHEM_OPENEYE_CAN_SMILES>
CC(=CCC1=C(C=CC(=C1O)C(=O)C=CC2=CC=C(C=C2)O)O)CCC=O

>  <PUBCHEM_OPENEYE_ISO_SMILES>
C/C(=C\CC1=C(C=CC(=C1O)C(=O)/C=C/C2=CC=C(C=C2)O)O)/CCC=O

>  <PUBCHEM_CACTVS_TPSA>
94.8

>  <PUBCHEM_MONOISOTOPIC_WEIGHT>
366.147

>  <PUBCHEM_TOTAL_CHARGE>
0

>  <PUBCHEM_HEAVY_ATOM_COUNT>
27

>  <PUBCHEM_ATOM_DEF_STEREO_COUNT>
0

>  <PUBCHEM_ATOM_UDEF_STEREO_COUNT>
0

>  <PUBCHEM_BOND_DEF_STEREO_COUNT>
2

>  <PUBCHEM_BOND_UDEF_STEREO_COUNT>
0

>  <PUBCHEM_ISOTOPIC_ATOM_COUNT>
0

>  <PUBCHEM_COMPONENT_COUNT>
1

>  <PUBCHEM_CACTVS_TAUTO_COUNT>
114

>  <PUBCHEM_COORDINATE_TYPE>
1
5
255

>  <PUBCHEM_BONDANNOTATIONS>
11  13  8
12  16  8
13  17  8
16  17  8
22  23  8
22  24  8
23  25  8
24  26  8
25  27  8
26  27  8
7  11  8
7  12  8

$$$$
