15747331
 OpenBabel06101807152D

 38 39  0  0  0  0  0  0  0  0999 V2000
    3.9595    3.0734    0.0000 O   0  0  0  0  0  0  0  0  0  0  0  0
    7.1753    1.6416    0.0000 O   0  0  0  0  0  0  0  0  0  0  0  0
    2.8660    1.4097    0.0000 O   0  0  0  0  0  0  0  0  0  0  0  0
    5.6808    2.6121    0.0000 C   0  0  0  0  0  0  0  0  0  0  0  0
    4.7026    2.4042    0.0000 C   0  0  0  0  0  0  0  0  0  0  0  0
    6.1808    1.7461    0.0000 C   0  0  0  0  0  0  0  0  0  0  0  0
    4.5981    1.4097    0.0000 C   0  0  0  0  0  0  0  0  0  0  0  0
    5.5116    1.0030    0.0000 C   0  0  0  0  0  0  0  0  0  0  0  0
    6.5468    3.1121    0.0000 C   0  0  0  0  0  0  0  0  0  0  0  0
    5.4728    3.5903    0.0000 C   0  0  0  0  0  0  0  0  0  0  0  0
    3.7320    0.9097    0.0000 C   0  0  0  0  0  0  0  0  0  0  0  0
    3.7320   -0.0903    0.0000 C   0  0  0  0  0  0  0  0  0  0  0  0
    5.7195    0.0248    0.0000 C   0  0  0  0  0  0  0  0  0  0  0  0
    2.8660   -0.5903    0.0000 C   0  0  0  0  0  0  0  0  0  0  0  0
    2.8660   -1.5903    0.0000 C   0  0  0  0  0  0  0  0  0  0  0  0
    2.0000   -2.0903    0.0000 C   0  0  0  0  0  0  0  0  0  0  0  0
    3.7320   -2.0903    0.0000 C   0  0  0  0  0  0  0  0  0  0  0  0
    2.0000   -3.0903    0.0000 C   0  0  0  0  0  0  0  0  0  0  0  0
    3.7320   -3.0903    0.0000 C   0  0  0  0  0  0  0  0  0  0  0  0
    2.8660   -3.5903    0.0000 C   0  0  0  0  0  0  0  0  0  0  0  0
    6.8568    2.5752    0.0000 H   0  0  0  0  0  0  0  0  0  0  0  0
    7.0837    3.4221    0.0000 H   0  0  0  0  0  0  0  0  0  0  0  0
    6.2368    3.6491    0.0000 H   0  0  0  0  0  0  0  0  0  0  0  0
    6.0793    3.7192    0.0000 H   0  0  0  0  0  0  0  0  0  0  0  0
    5.3439    4.1967    0.0000 H   0  0  0  0  0  0  0  0  0  0  0  0
    4.8664    3.4614    0.0000 H   0  0  0  0  0  0  0  0  0  0  0  0
    3.9441   -0.6729    0.0000 H   0  0  0  0  0  0  0  0  0  0  0  0
    4.3426    0.0174    0.0000 H   0  0  0  0  0  0  0  0  0  0  0  0
    5.1131   -0.1041    0.0000 H   0  0  0  0  0  0  0  0  0  0  0  0
    5.8484   -0.5816    0.0000 H   0  0  0  0  0  0  0  0  0  0  0  0
    6.3260    0.1537    0.0000 H   0  0  0  0  0  0  0  0  0  0  0  0
    2.6540   -0.0077    0.0000 H   0  0  0  0  0  0  0  0  0  0  0  0
    2.2554   -0.6980    0.0000 H   0  0  0  0  0  0  0  0  0  0  0  0
    1.4631   -1.7803    0.0000 H   0  0  0  0  0  0  0  0  0  0  0  0
    4.2690   -1.7803    0.0000 H   0  0  0  0  0  0  0  0  0  0  0  0
    1.4631   -3.4003    0.0000 H   0  0  0  0  0  0  0  0  0  0  0  0
    4.2690   -3.4003    0.0000 H   0  0  0  0  0  0  0  0  0  0  0  0
    2.8660   -4.2103    0.0000 H   0  0  0  0  0  0  0  0  0  0  0  0
  1  5  2  0  0  0  0
  2  6  2  0  0  0  0
  3 11  2  0  0  0  0
  4  5  1  0  0  0  0
  4  6  1  0  0  0  0
  4  9  1  0  0  0  0
  4 10  1  0  0  0  0
  5  7  1  0  0  0  0
  6  8  1  0  0  0  0
  7  8  2  0  0  0  0
  7 11  1  0  0  0  0
  8 13  1  0  0  0  0
  9 21  1  0  0  0  0
  9 22  1  0  0  0  0
  9 23  1  0  0  0  0
 10 24  1  0  0  0  0
 10 25  1  0  0  0  0
 10 26  1  0  0  0  0
 11 12  1  0  0  0  0
 12 14  1  0  0  0  0
 12 27  1  0  0  0  0
 12 28  1  0  0  0  0
 13 29  1  0  0  0  0
 13 30  1  0  0  0  0
 13 31  1  0  0  0  0
 14 15  1  0  0  0  0
 14 32  1  0  0  0  0
 14 33  1  0  0  0  0
 15 16  2  0  0  0  0
 15 17  1  0  0  0  0
 16 18  1  0  0  0  0
 16 34  1  0  0  0  0
 17 19  2  0  0  0  0
 17 35  1  0  0  0  0
 18 20  2  0  0  0  0
 18 36  1  0  0  0  0
 19 20  1  0  0  0  0
 19 37  1  0  0  0  0
 20 38  1  0  0  0  0
M  END
>  <PUBCHEM_COMPOUND_CID>
15747331

>  <PUBCHEM_COMPOUND_CANONICALIZED>
1

>  <PUBCHEM_CACTVS_COMPLEXITY>
477

>  <PUBCHEM_CACTVS_HBOND_ACCEPTOR>
3

>  <PUBCHEM_CACTVS_HBOND_DONOR>
0

>  <PUBCHEM_CACTVS_ROTATABLE_BOND>
4

>  <PUBCHEM_CACTVS_SUBSKEYS>
AAADceB4MAAAAAAAAAAAAAAAAAAAAQAAAAAwAAAAAAAAAAABAAAAGgAAAAAADgSAmAAyAIAAAACIAqBSAAACAAAgAAAIiAEAAMgIIDKIERCAIAAggAAIiQcIisCvAAAAAAAAAAAAAAAAAAAAAAAAAAAAAA==

>  <PUBCHEM_IUPAC_OPENEYE_NAME>
2,2,4-trimethyl-5-(3-phenylpropanoyl)cyclopent-4-ene-1,3-dione

>  <PUBCHEM_IUPAC_CAS_NAME>
2,2,4-trimethyl-5-(1-oxo-3-phenylpropyl)cyclopent-4-ene-1,3-dione

>  <PUBCHEM_IUPAC_NAME>
2,2,4-trimethyl-5-(3-phenylpropanoyl)cyclopent-4-ene-1,3-dione

>  <PUBCHEM_IUPAC_SYSTEMATIC_NAME>
2,2,4-trimethyl-5-(3-phenylpropanoyl)cyclopent-4-ene-1,3-dione

>  <PUBCHEM_IUPAC_TRADITIONAL_NAME>
4-hydrocinnamoyl-2,2,5-trimethyl-cyclopent-4-ene-1,3-quinone

>  <PUBCHEM_IUPAC_INCHI>
InChI=1S/C17H18O3/c1-11-14(16(20)17(2,3)15(11)19)13(18)10-9-12-7-5-4-6-8-12/h4-8H,9-10H2,1-3H3

>  <PUBCHEM_IUPAC_INCHIKEY>
JLCDLBNIBBAWCH-UHFFFAOYSA-N

>  <PUBCHEM_XLOGP3_AA>
3

>  <PUBCHEM_EXACT_MASS>
270.126

>  <PUBCHEM_MOLECULAR_FORMULA>
C17H18O3

>  <PUBCHEM_MOLECULAR_WEIGHT>
270.328

>  <PUBCHEM_OPENEYE_CAN_SMILES>
CC1=C(C(=O)C(C1=O)(C)C)C(=O)CCC2=CC=CC=C2

>  <PUBCHEM_OPENEYE_ISO_SMILES>
CC1=C(C(=O)C(C1=O)(C)C)C(=O)CCC2=CC=CC=C2

>  <PUBCHEM_CACTVS_TPSA>
51.2

>  <PUBCHEM_MONOISOTOPIC_WEIGHT>
270.126

>  <PUBCHEM_TOTAL_CHARGE>
0

>  <PUBCHEM_HEAVY_ATOM_COUNT>
20

>  <PUBCHEM_ATOM_DEF_STEREO_COUNT>
0

>  <PUBCHEM_ATOM_UDEF_STEREO_COUNT>
0

>  <PUBCHEM_BOND_DEF_STEREO_COUNT>
0

>  <PUBCHEM_BOND_UDEF_STEREO_COUNT>
0

>  <PUBCHEM_ISOTOPIC_ATOM_COUNT>
0

>  <PUBCHEM_COMPONENT_COUNT>
1

>  <PUBCHEM_CACTVS_TAUTO_COUNT>
13

>  <PUBCHEM_COORDINATE_TYPE>
1
5
255

>  <PUBCHEM_BONDANNOTATIONS>
15  16  8
15  17  8
16  18  8
17  19  8
18  20  8
19  20  8

$$$$
