15775107
 OpenBabel06101807152D

 30 31  0  0  1  0  0  0  0  0999 V2000
    2.0159   -1.6721    0.0000 O   0  0  0  0  0  0  0  0  0  0  0  0
    5.4490    0.7317    0.0000 C   0  0  0  0  0  0  0  0  0  0  0  0
    4.3089    1.6888    0.0000 C   0  0  3  0  0  0  0  0  0  0  0  0
    4.0501    0.7229    0.0000 C   0  0  3  0  0  0  0  0  0  0  0  0
    3.5723    2.6714    0.0000 C   0  0  0  0  0  0  0  0  0  0  0  0
    2.2756    1.3777    0.0000 C   0  0  0  0  0  0  0  0  0  0  0  0
    2.8290   -0.1427    0.0000 C   0  0  0  0  0  0  0  0  0  0  0  0
    5.9490   -0.1343    0.0000 C   0  0  0  0  0  0  0  0  0  0  0  0
    6.3150    1.2317    0.0000 C   0  0  0  0  0  0  0  0  0  0  0  0
    2.0000    0.4164    0.0000 C   0  0  0  0  0  0  0  0  0  0  0  0
    2.8639   -1.1421    0.0000 C   0  0  0  0  0  0  0  0  0  0  0  0
    2.0508   -2.6714    0.0000 C   0  0  0  0  0  0  0  0  0  0  0  0
    4.7592    2.1150    0.0000 H   0  0  0  0  0  0  0  0  0  0  0  0
    4.2401    0.1328    0.0000 H   0  0  0  0  0  0  0  0  0  0  0  0
    3.8901    3.2038    0.0000 H   0  0  0  0  0  0  0  0  0  0  0  0
    2.9591    2.7634    0.0000 H   0  0  0  0  0  0  0  0  0  0  0  0
    2.2706    1.9977    0.0000 H   0  0  0  0  0  0  0  0  0  0  0  0
    1.6613    1.4615    0.0000 H   0  0  0  0  0  0  0  0  0  0  0  0
    6.6250    0.6948    0.0000 H   0  0  0  0  0  0  0  0  0  0  0  0
    6.8520    1.5417    0.0000 H   0  0  0  0  0  0  0  0  0  0  0  0
    6.0050    1.7687    0.0000 H   0  0  0  0  0  0  0  0  0  0  0  0
    5.4121   -0.4443    0.0000 H   0  0  0  0  0  0  0  0  0  0  0  0
    6.2590   -0.6712    0.0000 H   0  0  0  0  0  0  0  0  0  0  0  0
    6.4859    0.1757    0.0000 H   0  0  0  0  0  0  0  0  0  0  0  0
    1.4174    0.2044    0.0000 H   0  0  0  0  0  0  0  0  0  0  0  0
    3.0962   -1.7170    0.0000 H   0  0  0  0  0  0  0  0  0  0  0  0
    3.4704   -1.0132    0.0000 H   0  0  0  0  0  0  0  0  0  0  0  0
    1.4312   -2.6931    0.0000 H   0  0  0  0  0  0  0  0  0  0  0  0
    2.0724   -3.2911    0.0000 H   0  0  0  0  0  0  0  0  0  0  0  0
    2.6704   -2.6498    0.0000 H   0  0  0  0  0  0  0  0  0  0  0  0
  1 11  1  0  0  0  0
  1 12  1  0  0  0  0
  2  3  1  0  0  0  0
  2  4  1  0  0  0  0
  2  8  1  0  0  0  0
  2  9  1  0  0  0  0
  3  5  1  0  0  0  0
  3  6  1  0  0  0  0
  3 13  1  0  0  0  0
  4  5  1  0  0  0  0
  4  7  1  0  0  0  0
  4 14  1  0  0  0  0
  5 15  1  0  0  0  0
  5 16  1  0  0  0  0
  6 10  1  0  0  0  0
  6 17  1  0  0  0  0
  6 18  1  0  0  0  0
  7 10  2  0  0  0  0
  7 11  1  0  0  0  0
  8 22  1  0  0  0  0
  8 23  1  0  0  0  0
  8 24  1  0  0  0  0
  9 19  1  0  0  0  0
  9 20  1  0  0  0  0
  9 21  1  0  0  0  0
 10 25  1  0  0  0  0
 11 26  1  0  0  0  0
 11 27  1  0  0  0  0
 12 28  1  0  0  0  0
 12 29  1  0  0  0  0
 12 30  1  0  0  0  0
M  END
>  <PUBCHEM_COMPOUND_CID>
15775107

>  <PUBCHEM_COMPOUND_CANONICALIZED>
1

>  <PUBCHEM_CACTVS_COMPLEXITY>
215

>  <PUBCHEM_CACTVS_HBOND_ACCEPTOR>
1

>  <PUBCHEM_CACTVS_HBOND_DONOR>
0

>  <PUBCHEM_CACTVS_ROTATABLE_BOND>
2

>  <PUBCHEM_CACTVS_SUBSKEYS>
AAADceBwIAAAAAAAAAAAAAAAAABgAAAAAAAgQAAAAAAAAAAAAAAAGgAAAAAADwCggAICAAAABACAAiBCAAAAAAAgAAAACAAAAAgABAIAIQAAEAAEgAAIIAOAwHAPgAAAAAAAAAAAAAAAAAAAAAAAAAAAAA==

>  <PUBCHEM_IUPAC_OPENEYE_NAME>
4-(methoxymethyl)-6,6-dimethyl-bicyclo[3.1.1]hept-3-ene

>  <PUBCHEM_IUPAC_CAS_NAME>
4-(methoxymethyl)-6,6-dimethylbicyclo[3.1.1]hept-3-ene

>  <PUBCHEM_IUPAC_NAME>
4-(methoxymethyl)-6,6-dimethylbicyclo[3.1.1]hept-3-ene

>  <PUBCHEM_IUPAC_SYSTEMATIC_NAME>
4-(methoxymethyl)-6,6-dimethyl-bicyclo[3.1.1]hept-3-ene

>  <PUBCHEM_IUPAC_TRADITIONAL_NAME>
4-(methoxymethyl)-6,6-dimethyl-bicyclo[3.1.1]hept-3-ene

>  <PUBCHEM_IUPAC_INCHI>
InChI=1S/C11H18O/c1-11(2)9-5-4-8(7-12-3)10(11)6-9/h4,9-10H,5-7H2,1-3H3

>  <PUBCHEM_IUPAC_INCHIKEY>
GMYAZJHVKQKHSD-UHFFFAOYSA-N

>  <PUBCHEM_XLOGP3_AA>
2.1

>  <PUBCHEM_EXACT_MASS>
166.136

>  <PUBCHEM_MOLECULAR_FORMULA>
C11H18O

>  <PUBCHEM_MOLECULAR_WEIGHT>
166.264

>  <PUBCHEM_OPENEYE_CAN_SMILES>
CC1(C2CC=C(C1C2)COC)C

>  <PUBCHEM_OPENEYE_ISO_SMILES>
CC1(C2CC=C(C1C2)COC)C

>  <PUBCHEM_CACTVS_TPSA>
9.2

>  <PUBCHEM_MONOISOTOPIC_WEIGHT>
166.136

>  <PUBCHEM_TOTAL_CHARGE>
0

>  <PUBCHEM_HEAVY_ATOM_COUNT>
12

>  <PUBCHEM_ATOM_DEF_STEREO_COUNT>
0

>  <PUBCHEM_ATOM_UDEF_STEREO_COUNT>
2

>  <PUBCHEM_BOND_DEF_STEREO_COUNT>
0

>  <PUBCHEM_BOND_UDEF_STEREO_COUNT>
0

>  <PUBCHEM_ISOTOPIC_ATOM_COUNT>
0

>  <PUBCHEM_COMPONENT_COUNT>
1

>  <PUBCHEM_CACTVS_TAUTO_COUNT>
1

>  <PUBCHEM_COORDINATE_TYPE>
1
5
255

>  <PUBCHEM_BONDANNOTATIONS>
3  2  3
4  2  3

$$$$
