158018
 OpenBabel06101807152D

 30 32  0  0  1  0  0  0  0  0999 V2000
    3.9962    1.0992    0.0000 O   0  0  0  0  0  0  0  0  0  0  0  0
    5.5839    1.9082    0.0000 O   0  0  0  0  0  0  0  0  0  0  0  0
    4.4962   -0.4397    0.0000 C   0  0  3  0  0  0  0  0  0  0  0  0
    3.5823   -0.8468    0.0000 C   0  0  3  0  0  0  0  0  0  0  0  0
    3.6871    0.1481    0.0000 C   0  0  3  0  0  0  0  0  0  0  0  0
    5.3052    0.1481    0.0000 C   0  0  3  0  0  0  0  0  0  0  0  0
    4.5890   -1.4772    0.0000 C   0  0  0  0  0  0  0  0  0  0  0  0
    2.5878   -0.7423    0.0000 C   0  0  0  0  0  0  0  0  0  0  0  0
    3.9890   -1.7604    0.0000 C   0  0  0  0  0  0  0  0  0  0  0  0
    4.9962    1.0992    0.0000 C   0  0  0  0  0  0  0  0  0  0  0  0
    5.5373   -1.9082    0.0000 C   0  0  0  0  0  0  0  0  0  0  0  0
    6.2632   -0.2609    0.0000 C   0  0  0  0  0  0  0  0  0  0  0  0
    6.3800   -1.2959    0.0000 C   0  0  0  0  0  0  0  0  0  0  0  0
    2.0000   -1.5513    0.0000 C   0  0  0  0  0  0  0  0  0  0  0  0
    2.8557    0.3249    0.0000 H   0  0  0  0  0  0  0  0  0  0  0  0
    5.9324    0.7217    0.0000 H   0  0  0  0  0  0  0  0  0  0  0  0
    3.9712   -1.4260    0.0000 H   0  0  0  0  0  0  0  0  0  0  0  0
    4.4329   -2.0772    0.0000 H   0  0  0  0  0  0  0  0  0  0  0  0
    2.7587   -0.1463    0.0000 H   0  0  0  0  0  0  0  0  0  0  0  0
    2.0305   -0.4705    0.0000 H   0  0  0  0  0  0  0  0  0  0  0  0
    3.4226   -2.0126    0.0000 H   0  0  0  0  0  0  0  0  0  0  0  0
    4.2412   -2.3268    0.0000 H   0  0  0  0  0  0  0  0  0  0  0  0
    4.5554   -1.5082    0.0000 H   0  0  0  0  0  0  0  0  0  0  0  0
    5.1880   -2.4204    0.0000 H   0  0  0  0  0  0  0  0  0  0  0  0
    5.9822   -2.3400    0.0000 H   0  0  0  0  0  0  0  0  0  0  0  0
    6.7605    0.1093    0.0000 H   0  0  0  0  0  0  0  0  0  0  0  0
    6.9474   -1.5459    0.0000 H   0  0  0  0  0  0  0  0  0  0  0  0
    1.4984   -1.1869    0.0000 H   0  0  0  0  0  0  0  0  0  0  0  0
    1.6356   -2.0529    0.0000 H   0  0  0  0  0  0  0  0  0  0  0  0
    2.5016   -1.9158    0.0000 H   0  0  0  0  0  0  0  0  0  0  0  0
  1  5  1  0  0  0  0
  1 10  1  0  0  0  0
  2 10  2  0  0  0  0
  3  4  1  0  0  0  0
  3  5  1  0  0  0  0
  3  6  1  0  0  0  0
  3  7  1  0  0  0  0
  4  5  1  0  0  0  0
  4  8  1  0  0  0  0
  4  9  1  0  0  0  0
  5 15  1  0  0  0  0
  6 10  1  0  0  0  0
  6 12  1  0  0  0  0
  6 16  1  0  0  0  0
  7 11  1  0  0  0  0
  7 17  1  0  0  0  0
  7 18  1  0  0  0  0
  8 14  1  0  0  0  0
  8 19  1  0  0  0  0
  8 20  1  0  0  0  0
  9 21  1  0  0  0  0
  9 22  1  0  0  0  0
  9 23  1  0  0  0  0
 11 13  1  0  0  0  0
 11 24  1  0  0  0  0
 11 25  1  0  0  0  0
 12 13  2  0  0  0  0
 12 26  1  0  0  0  0
 13 27  1  0  0  0  0
 14 28  1  0  0  0  0
 14 29  1  0  0  0  0
 14 30  1  0  0  0  0
M  END
>  <PUBCHEM_COMPOUND_CID>
158018

>  <PUBCHEM_COMPOUND_CANONICALIZED>
1

>  <PUBCHEM_CACTVS_COMPLEXITY>
333

>  <PUBCHEM_CACTVS_HBOND_ACCEPTOR>
2

>  <PUBCHEM_CACTVS_HBOND_DONOR>
0

>  <PUBCHEM_CACTVS_ROTATABLE_BOND>
1

>  <PUBCHEM_CACTVS_SUBSKEYS>
AAADceBwMAAAAAAAAAAAAAAAGAAAASAAAAAkQAAAAAAAAECAAAAAGgAAAAAADxSggAICCAAABACIACDSCAAAAAAgAAAICAEAAAgAABIAAQACAAAEwAAIAAOKzPCPgAAAAAAAAAAAAAAAAAAAAAAAAAAAAA==

>  <PUBCHEM_IUPAC_OPENEYE_NAME>
1-ethyl-1-methyl-1a,3a,6,7-tetrahydrocyclopropa[c]isobenzofuran-3-one

>  <PUBCHEM_IUPAC_CAS_NAME>
1-ethyl-1-methyl-1a,3a,6,7-tetrahydrocyclopropa[c]isobenzofuran-3-one

>  <PUBCHEM_IUPAC_NAME>
1-ethyl-1-methyl-1a,3a,6,7-tetrahydrocyclopropa[c][2]benzofuran-3-one

>  <PUBCHEM_IUPAC_SYSTEMATIC_NAME>
1-ethyl-1-methyl-1a,3a,6,7-tetrahydrocyclopropa[c][2]benzofuran-3-one

>  <PUBCHEM_IUPAC_TRADITIONAL_NAME>
1-ethyl-1-methyl-1a,3a,6,7-tetrahydrocycloprop[c]isobenzofuran-3-one

>  <PUBCHEM_IUPAC_INCHI>
InChI=1S/C12H16O2/c1-3-11(2)10-12(11)7-5-4-6-8(12)9(13)14-10/h4,6,8,10H,3,5,7H2,1-2H3

>  <PUBCHEM_IUPAC_INCHIKEY>
WHNUXUAEXHHXPK-UHFFFAOYSA-N

>  <PUBCHEM_XLOGP3_AA>
2.6

>  <PUBCHEM_EXACT_MASS>
192.115

>  <PUBCHEM_MOLECULAR_FORMULA>
C12H16O2

>  <PUBCHEM_MOLECULAR_WEIGHT>
192.258

>  <PUBCHEM_OPENEYE_CAN_SMILES>
CCC1(C2C13CCC=CC3C(=O)O2)C

>  <PUBCHEM_OPENEYE_ISO_SMILES>
CCC1(C2C13CCC=CC3C(=O)O2)C

>  <PUBCHEM_CACTVS_TPSA>
26.3

>  <PUBCHEM_MONOISOTOPIC_WEIGHT>
192.115

>  <PUBCHEM_TOTAL_CHARGE>
0

>  <PUBCHEM_HEAVY_ATOM_COUNT>
14

>  <PUBCHEM_ATOM_DEF_STEREO_COUNT>
0

>  <PUBCHEM_ATOM_UDEF_STEREO_COUNT>
4

>  <PUBCHEM_BOND_DEF_STEREO_COUNT>
0

>  <PUBCHEM_BOND_UDEF_STEREO_COUNT>
0

>  <PUBCHEM_ISOTOPIC_ATOM_COUNT>
0

>  <PUBCHEM_COMPONENT_COUNT>
1

>  <PUBCHEM_CACTVS_TAUTO_COUNT>
2

>  <PUBCHEM_COORDINATE_TYPE>
1
5
255

>  <PUBCHEM_BONDANNOTATIONS>
3  7  3
4  8  3
5  15  3
6  16  3

$$$$
