158247
 OpenBabel06101807152D

 64 70  0  0  1  0  0  0  0  0999 V2000
    8.7843    1.3558    0.0000 O   0  0  0  0  0  0  0  0  0  0  0  0
    5.3194    1.4693    0.0000 O   0  0  0  0  0  0  0  0  0  0  0  0
    7.3742   -1.7905    0.0000 O   0  0  0  0  0  0  0  0  0  0  0  0
    7.9877    3.5156    0.0000 O   0  0  0  0  0  0  0  0  0  0  0  0
    8.4706   -4.3548    0.0000 O   0  0  0  0  0  0  0  0  0  0  0  0
   10.9842   -1.5210    0.0000 O   0  0  0  0  0  0  0  0  0  0  0  0
    6.3755   -1.7451    0.0000 O   0  0  0  0  0  0  0  0  0  0  0  0
    2.8771   -1.2048    0.0000 O   0  0  0  0  0  0  0  0  0  0  0  0
    5.7158    5.5306    0.0000 O   0  0  0  0  0  0  0  0  0  0  0  0
    4.0914   -5.0722    0.0000 O   0  0  0  0  0  0  0  0  0  0  0  0
    7.0099    0.7010    0.0000 C   0  0  2  0  0  0  0  0  0  0  0  0
    7.4877    2.6496    0.0000 C   0  0  3  0  0  0  0  0  0  0  0  0
    6.7510    1.6669    0.0000 C   0  0  1  0  0  0  0  0  0  0  0  0
    8.2309   -0.1646    0.0000 C   0  0  0  0  0  0  0  0  0  0  0  0
    5.7382   -0.0936    0.0000 C   0  0  0  0  0  0  0  0  0  0  0  0
    9.0599    0.3945    0.0000 C   0  0  0  0  0  0  0  0  0  0  0  0
    8.2875   -1.2047    0.0000 C   0  0  0  0  0  0  0  0  0  0  0  0
    4.9610    0.5357    0.0000 C   0  0  0  0  0  0  0  0  0  0  0  0
    9.2202   -1.6686    0.0000 C   0  0  0  0  0  0  0  0  0  0  0  0
    6.4922    2.6329    0.0000 C   0  0  0  0  0  0  0  0  0  0  0  0
    9.3042   -2.7503    0.0000 C   0  0  0  0  0  0  0  0  0  0  0  0
    8.4047   -3.3570    0.0000 C   0  0  2  0  0  0  0  0  0  0  0  0
    7.4332   -2.8739    0.0000 C   0  0  1  0  0  0  0  0  0  0  0  0
   10.0031   -0.0476    0.0000 C   0  0  0  0  0  0  0  0  0  0  0  0
   10.0837   -1.0861    0.0000 C   0  0  0  0  0  0  0  0  0  0  0  0
    5.5911   -1.1248    0.0000 C   0  0  0  0  0  0  0  0  0  0  0  0
    3.9830    0.1774    0.0000 C   0  0  0  0  0  0  0  0  0  0  0  0
    5.5263    2.8917    0.0000 C   0  0  0  0  0  0  0  0  0  0  0  0
    7.1993    3.3400    0.0000 C   0  0  0  0  0  0  0  0  0  0  0  0
    6.5978   -3.4234    0.0000 C   0  0  0  0  0  0  0  0  0  0  0  0
    4.6216   -1.5056    0.0000 C   0  0  0  0  0  0  0  0  0  0  0  0
    3.8121   -0.8501    0.0000 C   0  0  0  0  0  0  0  0  0  0  0  0
    5.2675    3.8576    0.0000 C   0  0  0  0  0  0  0  0  0  0  0  0
    6.9405    4.3059    0.0000 C   0  0  0  0  0  0  0  0  0  0  0  0
    6.6560   -4.4218    0.0000 C   0  0  0  0  0  0  0  0  0  0  0  0
    5.7041   -2.9747    0.0000 C   0  0  0  0  0  0  0  0  0  0  0  0
    5.9746    4.5647    0.0000 C   0  0  0  0  0  0  0  0  0  0  0  0
    5.8205   -4.9713    0.0000 C   0  0  0  0  0  0  0  0  0  0  0  0
    4.8686   -3.5243    0.0000 C   0  0  0  0  0  0  0  0  0  0  0  0
    4.9269   -4.5226    0.0000 C   0  0  0  0  0  0  0  0  0  0  0  0
    7.2299   -0.1200    0.0000 H   0  0  0  0  0  0  0  0  0  0  0  0
    6.9702    2.9911    0.0000 H   0  0  0  0  0  0  0  0  0  0  0  0
    9.9050   -2.5972    0.0000 H   0  0  0  0  0  0  0  0  0  0  0  0
    9.5578   -3.3160    0.0000 H   0  0  0  0  0  0  0  0  0  0  0  0
    7.8887   -3.7007    0.0000 H   0  0  0  0  0  0  0  0  0  0  0  0
    6.8797   -2.5946    0.0000 H   0  0  0  0  0  0  0  0  0  0  0  0
   10.5130    0.3050    0.0000 H   0  0  0  0  0  0  0  0  0  0  0  0
    8.6077    3.5156    0.0000 H   0  0  0  0  0  0  0  0  0  0  0  0
    3.5057    0.5732    0.0000 H   0  0  0  0  0  0  0  0  0  0  0  0
    5.0879    2.4533    0.0000 H   0  0  0  0  0  0  0  0  0  0  0  0
    7.7982    3.1795    0.0000 H   0  0  0  0  0  0  0  0  0  0  0  0
    4.5269   -2.1183    0.0000 H   0  0  0  0  0  0  0  0  0  0  0  0
    9.0268   -4.6288    0.0000 H   0  0  0  0  0  0  0  0  0  0  0  0
    4.6686    4.0181    0.0000 H   0  0  0  0  0  0  0  0  0  0  0  0
    7.3789    4.7443    0.0000 H   0  0  0  0  0  0  0  0  0  0  0  0
   11.4969   -1.1723    0.0000 H   0  0  0  0  0  0  0  0  0  0  0  0
    6.2856   -2.3586    0.0000 H   0  0  0  0  0  0  0  0  0  0  0  0
    7.2101   -4.7000    0.0000 H   0  0  0  0  0  0  0  0  0  0  0  0
    5.6680   -2.3558    0.0000 H   0  0  0  0  0  0  0  0  0  0  0  0
    2.3968   -0.8128    0.0000 H   0  0  0  0  0  0  0  0  0  0  0  0
    5.8566   -5.5903    0.0000 H   0  0  0  0  0  0  0  0  0  0  0  0
    4.3146   -3.2461    0.0000 H   0  0  0  0  0  0  0  0  0  0  0  0
    5.1169    5.6911    0.0000 H   0  0  0  0  0  0  0  0  0  0  0  0
    4.1275   -5.6911    0.0000 H   0  0  0  0  0  0  0  0  0  0  0  0
  1 13  1  0  0  0  0
  1 16  1  0  0  0  0
  2 13  1  0  0  0  0
  2 18  1  0  0  0  0
  3 17  1  0  0  0  0
  3 23  1  0  0  0  0
  4 12  1  0  0  0  0
  4 48  1  0  0  0  0
  5 53  1  0  0  0  0
  6 25  1  0  0  0  0
  6 56  1  0  0  0  0
  7 26  1  0  0  0  0
  7 57  1  0  0  0  0
  8 32  1  0  0  0  0
  8 60  1  0  0  0  0
  9 37  1  0  0  0  0
  9 63  1  0  0  0  0
 10 40  1  0  0  0  0
 10 64  1  0  0  0  0
 11 12  1  1  0  0  0
 11 14  1  0  0  0  0
 11 15  1  0  0  0  0
 11 41  1  0  0  0  0
 12 42  1  0  0  0  0
 13 12  1  1  0  0  0
 13 20  1  0  0  0  0
 14 16  2  0  0  0  0
 14 17  1  0  0  0  0
 15 18  1  0  0  0  0
 15 26  2  0  0  0  0
 16 24  1  0  0  0  0
 17 19  2  0  0  0  0
 18 27  2  0  0  0  0
 19 21  1  0  0  0  0
 19 25  1  0  0  0  0
 20 28  2  0  0  0  0
 20 29  1  0  0  0  0
 21 22  1  0  0  0  0
 21 43  1  0  0  0  0
 21 44  1  0  0  0  0
 22  5  1  0  0  0  0
 22 23  1  1  0  0  0
 22 45  1  0  0  0  0
 23 30  1  0  0  0  0
 23 46  1  6  0  0  0
 24 25  2  0  0  0  0
 24 47  1  0  0  0  0
 26 31  1  0  0  0  0
 27 32  1  0  0  0  0
 27 49  1  0  0  0  0
 28 33  1  0  0  0  0
 28 50  1  0  0  0  0
 29 34  2  0  0  0  0
 29 51  1  0  0  0  0
 30 35  2  0  0  0  0
 30 36  1  0  0  0  0
 31 32  2  0  0  0  0
 31 52  1  0  0  0  0
 33 37  2  0  0  0  0
 33 54  1  0  0  0  0
 34 37  1  0  0  0  0
 34 55  1  0  0  0  0
 35 38  1  0  0  0  0
 35 58  1  0  0  0  0
 36 39  2  0  0  0  0
 36 59  1  0  0  0  0
 38 40  2  0  0  0  0
 38 61  1  0  0  0  0
 39 40  1  0  0  0  0
 39 62  1  0  0  0  0
M  END
>  <PUBCHEM_COMPOUND_CID>
158247

>  <PUBCHEM_COMPOUND_CANONICALIZED>
1

>  <PUBCHEM_CACTVS_COMPLEXITY>
905

>  <PUBCHEM_CACTVS_HBOND_ACCEPTOR>
10

>  <PUBCHEM_CACTVS_HBOND_DONOR>
7

>  <PUBCHEM_CACTVS_ROTATABLE_BOND>
2

>  <PUBCHEM_CACTVS_SUBSKEYS>
AAADceB4PAAAAAAAAAAAAAAAAAAAAAAAAAA0aNGCAAASAACRVAAAGgAACAAADRSgmAIwDoAABgCAAiBCAAACCAAgIAAIiAAGCIgdNyKGMRqieCClwBUPuAfA4PwOoAACCAAIAABAAAQQABAAAAAAAAAAAA==

>  <PUBCHEM_IUPAC_INCHI>
InChI=1S/C30H24O10/c31-15-5-1-13(2-6-15)27-21(36)11-18-19(34)12-23-25(28(18)38-27)26-24-20(35)9-17(33)10-22(24)39-30(40-23,29(26)37)14-3-7-16(32)8-4-14/h1-10,12,21,26-27,29,31-37H,11H2/t21-,26+,27-,29?,30-/m1/s1

>  <PUBCHEM_IUPAC_INCHIKEY>
LQRHGTVFFPMWCG-DFRNNGSQSA-N

>  <PUBCHEM_XLOGP3_AA>
3.1

>  <PUBCHEM_EXACT_MASS>
544.137

>  <PUBCHEM_MOLECULAR_FORMULA>
C30H24O10

>  <PUBCHEM_MOLECULAR_WEIGHT>
544.512

>  <PUBCHEM_OPENEYE_CAN_SMILES>
C1C(C(OC2=C3C4C(C(OC5=CC(=CC(=C45)O)O)(OC3=CC(=C21)O)C6=CC=C(C=C6)O)O)C7=CC=C(C=C7)O)O

>  <PUBCHEM_OPENEYE_ISO_SMILES>
C1[C@H]([C@H](OC2=C3[C@H]4C([C@](OC5=CC(=CC(=C45)O)O)(OC3=CC(=C21)O)C6=CC=C(C=C6)O)O)C7=CC=C(C=C7)O)O

>  <PUBCHEM_CACTVS_TPSA>
169

>  <PUBCHEM_MONOISOTOPIC_WEIGHT>
544.137

>  <PUBCHEM_TOTAL_CHARGE>
0

>  <PUBCHEM_HEAVY_ATOM_COUNT>
40

>  <PUBCHEM_ATOM_DEF_STEREO_COUNT>
4

>  <PUBCHEM_ATOM_UDEF_STEREO_COUNT>
1

>  <PUBCHEM_BOND_DEF_STEREO_COUNT>
0

>  <PUBCHEM_BOND_UDEF_STEREO_COUNT>
0

>  <PUBCHEM_ISOTOPIC_ATOM_COUNT>
0

>  <PUBCHEM_COMPONENT_COUNT>
1

>  <PUBCHEM_CACTVS_TAUTO_COUNT>
72

>  <PUBCHEM_COORDINATE_TYPE>
1
5
255

>  <PUBCHEM_BONDANNOTATIONS>
11  41  5
13  20  6
14  16  8
14  17  8
15  18  8
15  26  8
16  24  8
17  19  8
18  27  8
19  25  8
20  28  8
20  29  8
23  30  5
24  25  8
26  31  8
27  32  8
28  33  8
29  34  8
30  35  8
30  36  8
31  32  8
33  37  8
34  37  8
35  38  8
36  39  8
38  40  8
39  40  8
12  4  3
22  5  5

$$$$
