15945058
 OpenBabel06101807152D

 54 57  0  0  1  0  0  0  0  0999 V2000
    6.0010   -1.4350    0.0000 O   0  0  0  0  0  0  0  0  0  0  0  0
    4.2690   -1.4350    0.0000 O   0  0  0  0  0  0  0  0  0  0  0  0
    5.1963    1.1486    0.0000 O   0  0  0  0  0  0  0  0  0  0  0  0
    6.0010   -3.4350    0.0000 O   0  0  0  0  0  0  0  0  0  0  0  0
    7.7563    0.8380    0.0000 O   0  0  0  0  0  0  0  0  0  0  0  0
    4.2690   -4.4350    0.0000 O   0  0  0  0  0  0  0  0  0  0  0  0
    2.5369   -3.4350    0.0000 O   0  0  0  0  0  0  0  0  0  0  0  0
    8.0425    2.9448    0.0000 O   0  0  0  0  0  0  0  0  0  0  0  0
    2.5369   -0.4350    0.0000 O   0  0  0  0  0  0  0  0  0  0  0  0
    9.5703    3.8390    0.0000 O   0  0  0  0  0  0  0  0  0  0  0  0
    6.0010   -0.4350    0.0000 C   0  0  0  0  0  0  0  0  0  0  0  0
    6.0010    0.5650    0.0000 C   0  0  2  0  0  0  0  0  0  0  0  0
    5.1350   -1.9350    0.0000 C   0  0  3  0  0  0  0  0  0  0  0  0
    5.1350   -2.9350    0.0000 C   0  0  3  0  0  0  0  0  0  0  0  0
    6.8058    1.1486    0.0000 C   0  0  1  0  0  0  0  0  0  0  0  0
    4.2690   -3.4350    0.0000 C   0  0  3  0  0  0  0  0  0  0  0  0
    3.4030   -2.9350    0.0000 C   0  0  3  0  0  0  0  0  0  0  0  0
    3.4030   -1.9350    0.0000 C   0  0  3  0  0  0  0  0  0  0  0  0
    6.5010    2.0949    0.0000 C   0  0  0  0  0  0  0  0  0  0  0  0
    7.0010   -0.4350    0.0000 C   0  0  0  0  0  0  0  0  0  0  0  0
    5.0010   -0.4350    0.0000 C   0  0  0  0  0  0  0  0  0  0  0  0
    5.5010    2.0949    0.0000 C   0  0  0  0  0  0  0  0  0  0  0  0
    2.5369   -1.4350    0.0000 C   0  0  0  0  0  0  0  0  0  0  0  0
    7.0010    2.9609    0.0000 C   0  0  0  0  0  0  0  0  0  0  0  0
    5.0010    2.9609    0.0000 C   0  0  0  0  0  0  0  0  0  0  0  0
    6.5010    3.8269    0.0000 C   0  0  0  0  0  0  0  0  0  0  0  0
    5.5010    3.8269    0.0000 C   0  0  0  0  0  0  0  0  0  0  0  0
    7.0079    4.7369    0.0000 C   0  0  0  0  0  0  0  0  0  0  0  0
    8.5703    3.8429    0.0000 C   0  0  0  0  0  0  0  0  0  0  0  0
    8.0495    4.7450    0.0000 C   0  0  0  0  0  0  0  0  0  0  0  0
    5.2438    0.1788    0.0000 H   0  0  0  0  0  0  0  0  0  0  0  0
    5.1350   -1.0850    0.0000 H   0  0  0  0  0  0  0  0  0  0  0  0
    5.1350   -3.7850    0.0000 H   0  0  0  0  0  0  0  0  0  0  0  0
    7.2451    1.5861    0.0000 H   0  0  0  0  0  0  0  0  0  0  0  0
    3.5329   -3.8600    0.0000 H   0  0  0  0  0  0  0  0  0  0  0  0
    2.6668   -2.5100    0.0000 H   0  0  0  0  0  0  0  0  0  0  0  0
    3.4030   -1.0850    0.0000 H   0  0  0  0  0  0  0  0  0  0  0  0
    7.0010   -1.0550    0.0000 H   0  0  0  0  0  0  0  0  0  0  0  0
    7.6210   -0.4350    0.0000 H   0  0  0  0  0  0  0  0  0  0  0  0
    7.0010    0.1850    0.0000 H   0  0  0  0  0  0  0  0  0  0  0  0
    5.0010    0.1850    0.0000 H   0  0  0  0  0  0  0  0  0  0  0  0
    4.3810   -0.4350    0.0000 H   0  0  0  0  0  0  0  0  0  0  0  0
    5.0010   -1.0550    0.0000 H   0  0  0  0  0  0  0  0  0  0  0  0
    1.9264   -1.3273    0.0000 H   0  0  0  0  0  0  0  0  0  0  0  0
    2.3249   -2.0176    0.0000 H   0  0  0  0  0  0  0  0  0  0  0  0
    6.0010   -4.0550    0.0000 H   0  0  0  0  0  0  0  0  0  0  0  0
    4.3810    2.9609    0.0000 H   0  0  0  0  0  0  0  0  0  0  0  0
    8.2178    1.2521    0.0000 H   0  0  0  0  0  0  0  0  0  0  0  0
    3.7320   -4.7450    0.0000 H   0  0  0  0  0  0  0  0  0  0  0  0
    2.0000   -3.1250    0.0000 H   0  0  0  0  0  0  0  0  0  0  0  0
    5.1910    4.3639    0.0000 H   0  0  0  0  0  0  0  0  0  0  0  0
    2.0000   -0.1250    0.0000 H   0  0  0  0  0  0  0  0  0  0  0  0
    6.6917    5.2702    0.0000 H   0  0  0  0  0  0  0  0  0  0  0  0
    8.3574    5.2831    0.0000 H   0  0  0  0  0  0  0  0  0  0  0  0
  1 11  1  0  0  0  0
  1 13  1  0  0  0  0
  2 13  1  0  0  0  0
  2 18  1  0  0  0  0
  3 12  1  0  0  0  0
  3 22  1  0  0  0  0
  4 14  1  0  0  0  0
  4 46  1  0  0  0  0
  5 48  1  0  0  0  0
  6 16  1  0  0  0  0
  6 49  1  0  0  0  0
  7 17  1  0  0  0  0
  7 50  1  0  0  0  0
  8 24  1  0  0  0  0
  8 29  1  0  0  0  0
  9 23  1  0  0  0  0
  9 52  1  0  0  0  0
 10 29  2  0  0  0  0
 11 12  1  0  0  0  0
 11 20  1  0  0  0  0
 11 21  1  0  0  0  0
 12 15  1  6  0  0  0
 12 31  1  0  0  0  0
 13 14  1  0  0  0  0
 13 32  1  0  0  0  0
 14 16  1  0  0  0  0
 14 33  1  0  0  0  0
 15  5  1  0  0  0  0
 15 19  1  0  0  0  0
 15 34  1  6  0  0  0
 16 17  1  0  0  0  0
 16 35  1  0  0  0  0
 17 18  1  0  0  0  0
 17 36  1  0  0  0  0
 18 23  1  0  0  0  0
 18 37  1  0  0  0  0
 19 22  2  0  0  0  0
 19 24  1  0  0  0  0
 20 38  1  0  0  0  0
 20 39  1  0  0  0  0
 20 40  1  0  0  0  0
 21 41  1  0  0  0  0
 21 42  1  0  0  0  0
 21 43  1  0  0  0  0
 22 25  1  0  0  0  0
 23 44  1  0  0  0  0
 23 45  1  0  0  0  0
 24 26  2  0  0  0  0
 25 27  2  0  0  0  0
 25 47  1  0  0  0  0
 26 27  1  0  0  0  0
 26 28  1  0  0  0  0
 27 51  1  0  0  0  0
 28 30  2  0  0  0  0
 28 53  1  0  0  0  0
 29 30  1  0  0  0  0
 30 54  1  0  0  0  0
M  END
>  <PUBCHEM_COMPOUND_CID>
15945058

>  <PUBCHEM_COMPOUND_CANONICALIZED>
1

>  <PUBCHEM_CACTVS_COMPLEXITY>
681

>  <PUBCHEM_CACTVS_HBOND_ACCEPTOR>
10

>  <PUBCHEM_CACTVS_HBOND_DONOR>
5

>  <PUBCHEM_CACTVS_ROTATABLE_BOND>
4

>  <PUBCHEM_CACTVS_SUBSKEYS>
AAADceB4PAAAAAAAAAAAAAAAAAAAASAAAAA0QIAAAAAAAEiBAAAAGgAACAAADFSwmAMyDoAABgCIAiDSCAACCAAgIAAIiAAGCMgdNyKEMRqieiClwBUPuYfA4PwOIAACCAAIAABAAAQQABAAAAAAAAAAAA==

>  <PUBCHEM_IUPAC_OPENEYE_NAME>
(8S,9R)-9-hydroxy-8-[1-methyl-1-[3,4,5-trihydroxy-6-(hydroxymethyl)tetrahydropyran-2-yl]oxy-ethyl]-8,9-dihydrofuro[2,3-h]chromen-2-one

>  <PUBCHEM_IUPAC_CAS_NAME>
(8S,9R)-9-hydroxy-8-[2-[[3,4,5-trihydroxy-6-(hydroxymethyl)-2-oxanyl]oxy]propan-2-yl]-8,9-dihydrofuro[2,3-h][1]benzopyran-2-one

>  <PUBCHEM_IUPAC_NAME>
(8S,9R)-9-hydroxy-8-[2-[3,4,5-trihydroxy-6-(hydroxymethyl)oxan-2-yl]oxypropan-2-yl]-8,9-dihydrofuro[2,3-h]chromen-2-one

>  <PUBCHEM_IUPAC_SYSTEMATIC_NAME>
(8S,9R)-8-[2-[6-(hydroxymethyl)-3,4,5-tris(oxidanyl)oxan-2-yl]oxypropan-2-yl]-9-oxidanyl-8,9-dihydrofuro[2,3-h]chromen-2-one

>  <PUBCHEM_IUPAC_TRADITIONAL_NAME>
(8S,9R)-9-hydroxy-8-[1-methyl-1-(3,4,5-trihydroxy-6-methylol-tetrahydropyran-2-yl)oxy-ethyl]-8,9-dihydrofuro[2,3-h]chromen-2-one

>  <PUBCHEM_IUPAC_INCHI>
InChI=1S/C20H24O10/c1-20(2,30-19-16(26)15(25)13(23)10(7-21)28-19)18-14(24)12-9(27-18)5-3-8-4-6-11(22)29-17(8)12/h3-6,10,13-16,18-19,21,23-26H,7H2,1-2H3/t10?,13?,14-,15?,16?,18+,19?/m1/s1

>  <PUBCHEM_IUPAC_INCHIKEY>
ALEQYOXVXJKFOM-MKKAWSSWSA-N

>  <PUBCHEM_XLOGP3_AA>
-0.8

>  <PUBCHEM_EXACT_MASS>
424.137

>  <PUBCHEM_MOLECULAR_FORMULA>
C20H24O10

>  <PUBCHEM_MOLECULAR_WEIGHT>
424.402

>  <PUBCHEM_OPENEYE_CAN_SMILES>
CC(C)(C1C(C2=C(O1)C=CC3=C2OC(=O)C=C3)O)OC4C(C(C(C(O4)CO)O)O)O

>  <PUBCHEM_OPENEYE_ISO_SMILES>
CC(C)([C@@H]1[C@@H](C2=C(O1)C=CC3=C2OC(=O)C=C3)O)OC4C(C(C(C(O4)CO)O)O)O

>  <PUBCHEM_CACTVS_TPSA>
155

>  <PUBCHEM_MONOISOTOPIC_WEIGHT>
424.137

>  <PUBCHEM_TOTAL_CHARGE>
0

>  <PUBCHEM_HEAVY_ATOM_COUNT>
30

>  <PUBCHEM_ATOM_DEF_STEREO_COUNT>
2

>  <PUBCHEM_ATOM_UDEF_STEREO_COUNT>
5

>  <PUBCHEM_BOND_DEF_STEREO_COUNT>
0

>  <PUBCHEM_BOND_UDEF_STEREO_COUNT>
0

>  <PUBCHEM_ISOTOPIC_ATOM_COUNT>
0

>  <PUBCHEM_COMPONENT_COUNT>
1

>  <PUBCHEM_CACTVS_TAUTO_COUNT>
1

>  <PUBCHEM_COORDINATE_TYPE>
1
5
255

>  <PUBCHEM_BONDANNOTATIONS>
12  31  6
13  32  3
14  33  3
16  35  3
17  36  3
18  37  3
19  22  8
19  24  8
22  25  8
24  26  8
25  27  8
26  27  8
26  28  8
28  30  8
29  30  8
15  5  5
8  24  8
8  29  8

$$$$
