15958839
 OpenBabel06101807152D

 54 58  0  0  0  0  0  0  0  0999 V2000
    3.7044    0.8939    0.0000 F   0  0  0  0  0  0  0  0  0  0  0  0
    7.4736    0.1110    0.0000 O   0  0  0  0  0  0  0  0  0  0  0  0
    7.3806    5.4017    0.0000 O   0  0  0  0  0  0  0  0  0  0  0  0
    5.1594    1.3934    0.0000 O   0  0  0  0  0  0  0  0  0  0  0  0
    7.1165    1.8059    0.0000 N   0  0  0  0  0  0  0  0  0  0  0  0
    7.7378    3.7069    0.0000 N   0  0  0  0  0  0  0  0  0  0  0  0
    5.5166   -1.9109    0.0000 N   0  0  0  0  0  0  0  0  0  0  0  0
    3.7044   -3.1061    0.0000 N   0  0  0  0  0  0  0  0  0  0  0  0
    2.8384   -1.6061    0.0000 N   0  0  0  0  0  0  0  0  0  0  0  0
    2.8954   -3.6939    0.0000 N   0  0  0  0  0  0  0  0  0  0  0  0
    2.6166   -5.4540    0.0000 N   0  0  0  0  0  0  0  0  0  0  0  0
    8.0950    2.0121    0.0000 C   0  0  0  0  0  0  0  0  0  0  0  0
    6.4486    2.5502    0.0000 C   0  0  0  0  0  0  0  0  0  0  0  0
    8.4056    2.9626    0.0000 C   0  0  0  0  0  0  0  0  0  0  0  0
    6.7593    3.5007    0.0000 C   0  0  0  0  0  0  0  0  0  0  0  0
    6.8058    0.8553    0.0000 C   0  0  0  0  0  0  0  0  0  0  0  0
    8.0485    4.6574    0.0000 C   0  0  0  0  0  0  0  0  0  0  0  0
    5.8273    0.6491    0.0000 C   0  0  0  0  0  0  0  0  0  0  0  0
    5.5166   -0.3014    0.0000 C   0  0  0  0  0  0  0  0  0  0  0  0
    4.5704   -0.6061    0.0000 C   0  0  0  0  0  0  0  0  0  0  0  0
    4.5704   -1.6061    0.0000 C   0  0  0  0  0  0  0  0  0  0  0  0
    9.0270    4.8636    0.0000 C   0  0  0  0  0  0  0  0  0  0  0  0
    6.1002   -1.1061    0.0000 C   0  0  0  0  0  0  0  0  0  0  0  0
    3.7044   -2.1061    0.0000 C   0  0  0  0  0  0  0  0  0  0  0  0
    3.7044   -0.1061    0.0000 C   0  0  0  0  0  0  0  0  0  0  0  0
    9.6948    4.1193    0.0000 C   0  0  0  0  0  0  0  0  0  0  0  0
    9.3376    5.8142    0.0000 C   0  0  0  0  0  0  0  0  0  0  0  0
    2.8384   -0.6061    0.0000 C   0  0  0  0  0  0  0  0  0  0  0  0
   10.6733    4.3256    0.0000 C   0  0  0  0  0  0  0  0  0  0  0  0
   10.3161    6.0204    0.0000 C   0  0  0  0  0  0  0  0  0  0  0  0
    4.5134   -3.6939    0.0000 C   0  0  0  0  0  0  0  0  0  0  0  0
   10.9840    5.2761    0.0000 C   0  0  0  0  0  0  0  0  0  0  0  0
    4.2044   -4.6450    0.0000 C   0  0  0  0  0  0  0  0  0  0  0  0
    3.2044   -4.6450    0.0000 C   0  0  0  0  0  0  0  0  0  0  0  0
    5.9017    2.8422    0.0000 H   0  0  0  0  0  0  0  0  0  0  0  0
    6.0661    2.0623    0.0000 H   0  0  0  0  0  0  0  0  0  0  0  0
    8.1155    1.3924    0.0000 H   0  0  0  0  0  0  0  0  0  0  0  0
    8.7088    1.9247    0.0000 H   0  0  0  0  0  0  0  0  0  0  0  0
    8.9526    2.6706    0.0000 H   0  0  0  0  0  0  0  0  0  0  0  0
    8.7882    3.4505    0.0000 H   0  0  0  0  0  0  0  0  0  0  0  0
    6.7387    4.1204    0.0000 H   0  0  0  0  0  0  0  0  0  0  0  0
    6.1455    3.5880    0.0000 H   0  0  0  0  0  0  0  0  0  0  0  0
    6.7202   -1.1061    0.0000 H   0  0  0  0  0  0  0  0  0  0  0  0
    5.7092   -2.5002    0.0000 H   0  0  0  0  0  0  0  0  0  0  0  0
    9.5022    3.5300    0.0000 H   0  0  0  0  0  0  0  0  0  0  0  0
    8.9236    6.2756    0.0000 H   0  0  0  0  0  0  0  0  0  0  0  0
    2.3014   -0.2961    0.0000 H   0  0  0  0  0  0  0  0  0  0  0  0
   11.0874    3.8641    0.0000 H   0  0  0  0  0  0  0  0  0  0  0  0
   10.5087    6.6097    0.0000 H   0  0  0  0  0  0  0  0  0  0  0  0
    5.1031   -3.5023    0.0000 H   0  0  0  0  0  0  0  0  0  0  0  0
   11.5906    5.4039    0.0000 H   0  0  0  0  0  0  0  0  0  0  0  0
    4.5688   -5.1466    0.0000 H   0  0  0  0  0  0  0  0  0  0  0  0
    2.8688   -6.0204    0.0000 H   0  0  0  0  0  0  0  0  0  0  0  0
    2.0000   -5.3892    0.0000 H   0  0  0  0  0  0  0  0  0  0  0  0
  1 25  1  0  0  0  0
  2 16  2  0  0  0  0
  3 17  2  0  0  0  0
  4 18  2  0  0  0  0
  5 12  1  0  0  0  0
  5 13  1  0  0  0  0
  5 16  1  0  0  0  0
  6 14  1  0  0  0  0
  6 15  1  0  0  0  0
  6 17  1  0  0  0  0
  7 21  1  0  0  0  0
  7 23  1  0  0  0  0
  7 44  1  0  0  0  0
  8 10  1  0  0  0  0
  8 24  1  0  0  0  0
  8 31  1  0  0  0  0
  9 24  2  0  0  0  0
  9 28  1  0  0  0  0
 10 34  2  0  0  0  0
 11 34  1  0  0  0  0
 11 53  1  0  0  0  0
 11 54  1  0  0  0  0
 12 14  1  0  0  0  0
 12 37  1  0  0  0  0
 12 38  1  0  0  0  0
 13 15  1  0  0  0  0
 13 35  1  0  0  0  0
 13 36  1  0  0  0  0
 14 39  1  0  0  0  0
 14 40  1  0  0  0  0
 15 41  1  0  0  0  0
 15 42  1  0  0  0  0
 16 18  1  0  0  0  0
 17 22  1  0  0  0  0
 18 19  1  0  0  0  0
 19 20  1  0  0  0  0
 19 23  2  0  0  0  0
 20 21  2  0  0  0  0
 20 25  1  0  0  0  0
 21 24  1  0  0  0  0
 22 26  2  0  0  0  0
 22 27  1  0  0  0  0
 23 43  1  0  0  0  0
 25 28  2  0  0  0  0
 26 29  1  0  0  0  0
 26 45  1  0  0  0  0
 27 30  2  0  0  0  0
 27 46  1  0  0  0  0
 28 47  1  0  0  0  0
 29 32  2  0  0  0  0
 29 48  1  0  0  0  0
 30 32  1  0  0  0  0
 30 49  1  0  0  0  0
 31 33  2  0  0  0  0
 31 50  1  0  0  0  0
 32 51  1  0  0  0  0
 33 34  1  0  0  0  0
 33 52  1  0  0  0  0
M  END
>  <PUBCHEM_COMPOUND_CID>
15958839

>  <PUBCHEM_COMPOUND_CANONICALIZED>
1

>  <PUBCHEM_CACTVS_COMPLEXITY>
787

>  <PUBCHEM_CACTVS_HBOND_ACCEPTOR>
7

>  <PUBCHEM_CACTVS_HBOND_DONOR>
2

>  <PUBCHEM_CACTVS_ROTATABLE_BOND>
4

>  <PUBCHEM_CACTVS_SUBSKEYS>
AAADceB7sQAAAAAAAAAAAAAAAAAAAWLAAAA8WIAAAAAAAFgB/gAAHwAYAAAADAzBngw98PPJkACqA7d3dACShC81kiAd2aG4dNiIYPrA3fGUpYh4ngLIyecciQCegAAAAAAAAAAAAAAAAAAAAAAAAAAAAA==

>  <PUBCHEM_IUPAC_OPENEYE_NAME>
1-[7-(3-aminopyrazol-1-yl)-4-fluoro-1H-pyrrolo[2,3-c]pyridin-3-yl]-2-(4-benzoylpiperazin-1-yl)ethane-1,2-dione

>  <PUBCHEM_IUPAC_CAS_NAME>
1-[7-(3-amino-1-pyrazolyl)-4-fluoro-1H-pyrrolo[2,3-c]pyridin-3-yl]-2-(4-benzoyl-1-piperazinyl)ethane-1,2-dione

>  <PUBCHEM_IUPAC_NAME>
1-[7-(3-aminopyrazol-1-yl)-4-fluoro-1H-pyrrolo[2,3-c]pyridin-3-yl]-2-(4-benzoylpiperazin-1-yl)ethane-1,2-dione

>  <PUBCHEM_IUPAC_SYSTEMATIC_NAME>
1-[7-(3-azanylpyrazol-1-yl)-4-fluoranyl-1H-pyrrolo[2,3-c]pyridin-3-yl]-2-[4-(phenylcarbonyl)piperazin-1-yl]ethane-1,2-dione

>  <PUBCHEM_IUPAC_TRADITIONAL_NAME>
1-[7-(3-aminopyrazol-1-yl)-4-fluoro-1H-pyrrolo[2,3-c]pyridin-3-yl]-2-(4-benzoylpiperazino)ethane-1,2-dione

>  <PUBCHEM_IUPAC_INCHI>
InChI=1S/C23H20FN7O3/c24-16-13-27-21(31-7-6-17(25)28-31)19-18(16)15(12-26-19)20(32)23(34)30-10-8-29(9-11-30)22(33)14-4-2-1-3-5-14/h1-7,12-13,26H,8-11H2,(H2,25,28)

>  <PUBCHEM_IUPAC_INCHIKEY>
GCZUYHMLYFVJHN-UHFFFAOYSA-N

>  <PUBCHEM_XLOGP3_AA>
1.3

>  <PUBCHEM_EXACT_MASS>
461.161

>  <PUBCHEM_MOLECULAR_FORMULA>
C23H20FN7O3

>  <PUBCHEM_MOLECULAR_WEIGHT>
461.457

>  <PUBCHEM_OPENEYE_CAN_SMILES>
C1CN(CCN1C(=O)C2=CC=CC=C2)C(=O)C(=O)C3=CNC4=C3C(=CN=C4N5C=CC(=N5)N)F

>  <PUBCHEM_OPENEYE_ISO_SMILES>
C1CN(CCN1C(=O)C2=CC=CC=C2)C(=O)C(=O)C3=CNC4=C3C(=CN=C4N5C=CC(=N5)N)F

>  <PUBCHEM_CACTVS_TPSA>
130

>  <PUBCHEM_MONOISOTOPIC_WEIGHT>
461.161

>  <PUBCHEM_TOTAL_CHARGE>
0

>  <PUBCHEM_HEAVY_ATOM_COUNT>
34

>  <PUBCHEM_ATOM_DEF_STEREO_COUNT>
0

>  <PUBCHEM_ATOM_UDEF_STEREO_COUNT>
0

>  <PUBCHEM_BOND_DEF_STEREO_COUNT>
0

>  <PUBCHEM_BOND_UDEF_STEREO_COUNT>
0

>  <PUBCHEM_ISOTOPIC_ATOM_COUNT>
0

>  <PUBCHEM_COMPONENT_COUNT>
1

>  <PUBCHEM_CACTVS_TAUTO_COUNT>
8

>  <PUBCHEM_COORDINATE_TYPE>
1
5
255

>  <PUBCHEM_BONDANNOTATIONS>
10  34  8
19  20  8
19  23  8
20  21  8
20  25  8
21  24  8
22  26  8
22  27  8
25  28  8
26  29  8
27  30  8
29  32  8
30  32  8
31  33  8
33  34  8
7  21  8
7  23  8
8  10  8
8  31  8
9  24  8
9  28  8

$$$$
