16038118
 OpenBabel06101807152D

 42 44  0  0  0  0  0  0  0  0999 V2000
    6.0682    0.0272    0.0000 O   0  0  0  0  0  0  0  0  0  0  0  0
    2.5381    0.0031    0.0000 O   0  0  0  0  0  0  0  0  0  0  0  0
    6.0682    3.0272    0.0000 O   0  0  0  0  0  0  0  0  0  0  0  0
   10.3984   -1.4728    0.0000 O   0  0  0  0  0  0  0  0  0  0  0  0
    4.3083   -0.0074    0.0000 C   0  0  0  0  0  0  0  0  0  0  0  0
    5.2022    0.5272    0.0000 C   0  0  0  0  0  0  0  0  0  0  0  0
    5.2022    1.5272    0.0000 C   0  0  0  0  0  0  0  0  0  0  0  0
    4.3198   -1.0074    0.0000 C   0  0  0  0  0  0  0  0  0  0  0  0
    3.4022    0.5064    0.0000 C   0  0  0  0  0  0  0  0  0  0  0  0
    6.9343    0.5272    0.0000 C   0  0  0  0  0  0  0  0  0  0  0  0
    4.3083    2.0619    0.0000 C   0  0  0  0  0  0  0  0  0  0  0  0
    6.0682    2.0272    0.0000 C   0  0  0  0  0  0  0  0  0  0  0  0
    3.4022    1.5481    0.0000 C   0  0  0  0  0  0  0  0  0  0  0  0
    3.4597   -1.5173    0.0000 C   0  0  0  0  0  0  0  0  0  0  0  0
    6.9343    1.5272    0.0000 C   0  0  0  0  0  0  0  0  0  0  0  0
    7.8003    0.0272    0.0000 C   0  0  0  0  0  0  0  0  0  0  0  0
    3.4712   -2.5173    0.0000 C   0  0  0  0  0  0  0  0  0  0  0  0
    7.8003   -0.9728    0.0000 C   0  0  0  0  0  0  0  0  0  0  0  0
    8.6663    0.5272    0.0000 C   0  0  0  0  0  0  0  0  0  0  0  0
    2.6110   -3.0272    0.0000 C   0  0  0  0  0  0  0  0  0  0  0  0
    4.3430   -3.0072    0.0000 C   0  0  0  0  0  0  0  0  0  0  0  0
    8.6663   -1.4728    0.0000 C   0  0  0  0  0  0  0  0  0  0  0  0
    9.5323    0.0272    0.0000 C   0  0  0  0  0  0  0  0  0  0  0  0
    9.5323   -0.9728    0.0000 C   0  0  0  0  0  0  0  0  0  0  0  0
    4.5386   -1.5875    0.0000 H   0  0  0  0  0  0  0  0  0  0  0  0
    4.9291   -0.8926    0.0000 H   0  0  0  0  0  0  0  0  0  0  0  0
    4.3154    2.6819    0.0000 H   0  0  0  0  0  0  0  0  0  0  0  0
    2.8665    1.8601    0.0000 H   0  0  0  0  0  0  0  0  0  0  0  0
    2.9192   -1.2136    0.0000 H   0  0  0  0  0  0  0  0  0  0  0  0
    7.4712    1.8372    0.0000 H   0  0  0  0  0  0  0  0  0  0  0  0
    7.2634   -1.2828    0.0000 H   0  0  0  0  0  0  0  0  0  0  0  0
    8.6663    1.1472    0.0000 H   0  0  0  0  0  0  0  0  0  0  0  0
    2.2948   -2.4939    0.0000 H   0  0  0  0  0  0  0  0  0  0  0  0
    4.0392   -3.5477    0.0000 H   0  0  0  0  0  0  0  0  0  0  0  0
    4.8835   -3.3110    0.0000 H   0  0  0  0  0  0  0  0  0  0  0  0
    4.6468   -2.4667    0.0000 H   0  0  0  0  0  0  0  0  0  0  0  0
    2.0777   -3.3434    0.0000 H   0  0  0  0  0  0  0  0  0  0  0  0
    2.9272   -3.5606    0.0000 H   0  0  0  0  0  0  0  0  0  0  0  0
    2.0000    0.3110    0.0000 H   0  0  0  0  0  0  0  0  0  0  0  0
    8.6663   -2.0928    0.0000 H   0  0  0  0  0  0  0  0  0  0  0  0
   10.0693    0.3372    0.0000 H   0  0  0  0  0  0  0  0  0  0  0  0
   10.9353   -1.1628    0.0000 H   0  0  0  0  0  0  0  0  0  0  0  0
  1  6  1  0  0  0  0
  1 10  1  0  0  0  0
  2  9  1  0  0  0  0
  2 39  1  0  0  0  0
  3 12  2  0  0  0  0
  4 24  1  0  0  0  0
  4 42  1  0  0  0  0
  5  6  1  0  0  0  0
  5  8  1  0  0  0  0
  5  9  2  0  0  0  0
  6  7  2  0  0  0  0
  7 11  1  0  0  0  0
  7 12  1  0  0  0  0
  8 14  1  0  0  0  0
  8 25  1  0  0  0  0
  8 26  1  0  0  0  0
  9 13  1  0  0  0  0
 10 15  2  0  0  0  0
 10 16  1  0  0  0  0
 11 13  2  0  0  0  0
 11 27  1  0  0  0  0
 12 15  1  0  0  0  0
 13 28  1  0  0  0  0
 14 17  2  0  0  0  0
 14 29  1  0  0  0  0
 15 30  1  0  0  0  0
 16 18  2  0  0  0  0
 16 19  1  0  0  0  0
 17 20  1  0  0  0  0
 17 21  1  0  0  0  0
 18 22  1  0  0  0  0
 18 31  1  0  0  0  0
 19 23  2  0  0  0  0
 19 32  1  0  0  0  0
 20 33  1  0  0  0  0
 20 37  1  0  0  0  0
 20 38  1  0  0  0  0
 21 34  1  0  0  0  0
 21 35  1  0  0  0  0
 21 36  1  0  0  0  0
 22 24  2  0  0  0  0
 22 40  1  0  0  0  0
 23 24  1  0  0  0  0
 23 41  1  0  0  0  0
M  END
>  <PUBCHEM_COMPOUND_CID>
16038118

>  <PUBCHEM_COMPOUND_CANONICALIZED>
1

>  <PUBCHEM_CACTVS_COMPLEXITY>
524

>  <PUBCHEM_CACTVS_HBOND_ACCEPTOR>
4

>  <PUBCHEM_CACTVS_HBOND_DONOR>
2

>  <PUBCHEM_CACTVS_ROTATABLE_BOND>
3

>  <PUBCHEM_CACTVS_SUBSKEYS>
AAADceB4OAAAAAAAAAAAAAAAAAAAAAAAAAAwYIAAAAAAAACBQAAAGgAACAAADASAmAAyBoAABgCIAqBSAAACCAAkIAAIiAEGCMgMJzaGNRqCeWCl4BUIuYeI7OzOIAACCAAIAABAAAQQABAAAAAAAAAAAA==

>  <PUBCHEM_IUPAC_OPENEYE_NAME>
7-hydroxy-2-(4-hydroxyphenyl)-8-(3-methylbut-2-enyl)chromen-4-one

>  <PUBCHEM_IUPAC_CAS_NAME>
7-hydroxy-2-(4-hydroxyphenyl)-8-(3-methylbut-2-enyl)-1-benzopyran-4-one

>  <PUBCHEM_IUPAC_NAME>
7-hydroxy-2-(4-hydroxyphenyl)-8-(3-methylbut-2-enyl)chromen-4-one

>  <PUBCHEM_IUPAC_SYSTEMATIC_NAME>
2-(4-hydroxyphenyl)-8-(3-methylbut-2-enyl)-7-oxidanyl-chromen-4-one

>  <PUBCHEM_IUPAC_TRADITIONAL_NAME>
7-hydroxy-2-(4-hydroxyphenyl)-8-(3-methylbut-2-enyl)chromone

>  <PUBCHEM_IUPAC_INCHI>
InChI=1S/C20H18O4/c1-12(2)3-8-15-17(22)10-9-16-18(23)11-19(24-20(15)16)13-4-6-14(21)7-5-13/h3-7,9-11,21-22H,8H2,1-2H3

>  <PUBCHEM_IUPAC_INCHIKEY>
AJHGAKMPOPDVRT-UHFFFAOYSA-N

>  <PUBCHEM_XLOGP3_AA>
4.4

>  <PUBCHEM_EXACT_MASS>
322.121

>  <PUBCHEM_MOLECULAR_FORMULA>
C20H18O4

>  <PUBCHEM_MOLECULAR_WEIGHT>
322.36

>  <PUBCHEM_OPENEYE_CAN_SMILES>
CC(=CCC1=C(C=CC2=C1OC(=CC2=O)C3=CC=C(C=C3)O)O)C

>  <PUBCHEM_OPENEYE_ISO_SMILES>
CC(=CCC1=C(C=CC2=C1OC(=CC2=O)C3=CC=C(C=C3)O)O)C

>  <PUBCHEM_CACTVS_TPSA>
66.8

>  <PUBCHEM_MONOISOTOPIC_WEIGHT>
322.121

>  <PUBCHEM_TOTAL_CHARGE>
0

>  <PUBCHEM_HEAVY_ATOM_COUNT>
24

>  <PUBCHEM_ATOM_DEF_STEREO_COUNT>
0

>  <PUBCHEM_ATOM_UDEF_STEREO_COUNT>
0

>  <PUBCHEM_BOND_DEF_STEREO_COUNT>
0

>  <PUBCHEM_BOND_UDEF_STEREO_COUNT>
0

>  <PUBCHEM_ISOTOPIC_ATOM_COUNT>
0

>  <PUBCHEM_COMPONENT_COUNT>
1

>  <PUBCHEM_CACTVS_TAUTO_COUNT>
24

>  <PUBCHEM_COORDINATE_TYPE>
1
5
255

>  <PUBCHEM_BONDANNOTATIONS>
1  10  8
1  6  8
10  15  8
11  13  8
12  15  8
16  18  8
16  19  8
18  22  8
19  23  8
22  24  8
23  24  8
5  6  8
5  9  8
6  7  8
7  11  8
7  12  8
9  13  8

$$$$
