16081932
 OpenBabel06101807152D

 87 86  0  0  1  0  0  0  0  0999 V2000
    6.3301   -2.7500    0.0000 P   0  0  3  0  0  0  0  0  0  0  0  0
    5.4641   -3.2500    0.0000 O   0  0  0  0  0  0  0  0  0  0  0  0
    7.1962   -2.2500    0.0000 O   0  0  0  0  0  0  0  0  0  0  0  0
   10.6603   -2.2500    0.0000 O   0  0  0  0  0  0  0  0  0  0  0  0
    5.8301   -1.8840    0.0000 O   0  5  0  0  0  0  0  0  0  0  0  0
    6.8301   -3.6160    0.0000 O   0  0  0  0  0  0  0  0  0  0  0  0
    8.9282   -1.2500    0.0000 O   0  0  0  0  0  0  0  0  0  0  0  0
   11.5263   -3.7500    0.0000 O   0  0  0  0  0  0  0  0  0  0  0  0
    2.8660   -2.7500    0.0000 N   0  3  0  0  0  0  0  0  0  0  0  0
    3.7320   -3.2500    0.0000 C   0  0  0  0  0  0  0  0  0  0  0  0
    2.0000   -2.2500    0.0000 C   0  0  0  0  0  0  0  0  0  0  0  0
    2.3660   -3.6160    0.0000 C   0  0  0  0  0  0  0  0  0  0  0  0
    3.3660   -1.8840    0.0000 C   0  0  0  0  0  0  0  0  0  0  0  0
    4.5981   -2.7500    0.0000 C   0  0  0  0  0  0  0  0  0  0  0  0
   14.9904   -2.7500    0.0000 C   0  0  0  0  0  0  0  0  0  0  0  0
   15.8564   -2.2500    0.0000 C   0  0  0  0  0  0  0  0  0  0  0  0
   21.0526    0.7500    0.0000 C   0  0  0  0  0  0  0  0  0  0  0  0
   20.1865    0.2500    0.0000 C   0  0  0  0  0  0  0  0  0  0  0  0
   14.1244   -2.2500    0.0000 C   0  0  0  0  0  0  0  0  0  0  0  0
   21.0526    1.7500    0.0000 C   0  0  0  0  0  0  0  0  0  0  0  0
   16.7224   -2.7500    0.0000 C   0  0  0  0  0  0  0  0  0  0  0  0
   20.1865   -0.7500    0.0000 C   0  0  0  0  0  0  0  0  0  0  0  0
   13.2583   -2.7500    0.0000 C   0  0  0  0  0  0  0  0  0  0  0  0
   21.9186    2.2500    0.0000 C   0  0  0  0  0  0  0  0  0  0  0  0
   17.5885   -2.2500    0.0000 C   0  0  0  0  0  0  0  0  0  0  0  0
   19.3205   -1.2500    0.0000 C   0  0  0  0  0  0  0  0  0  0  0  0
   21.9186    3.2500    0.0000 C   0  0  0  0  0  0  0  0  0  0  0  0
   12.3923   -2.2500    0.0000 C   0  0  0  0  0  0  0  0  0  0  0  0
   18.4545   -2.7500    0.0000 C   0  0  0  0  0  0  0  0  0  0  0  0
   19.3205   -2.2500    0.0000 C   0  0  0  0  0  0  0  0  0  0  0  0
   22.7846    3.7500    0.0000 C   0  0  0  0  0  0  0  0  0  0  0  0
   11.5263   -2.7500    0.0000 C   0  0  0  0  0  0  0  0  0  0  0  0
    8.9282   -2.2500    0.0000 C   0  0  1  0  0  0  0  0  0  0  0  0
    8.0622   -2.7500    0.0000 C   0  0  0  0  0  0  0  0  0  0  0  0
    9.7942   -2.7500    0.0000 C   0  0  0  0  0  0  0  0  0  0  0  0
    3.3335   -3.7250    0.0000 H   0  0  0  0  0  0  0  0  0  0  0  0
    4.1306   -3.7250    0.0000 H   0  0  0  0  0  0  0  0  0  0  0  0
    1.8291   -3.3060    0.0000 H   0  0  0  0  0  0  0  0  0  0  0  0
    2.0560   -4.1530    0.0000 H   0  0  0  0  0  0  0  0  0  0  0  0
    2.9030   -3.9260    0.0000 H   0  0  0  0  0  0  0  0  0  0  0  0
    2.3100   -1.7131    0.0000 H   0  0  0  0  0  0  0  0  0  0  0  0
    1.4631   -1.9400    0.0000 H   0  0  0  0  0  0  0  0  0  0  0  0
    1.6900   -2.7869    0.0000 H   0  0  0  0  0  0  0  0  0  0  0  0
    3.9030   -2.1940    0.0000 H   0  0  0  0  0  0  0  0  0  0  0  0
    3.6760   -1.3470    0.0000 H   0  0  0  0  0  0  0  0  0  0  0  0
    2.8291   -1.5740    0.0000 H   0  0  0  0  0  0  0  0  0  0  0  0
    4.9966   -2.2750    0.0000 H   0  0  0  0  0  0  0  0  0  0  0  0
    4.1996   -2.2750    0.0000 H   0  0  0  0  0  0  0  0  0  0  0  0
   14.5919   -3.2250    0.0000 H   0  0  0  0  0  0  0  0  0  0  0  0
   15.3889   -3.2250    0.0000 H   0  0  0  0  0  0  0  0  0  0  0  0
   16.2549   -1.7750    0.0000 H   0  0  0  0  0  0  0  0  0  0  0  0
   15.4579   -1.7750    0.0000 H   0  0  0  0  0  0  0  0  0  0  0  0
   21.2646    0.1674    0.0000 H   0  0  0  0  0  0  0  0  0  0  0  0
   21.6631    0.8577    0.0000 H   0  0  0  0  0  0  0  0  0  0  0  0
   19.9745    0.8326    0.0000 H   0  0  0  0  0  0  0  0  0  0  0  0
   19.5760    0.1423    0.0000 H   0  0  0  0  0  0  0  0  0  0  0  0
   14.5229   -1.7750    0.0000 H   0  0  0  0  0  0  0  0  0  0  0  0
   13.7258   -1.7750    0.0000 H   0  0  0  0  0  0  0  0  0  0  0  0
   20.8405    2.3326    0.0000 H   0  0  0  0  0  0  0  0  0  0  0  0
   20.4420    1.6423    0.0000 H   0  0  0  0  0  0  0  0  0  0  0  0
   16.3239   -3.2250    0.0000 H   0  0  0  0  0  0  0  0  0  0  0  0
   17.1210   -3.2250    0.0000 H   0  0  0  0  0  0  0  0  0  0  0  0
   20.3986   -1.3326    0.0000 H   0  0  0  0  0  0  0  0  0  0  0  0
   20.7971   -0.6423    0.0000 H   0  0  0  0  0  0  0  0  0  0  0  0
   12.8598   -3.2250    0.0000 H   0  0  0  0  0  0  0  0  0  0  0  0
   13.6569   -3.2250    0.0000 H   0  0  0  0  0  0  0  0  0  0  0  0
   22.1306    1.6674    0.0000 H   0  0  0  0  0  0  0  0  0  0  0  0
   22.5292    2.3577    0.0000 H   0  0  0  0  0  0  0  0  0  0  0  0
   17.9870   -1.7750    0.0000 H   0  0  0  0  0  0  0  0  0  0  0  0
   17.1899   -1.7750    0.0000 H   0  0  0  0  0  0  0  0  0  0  0  0
   19.1085   -0.6674    0.0000 H   0  0  0  0  0  0  0  0  0  0  0  0
   18.7099   -1.3577    0.0000 H   0  0  0  0  0  0  0  0  0  0  0  0
   21.7065    3.8326    0.0000 H   0  0  0  0  0  0  0  0  0  0  0  0
   21.3080    3.1423    0.0000 H   0  0  0  0  0  0  0  0  0  0  0  0
   12.7908   -1.7750    0.0000 H   0  0  0  0  0  0  0  0  0  0  0  0
   11.9938   -1.7750    0.0000 H   0  0  0  0  0  0  0  0  0  0  0  0
   18.4545   -3.3700    0.0000 H   0  0  0  0  0  0  0  0  0  0  0  0
   19.8574   -2.5600    0.0000 H   0  0  0  0  0  0  0  0  0  0  0  0
   23.0946    3.2131    0.0000 H   0  0  0  0  0  0  0  0  0  0  0  0
   23.3215    4.0600    0.0000 H   0  0  0  0  0  0  0  0  0  0  0  0
   22.4746    4.2869    0.0000 H   0  0  0  0  0  0  0  0  0  0  0  0
    9.4651   -1.9400    0.0000 H   0  0  0  0  0  0  0  0  0  0  0  0
    7.6636   -3.2250    0.0000 H   0  0  0  0  0  0  0  0  0  0  0  0
    8.4607   -3.2250    0.0000 H   0  0  0  0  0  0  0  0  0  0  0  0
    9.3957   -3.2250    0.0000 H   0  0  0  0  0  0  0  0  0  0  0  0
   10.1928   -3.2250    0.0000 H   0  0  0  0  0  0  0  0  0  0  0  0
    9.4651   -0.9400    0.0000 H   0  0  0  0  0  0  0  0  0  0  0  0
  1  2  1  0  0  0  0
  1  3  1  0  0  0  0
  1  5  1  0  0  0  0
  1  6  2  0  0  0  0
  2 14  1  0  0  0  0
  3 34  1  0  0  0  0
  4 32  1  0  0  0  0
  4 35  1  0  0  0  0
  7 87  1  0  0  0  0
  8 32  2  0  0  0  0
  9 10  1  0  0  0  0
  9 11  1  0  0  0  0
  9 12  1  0  0  0  0
  9 13  1  0  0  0  0
 10 14  1  0  0  0  0
 10 36  1  0  0  0  0
 10 37  1  0  0  0  0
 11 41  1  0  0  0  0
 11 42  1  0  0  0  0
 11 43  1  0  0  0  0
 12 38  1  0  0  0  0
 12 39  1  0  0  0  0
 12 40  1  0  0  0  0
 13 44  1  0  0  0  0
 13 45  1  0  0  0  0
 13 46  1  0  0  0  0
 14 47  1  0  0  0  0
 14 48  1  0  0  0  0
 15 16  1  0  0  0  0
 15 19  1  0  0  0  0
 15 49  1  0  0  0  0
 15 50  1  0  0  0  0
 16 21  1  0  0  0  0
 16 51  1  0  0  0  0
 16 52  1  0  0  0  0
 17 18  1  0  0  0  0
 17 20  1  0  0  0  0
 17 53  1  0  0  0  0
 17 54  1  0  0  0  0
 18 22  1  0  0  0  0
 18 55  1  0  0  0  0
 18 56  1  0  0  0  0
 19 23  1  0  0  0  0
 19 57  1  0  0  0  0
 19 58  1  0  0  0  0
 20 24  1  0  0  0  0
 20 59  1  0  0  0  0
 20 60  1  0  0  0  0
 21 25  1  0  0  0  0
 21 61  1  0  0  0  0
 21 62  1  0  0  0  0
 22 26  1  0  0  0  0
 22 63  1  0  0  0  0
 22 64  1  0  0  0  0
 23 28  1  0  0  0  0
 23 65  1  0  0  0  0
 23 66  1  0  0  0  0
 24 27  1  0  0  0  0
 24 67  1  0  0  0  0
 24 68  1  0  0  0  0
 25 29  1  0  0  0  0
 25 69  1  0  0  0  0
 25 70  1  0  0  0  0
 26 30  1  0  0  0  0
 26 71  1  0  0  0  0
 26 72  1  0  0  0  0
 27 31  1  0  0  0  0
 27 73  1  0  0  0  0
 27 74  1  0  0  0  0
 28 32  1  0  0  0  0
 28 75  1  0  0  0  0
 28 76  1  0  0  0  0
 29 30  2  0  0  0  0
 29 77  1  0  0  0  0
 30 78  1  0  0  0  0
 31 79  1  0  0  0  0
 31 80  1  0  0  0  0
 31 81  1  0  0  0  0
 33  7  1  0  0  0  0
 33 34  1  0  0  0  0
 33 35  1  0  0  0  0
 33 82  1  1  0  0  0
 34 83  1  0  0  0  0
 34 84  1  0  0  0  0
 35 85  1  0  0  0  0
 35 86  1  0  0  0  0
M  CHG  2   5  -1   9   1
M  END
>  <PUBCHEM_COMPOUND_CID>
16081932

>  <PUBCHEM_COMPOUND_CANONICALIZED>
1

>  <PUBCHEM_CACTVS_COMPLEXITY>
585

>  <PUBCHEM_CACTVS_HBOND_ACCEPTOR>
7

>  <PUBCHEM_CACTVS_HBOND_DONOR>
1

>  <PUBCHEM_CACTVS_ROTATABLE_BOND>
25

>  <PUBCHEM_CACTVS_SUBSKEYS>
AAADcfB6OAIAAAAAAAAAAAAAAAAAAAAAAAAAAAAAAAAAAAAAAAAAHgAACCAACBThgAYCCAMABxCIQCDSCIAAAAAgAAAICAEIAAgDEBIAAQACAAAFgAAbAAOIyKCAAAAAAAAAAAAAAAAAAAAAAAAAAAAAAA==

>  <PUBCHEM_IUPAC_OPENEYE_NAME>
[(2R)-2-hydroxy-3-[(Z)-octadec-9-enoyl]oxy-propyl] 2-(trimethylammonio)ethyl phosphate

>  <PUBCHEM_IUPAC_CAS_NAME>
[(2R)-2-hydroxy-3-[(Z)-1-oxooctadec-9-enoxy]propyl] 2-(trimethylammonio)ethyl phosphate

>  <PUBCHEM_IUPAC_NAME>
[(2R)-2-hydroxy-3-[(Z)-octadec-9-enoyl]oxypropyl] 2-(trimethylazaniumyl)ethyl phosphate

>  <PUBCHEM_IUPAC_SYSTEMATIC_NAME>
[(2R)-3-[(Z)-octadec-9-enoyl]oxy-2-oxidanyl-propyl] 2-(trimethylazaniumyl)ethyl phosphate

>  <PUBCHEM_IUPAC_TRADITIONAL_NAME>
[(2R)-2-hydroxy-3-[(Z)-octadec-9-enoyl]oxy-propyl] 2-(trimethylammonio)ethyl phosphate

>  <PUBCHEM_IUPAC_INCHI>
InChI=1S/C26H52NO7P/c1-5-6-7-8-9-10-11-12-13-14-15-16-17-18-19-20-26(29)32-23-25(28)24-34-35(30,31)33-22-21-27(2,3)4/h12-13,25,28H,5-11,14-24H2,1-4H3/b13-12-/t25-/m1/s1

>  <PUBCHEM_IUPAC_INCHIKEY>
YAMUFBLWGFFICM-PTGWMXDISA-N

>  <PUBCHEM_XLOGP3_AA>
5.7

>  <PUBCHEM_EXACT_MASS>
521.348

>  <PUBCHEM_MOLECULAR_FORMULA>
C26H52NO7P

>  <PUBCHEM_MOLECULAR_WEIGHT>
521.676

>  <PUBCHEM_OPENEYE_CAN_SMILES>
CCCCCCCCC=CCCCCCCCC(=O)OCC(COP(=O)([O-])OCC[N+](C)(C)C)O

>  <PUBCHEM_OPENEYE_ISO_SMILES>
CCCCCCCC/C=C\CCCCCCCC(=O)OC[C@H](COP(=O)([O-])OCC[N+](C)(C)C)O

>  <PUBCHEM_CACTVS_TPSA>
105

>  <PUBCHEM_MONOISOTOPIC_WEIGHT>
521.348

>  <PUBCHEM_TOTAL_CHARGE>
0

>  <PUBCHEM_HEAVY_ATOM_COUNT>
35

>  <PUBCHEM_ATOM_DEF_STEREO_COUNT>
1

>  <PUBCHEM_ATOM_UDEF_STEREO_COUNT>
0

>  <PUBCHEM_BOND_DEF_STEREO_COUNT>
1

>  <PUBCHEM_BOND_UDEF_STEREO_COUNT>
0

>  <PUBCHEM_ISOTOPIC_ATOM_COUNT>
0

>  <PUBCHEM_COMPONENT_COUNT>
1

>  <PUBCHEM_CACTVS_TAUTO_COUNT>
1

>  <PUBCHEM_COORDINATE_TYPE>
1
5
255

>  <PUBCHEM_BONDANNOTATIONS>
33  7  6

$$$$
