16109866
 OpenBabel06101807152D

 69 70  0  0  0  0  0  0  0  0999 V2000
    5.4641    7.5600    0.0000 O   0  0  0  0  0  0  0  0  0  0  0  0
    2.0000    7.5600    0.0000 O   0  0  0  0  0  0  0  0  0  0  0  0
    6.3301   -7.9400    0.0000 O   0  0  0  0  0  0  0  0  0  0  0  0
    2.8660   -7.9400    0.0000 O   0  0  0  0  0  0  0  0  0  0  0  0
    5.4641    2.5600    0.0000 C   0  0  0  0  0  0  0  0  0  0  0  0
    5.4641    1.5600    0.0000 C   0  0  0  0  0  0  0  0  0  0  0  0
    4.5981    3.0600    0.0000 C   0  0  0  0  0  0  0  0  0  0  0  0
    6.3301    1.0600    0.0000 C   0  0  0  0  0  0  0  0  0  0  0  0
    4.5981    4.0600    0.0000 C   0  0  0  0  0  0  0  0  0  0  0  0
    6.3301    0.0600    0.0000 C   0  0  0  0  0  0  0  0  0  0  0  0
    3.7320    4.5600    0.0000 C   0  0  0  0  0  0  0  0  0  0  0  0
    5.4641   -3.4400    0.0000 C   0  0  0  0  0  0  0  0  0  0  0  0
    6.3301   -2.9400    0.0000 C   0  0  0  0  0  0  0  0  0  0  0  0
    5.4641   -4.4400    0.0000 C   0  0  0  0  0  0  0  0  0  0  0  0
    6.3301   -1.9400    0.0000 C   0  0  0  0  0  0  0  0  0  0  0  0
    4.5981   -4.9400    0.0000 C   0  0  0  0  0  0  0  0  0  0  0  0
    7.1962   -0.4400    0.0000 C   0  0  0  0  0  0  0  0  0  0  0  0
    3.7320    5.5600    0.0000 C   0  0  0  0  0  0  0  0  0  0  0  0
    7.1962   -1.4400    0.0000 C   0  0  0  0  0  0  0  0  0  0  0  0
    4.5981   -5.9400    0.0000 C   0  0  0  0  0  0  0  0  0  0  0  0
    4.5981    6.0600    0.0000 C   0  0  0  0  0  0  0  0  0  0  0  0
    2.8660    6.0600    0.0000 C   0  0  0  0  0  0  0  0  0  0  0  0
    3.7320   -6.4400    0.0000 C   0  0  0  0  0  0  0  0  0  0  0  0
    5.4641   -6.4400    0.0000 C   0  0  0  0  0  0  0  0  0  0  0  0
    4.5981    7.0600    0.0000 C   0  0  0  0  0  0  0  0  0  0  0  0
    2.8660    7.0600    0.0000 C   0  0  0  0  0  0  0  0  0  0  0  0
    3.7320    7.5600    0.0000 C   0  0  0  0  0  0  0  0  0  0  0  0
    5.4641   -7.4400    0.0000 C   0  0  0  0  0  0  0  0  0  0  0  0
    3.7320   -7.4400    0.0000 C   0  0  0  0  0  0  0  0  0  0  0  0
    4.5981   -7.9400    0.0000 C   0  0  0  0  0  0  0  0  0  0  0  0
    5.4641    8.5600    0.0000 C   0  0  0  0  0  0  0  0  0  0  0  0
    6.0747    2.4523    0.0000 H   0  0  0  0  0  0  0  0  0  0  0  0
    5.6762    3.1426    0.0000 H   0  0  0  0  0  0  0  0  0  0  0  0
    4.8535    1.6677    0.0000 H   0  0  0  0  0  0  0  0  0  0  0  0
    5.2520    0.9774    0.0000 H   0  0  0  0  0  0  0  0  0  0  0  0
    3.9875    3.1677    0.0000 H   0  0  0  0  0  0  0  0  0  0  0  0
    4.3860    2.4774    0.0000 H   0  0  0  0  0  0  0  0  0  0  0  0
    6.9407    0.9523    0.0000 H   0  0  0  0  0  0  0  0  0  0  0  0
    6.5422    1.6426    0.0000 H   0  0  0  0  0  0  0  0  0  0  0  0
    5.2087    3.9523    0.0000 H   0  0  0  0  0  0  0  0  0  0  0  0
    4.8101    4.6426    0.0000 H   0  0  0  0  0  0  0  0  0  0  0  0
    5.7196    0.1677    0.0000 H   0  0  0  0  0  0  0  0  0  0  0  0
    6.1181   -0.5226    0.0000 H   0  0  0  0  0  0  0  0  0  0  0  0
    3.1215    4.6677    0.0000 H   0  0  0  0  0  0  0  0  0  0  0  0
    3.5200    3.9774    0.0000 H   0  0  0  0  0  0  0  0  0  0  0  0
    5.2520   -2.8574    0.0000 H   0  0  0  0  0  0  0  0  0  0  0  0
    4.8535   -3.5477    0.0000 H   0  0  0  0  0  0  0  0  0  0  0  0
    6.5422   -3.5226    0.0000 H   0  0  0  0  0  0  0  0  0  0  0  0
    6.9407   -2.8323    0.0000 H   0  0  0  0  0  0  0  0  0  0  0  0
    5.6762   -5.0226    0.0000 H   0  0  0  0  0  0  0  0  0  0  0  0
    6.0747   -4.3323    0.0000 H   0  0  0  0  0  0  0  0  0  0  0  0
    6.1181   -1.3574    0.0000 H   0  0  0  0  0  0  0  0  0  0  0  0
    5.7196   -2.0477    0.0000 H   0  0  0  0  0  0  0  0  0  0  0  0
    4.3860   -4.3574    0.0000 H   0  0  0  0  0  0  0  0  0  0  0  0
    3.9875   -5.0477    0.0000 H   0  0  0  0  0  0  0  0  0  0  0  0
    7.7331   -0.1300    0.0000 H   0  0  0  0  0  0  0  0  0  0  0  0
    7.7331   -1.7500    0.0000 H   0  0  0  0  0  0  0  0  0  0  0  0
    5.1350    5.7500    0.0000 H   0  0  0  0  0  0  0  0  0  0  0  0
    2.3291    5.7500    0.0000 H   0  0  0  0  0  0  0  0  0  0  0  0
    3.1951   -6.1300    0.0000 H   0  0  0  0  0  0  0  0  0  0  0  0
    6.0010   -6.1300    0.0000 H   0  0  0  0  0  0  0  0  0  0  0  0
    3.7320    8.1800    0.0000 H   0  0  0  0  0  0  0  0  0  0  0  0
    4.5981   -8.5600    0.0000 H   0  0  0  0  0  0  0  0  0  0  0  0
    2.0000    8.1800    0.0000 H   0  0  0  0  0  0  0  0  0  0  0  0
    6.3301   -8.5600    0.0000 H   0  0  0  0  0  0  0  0  0  0  0  0
    2.8660   -8.5600    0.0000 H   0  0  0  0  0  0  0  0  0  0  0  0
    6.0841    8.5600    0.0000 H   0  0  0  0  0  0  0  0  0  0  0  0
    5.4641    9.1800    0.0000 H   0  0  0  0  0  0  0  0  0  0  0  0
    4.8441    8.5600    0.0000 H   0  0  0  0  0  0  0  0  0  0  0  0
  1 25  1  0  0  0  0
  1 31  1  0  0  0  0
  2 26  1  0  0  0  0
  2 64  1  0  0  0  0
  3 28  1  0  0  0  0
  3 65  1  0  0  0  0
  4 29  1  0  0  0  0
  4 66  1  0  0  0  0
  5  6  1  0  0  0  0
  5  7  1  0  0  0  0
  5 32  1  0  0  0  0
  5 33  1  0  0  0  0
  6  8  1  0  0  0  0
  6 34  1  0  0  0  0
  6 35  1  0  0  0  0
  7  9  1  0  0  0  0
  7 36  1  0  0  0  0
  7 37  1  0  0  0  0
  8 10  1  0  0  0  0
  8 38  1  0  0  0  0
  8 39  1  0  0  0  0
  9 11  1  0  0  0  0
  9 40  1  0  0  0  0
  9 41  1  0  0  0  0
 10 17  1  0  0  0  0
 10 42  1  0  0  0  0
 10 43  1  0  0  0  0
 11 18  1  0  0  0  0
 11 44  1  0  0  0  0
 11 45  1  0  0  0  0
 12 13  1  0  0  0  0
 12 14  1  0  0  0  0
 12 46  1  0  0  0  0
 12 47  1  0  0  0  0
 13 15  1  0  0  0  0
 13 48  1  0  0  0  0
 13 49  1  0  0  0  0
 14 16  1  0  0  0  0
 14 50  1  0  0  0  0
 14 51  1  0  0  0  0
 15 19  1  0  0  0  0
 15 52  1  0  0  0  0
 15 53  1  0  0  0  0
 16 20  1  0  0  0  0
 16 54  1  0  0  0  0
 16 55  1  0  0  0  0
 17 19  2  0  0  0  0
 17 56  1  0  0  0  0
 18 21  1  0  0  0  0
 18 22  2  0  0  0  0
 19 57  1  0  0  0  0
 20 23  2  0  0  0  0
 20 24  1  0  0  0  0
 21 25  2  0  0  0  0
 21 58  1  0  0  0  0
 22 26  1  0  0  0  0
 22 59  1  0  0  0  0
 23 29  1  0  0  0  0
 23 60  1  0  0  0  0
 24 28  2  0  0  0  0
 24 61  1  0  0  0  0
 25 27  1  0  0  0  0
 26 27  2  0  0  0  0
 27 62  1  0  0  0  0
 28 30  1  0  0  0  0
 29 30  2  0  0  0  0
 30 63  1  0  0  0  0
 31 67  1  0  0  0  0
 31 68  1  0  0  0  0
 31 69  1  0  0  0  0
M  END
>  <PUBCHEM_COMPOUND_CID>
16109866

>  <PUBCHEM_COMPOUND_CANONICALIZED>
1

>  <PUBCHEM_CACTVS_COMPLEXITY>
456

>  <PUBCHEM_CACTVS_HBOND_ACCEPTOR>
4

>  <PUBCHEM_CACTVS_HBOND_DONOR>
3

>  <PUBCHEM_CACTVS_ROTATABLE_BOND>
15

>  <PUBCHEM_CACTVS_SUBSKEYS>
AAADcfB4OAAAAAAAAAAAAAAAAAAAAAAAAAAwYAAAAAAAAAABQAAAGgAACAAADASAmAIyBoAABgCAAiBCAAACCAAgIAAIiAAGCIgMJyKGMRqAcCAlwBUIuAeA4PwOAAABCAAAAAAAAAIQAAAAAAAAAAAAAA==

>  <PUBCHEM_IUPAC_OPENEYE_NAME>
5-[(Z)-14-(3-hydroxy-5-methoxy-phenyl)tetradec-6-enyl]benzene-1,3-diol

>  <PUBCHEM_IUPAC_CAS_NAME>
5-[(Z)-14-(3-hydroxy-5-methoxyphenyl)tetradec-6-enyl]benzene-1,3-diol

>  <PUBCHEM_IUPAC_NAME>
5-[(Z)-14-(3-hydroxy-5-methoxyphenyl)tetradec-6-enyl]benzene-1,3-diol

>  <PUBCHEM_IUPAC_SYSTEMATIC_NAME>
5-[(Z)-14-(3-methoxy-5-oxidanyl-phenyl)tetradec-6-enyl]benzene-1,3-diol

>  <PUBCHEM_IUPAC_TRADITIONAL_NAME>
5-[(Z)-14-(3-hydroxy-5-methoxy-phenyl)tetradec-6-enyl]resorcinol

>  <PUBCHEM_IUPAC_INCHI>
InChI=1S/C27H38O4/c1-31-27-19-23(18-26(30)21-27)15-13-11-9-7-5-3-2-4-6-8-10-12-14-22-16-24(28)20-25(29)17-22/h2,4,16-21,28-30H,3,5-15H2,1H3/b4-2-

>  <PUBCHEM_IUPAC_INCHIKEY>
VYFXHPXTNRHEPV-RQOWECAXSA-N

>  <PUBCHEM_XLOGP3_AA>
8.6

>  <PUBCHEM_EXACT_MASS>
426.277

>  <PUBCHEM_MOLECULAR_FORMULA>
C27H38O4

>  <PUBCHEM_MOLECULAR_WEIGHT>
426.597

>  <PUBCHEM_OPENEYE_CAN_SMILES>
COC1=CC(=CC(=C1)O)CCCCCCCC=CCCCCCC2=CC(=CC(=C2)O)O

>  <PUBCHEM_OPENEYE_ISO_SMILES>
COC1=CC(=CC(=C1)O)CCCCCCC/C=C\CCCCCC2=CC(=CC(=C2)O)O

>  <PUBCHEM_CACTVS_TPSA>
69.9

>  <PUBCHEM_MONOISOTOPIC_WEIGHT>
426.277

>  <PUBCHEM_TOTAL_CHARGE>
0

>  <PUBCHEM_HEAVY_ATOM_COUNT>
31

>  <PUBCHEM_ATOM_DEF_STEREO_COUNT>
0

>  <PUBCHEM_ATOM_UDEF_STEREO_COUNT>
0

>  <PUBCHEM_BOND_DEF_STEREO_COUNT>
1

>  <PUBCHEM_BOND_UDEF_STEREO_COUNT>
0

>  <PUBCHEM_ISOTOPIC_ATOM_COUNT>
0

>  <PUBCHEM_COMPONENT_COUNT>
1

>  <PUBCHEM_CACTVS_TAUTO_COUNT>
90

>  <PUBCHEM_COORDINATE_TYPE>
1
5
255

>  <PUBCHEM_BONDANNOTATIONS>
18  21  8
18  22  8
20  23  8
20  24  8
21  25  8
22  26  8
23  29  8
24  28  8
25  27  8
26  27  8
28  30  8
29  30  8

$$$$
