16102148
 OpenBabel06101807152D

 22 23  0  0  0  0  0  0  0  0999 V2000
    6.9459    1.6147    0.0000 S   0  0  0  0  0  0  0  0  0  0  0  0
    2.8660    1.4470    0.0000 O   0  0  0  0  0  0  0  0  0  0  0  0
    4.6783   -1.3577    0.0000 N   0  0  0  0  0  0  0  0  0  0  0  0
    4.9889    1.2023    0.0000 N   0  0  0  0  0  0  0  0  0  0  0  0
    3.7320   -0.0530    0.0000 C   0  0  0  0  0  0  0  0  0  0  0  0
    3.7320   -1.0530    0.0000 C   0  0  0  0  0  0  0  0  0  0  0  0
    2.8660    0.4470    0.0000 C   0  0  0  0  0  0  0  0  0  0  0  0
    4.6783    0.2518    0.0000 C   0  0  0  0  0  0  0  0  0  0  0  0
    2.8660   -1.5530    0.0000 C   0  0  0  0  0  0  0  0  0  0  0  0
    5.2619   -0.5530    0.0000 C   0  0  0  0  0  0  0  0  0  0  0  0
    2.0000   -0.0530    0.0000 C   0  0  0  0  0  0  0  0  0  0  0  0
    2.0000   -1.0530    0.0000 C   0  0  0  0  0  0  0  0  0  0  0  0
    2.0000    1.9470    0.0000 C   0  0  0  0  0  0  0  0  0  0  0  0
    5.9674    1.4085    0.0000 C   0  0  0  0  0  0  0  0  0  0  0  0
    4.8709   -1.9470    0.0000 H   0  0  0  0  0  0  0  0  0  0  0  0
    2.8660   -2.1730    0.0000 H   0  0  0  0  0  0  0  0  0  0  0  0
    5.8819   -0.5530    0.0000 H   0  0  0  0  0  0  0  0  0  0  0  0
    1.4631    0.2570    0.0000 H   0  0  0  0  0  0  0  0  0  0  0  0
    1.4631   -1.3630    0.0000 H   0  0  0  0  0  0  0  0  0  0  0  0
    2.3100    2.4840    0.0000 H   0  0  0  0  0  0  0  0  0  0  0  0
    1.4631    2.2570    0.0000 H   0  0  0  0  0  0  0  0  0  0  0  0
    1.6900    1.4101    0.0000 H   0  0  0  0  0  0  0  0  0  0  0  0
  1 14  2  0  0  0  0
  2  7  1  0  0  0  0
  2 13  1  0  0  0  0
  3  6  1  0  0  0  0
  3 10  1  0  0  0  0
  3 15  1  0  0  0  0
  4  8  1  0  0  0  0
  4 14  2  0  0  0  0
  5  6  2  0  0  0  0
  5  7  1  0  0  0  0
  5  8  1  0  0  0  0
  6  9  1  0  0  0  0
  7 11  2  0  0  0  0
  8 10  2  0  0  0  0
  9 12  2  0  0  0  0
  9 16  1  0  0  0  0
 10 17  1  0  0  0  0
 11 12  1  0  0  0  0
 11 18  1  0  0  0  0
 12 19  1  0  0  0  0
 13 20  1  0  0  0  0
 13 21  1  0  0  0  0
 13 22  1  0  0  0  0
M  END
>  <PUBCHEM_COMPOUND_CID>
16102148

>  <PUBCHEM_COMPOUND_CANONICALIZED>
1

>  <PUBCHEM_CACTVS_COMPLEXITY>
253

>  <PUBCHEM_CACTVS_HBOND_ACCEPTOR>
3

>  <PUBCHEM_CACTVS_HBOND_DONOR>
1

>  <PUBCHEM_CACTVS_ROTATABLE_BOND>
2

>  <PUBCHEM_CACTVS_SUBSKEYS>
AAADccBzIABAAAAAAAAAAAAAAAAAAWAAAAAwAAAAAAAAAFgB8AAAHgQQAAAADAzBngY+xvLJlACkAzRnRACCiCAxMiAI2aA+fJgMZuLE8duUNChm0BnI6Aew0KMOAAAAAgAKAAAAAAAEABQAAAAAAAAAAA==

>  <PUBCHEM_IUPAC_OPENEYE_NAME>
3-isothiocyanato-4-methoxy-1H-indole

>  <PUBCHEM_IUPAC_CAS_NAME>
3-isothiocyanato-4-methoxy-1H-indole

>  <PUBCHEM_IUPAC_NAME>
3-isothiocyanato-4-methoxy-1H-indole

>  <PUBCHEM_IUPAC_SYSTEMATIC_NAME>
3-isothiocyanato-4-methoxy-1H-indole

>  <PUBCHEM_IUPAC_TRADITIONAL_NAME>
3-isothiocyanato-4-methoxy-1H-indole

>  <PUBCHEM_IUPAC_INCHI>
InChI=1S/C10H8N2OS/c1-13-9-4-2-3-7-10(9)8(5-11-7)12-6-14/h2-5,11H,1H3

>  <PUBCHEM_IUPAC_INCHIKEY>
DJDFPSQNQFBWJR-UHFFFAOYSA-N

>  <PUBCHEM_XLOGP3_AA>
3.4

>  <PUBCHEM_EXACT_MASS>
204.036

>  <PUBCHEM_MOLECULAR_FORMULA>
C10H8N2OS

>  <PUBCHEM_MOLECULAR_WEIGHT>
204.247

>  <PUBCHEM_OPENEYE_CAN_SMILES>
COC1=CC=CC2=C1C(=CN2)N=C=S

>  <PUBCHEM_OPENEYE_ISO_SMILES>
COC1=CC=CC2=C1C(=CN2)N=C=S

>  <PUBCHEM_CACTVS_TPSA>
69.5

>  <PUBCHEM_MONOISOTOPIC_WEIGHT>
204.036

>  <PUBCHEM_TOTAL_CHARGE>
0

>  <PUBCHEM_HEAVY_ATOM_COUNT>
14

>  <PUBCHEM_ATOM_DEF_STEREO_COUNT>
0

>  <PUBCHEM_ATOM_UDEF_STEREO_COUNT>
0

>  <PUBCHEM_BOND_DEF_STEREO_COUNT>
0

>  <PUBCHEM_BOND_UDEF_STEREO_COUNT>
0

>  <PUBCHEM_ISOTOPIC_ATOM_COUNT>
0

>  <PUBCHEM_COMPONENT_COUNT>
1

>  <PUBCHEM_CACTVS_TAUTO_COUNT>
1

>  <PUBCHEM_COORDINATE_TYPE>
1
5
255

>  <PUBCHEM_BONDANNOTATIONS>
11  12  8
3  10  8
3  6  8
5  6  8
5  7  8
5  8  8
6  9  8
7  11  8
8  10  8
9  12  8

$$$$
