16109859
 OpenBabel06101807152D

 40 43  0  0  0  0  0  0  0  0999 V2000
    5.5674    0.1380    0.0000 O   0  0  0  0  0  0  0  0  0  0  0  0
    2.7436   -3.1364    0.0000 O   0  0  0  0  0  0  0  0  0  0  0  0
    3.5430    1.1129    0.0000 O   0  0  0  0  0  0  0  0  0  0  0  0
    5.6662   -1.7567    0.0000 O   0  0  0  0  0  0  0  0  0  0  0  0
    4.4841   -3.6447    0.0000 O   0  0  0  0  0  0  0  0  0  0  0  0
    8.1996    2.3642    0.0000 O   0  0  0  0  0  0  0  0  0  0  0  0
    3.7326    2.7957    0.0000 O   0  0  0  0  0  0  0  0  0  0  0  0
    8.4271    0.6009    0.0000 O   0  0  0  0  0  0  0  0  0  0  0  0
    2.9657   -1.4747    0.0000 C   0  0  0  0  0  0  0  0  0  0  0  0
    2.8959   -0.4354    0.0000 C   0  0  0  0  0  0  0  0  0  0  0  0
    3.9042   -1.9267    0.0000 C   0  0  0  0  0  0  0  0  0  0  0  0
    3.7655    0.1380    0.0000 C   0  0  0  0  0  0  0  0  0  0  0  0
    4.6664   -0.2959    0.0000 C   0  0  0  0  0  0  0  0  0  0  0  0
    2.2521   -2.2250    0.0000 C   0  0  0  0  0  0  0  0  0  0  0  0
    4.7603   -1.3333    0.0000 C   0  0  0  0  0  0  0  0  0  0  0  0
    5.7899    1.1129    0.0000 C   0  0  0  0  0  0  0  0  0  0  0  0
    5.1664    1.8948    0.0000 C   0  0  0  0  0  0  0  0  0  0  0  0
    6.8222    1.2523    0.0000 C   0  0  0  0  0  0  0  0  0  0  0  0
    3.7625   -2.9524    0.0000 C   0  0  0  0  0  0  0  0  0  0  0  0
    5.5320    2.8701    0.0000 C   0  0  0  0  0  0  0  0  0  0  0  0
    2.0000    0.0088    0.0000 C   0  0  0  0  0  0  0  0  0  0  0  0
    4.1664    1.8948    0.0000 C   0  0  0  0  0  0  0  0  0  0  0  0
    7.2102    2.2189    0.0000 C   0  0  0  0  0  0  0  0  0  0  0  0
    6.5608    3.0333    0.0000 C   0  0  0  0  0  0  0  0  0  0  0  0
    7.4366    0.4633    0.0000 C   0  0  0  0  0  0  0  0  0  0  0  0
    4.8995    3.6447    0.0000 C   0  0  0  0  0  0  0  0  0  0  0  0
    1.8502   -1.7529    0.0000 H   0  0  0  0  0  0  0  0  0  0  0  0
    1.7403   -2.5750    0.0000 H   0  0  0  0  0  0  0  0  0  0  0  0
    2.2755    0.5643    0.0000 H   0  0  0  0  0  0  0  0  0  0  0  0
    1.4446    0.2843    0.0000 H   0  0  0  0  0  0  0  0  0  0  0  0
    1.7246   -0.5466    0.0000 H   0  0  0  0  0  0  0  0  0  0  0  0
    6.7850    3.6113    0.0000 H   0  0  0  0  0  0  0  0  0  0  0  0
    6.8887    0.1731    0.0000 H   0  0  0  0  0  0  0  0  0  0  0  0
    7.6273   -0.1267    0.0000 H   0  0  0  0  0  0  0  0  0  0  0  0
    5.3797    4.0368    0.0000 H   0  0  0  0  0  0  0  0  0  0  0  0
    4.5074    4.1249    0.0000 H   0  0  0  0  0  0  0  0  0  0  0  0
    4.4193    3.2526    0.0000 H   0  0  0  0  0  0  0  0  0  0  0  0
    5.7197   -2.3744    0.0000 H   0  0  0  0  0  0  0  0  0  0  0  0
    8.4283    2.9404    0.0000 H   0  0  0  0  0  0  0  0  0  0  0  0
    8.8080    0.1117    0.0000 H   0  0  0  0  0  0  0  0  0  0  0  0
  1 13  1  0  0  0  0
  1 16  1  0  0  0  0
  2 14  1  0  0  0  0
  2 19  1  0  0  0  0
  3 12  1  0  0  0  0
  3 22  1  0  0  0  0
  4 15  1  0  0  0  0
  4 38  1  0  0  0  0
  5 19  2  0  0  0  0
  6 23  1  0  0  0  0
  6 39  1  0  0  0  0
  7 22  2  0  0  0  0
  8 25  1  0  0  0  0
  8 40  1  0  0  0  0
  9 10  2  0  0  0  0
  9 11  1  0  0  0  0
  9 14  1  0  0  0  0
 10 12  1  0  0  0  0
 10 21  1  0  0  0  0
 11 15  2  0  0  0  0
 11 19  1  0  0  0  0
 12 13  2  0  0  0  0
 13 15  1  0  0  0  0
 14 27  1  0  0  0  0
 14 28  1  0  0  0  0
 16 17  2  0  0  0  0
 16 18  1  0  0  0  0
 17 20  1  0  0  0  0
 17 22  1  0  0  0  0
 18 23  2  0  0  0  0
 18 25  1  0  0  0  0
 20 24  2  0  0  0  0
 20 26  1  0  0  0  0
 21 29  1  0  0  0  0
 21 30  1  0  0  0  0
 21 31  1  0  0  0  0
 23 24  1  0  0  0  0
 24 32  1  0  0  0  0
 25 33  1  0  0  0  0
 25 34  1  0  0  0  0
 26 35  1  0  0  0  0
 26 36  1  0  0  0  0
 26 37  1  0  0  0  0
M  END
>  <PUBCHEM_COMPOUND_CID>
16109859

>  <PUBCHEM_COMPOUND_CANONICALIZED>
1

>  <PUBCHEM_CACTVS_COMPLEXITY>
594

>  <PUBCHEM_CACTVS_HBOND_ACCEPTOR>
8

>  <PUBCHEM_CACTVS_HBOND_DONOR>
3

>  <PUBCHEM_CACTVS_ROTATABLE_BOND>
1

>  <PUBCHEM_CACTVS_SUBSKEYS>
AAADccB4PAAAAAAAAAAAAAAAAAAAASAAAAAwYAAABIAAAEgBQAAAGgAACAAADASgmAIyDoAABgCIAiDSCAACCAAkIAAAiAEGiMgNNzaGNRqCe2Ol4BULuQfK7PzO4AADCAAYQADAAAYQADCAAAAAAAAAAA==

>  <PUBCHEM_IUPAC_INCHI>
InChI=1S/C18H14O8/c1-6-3-10(20)8(4-19)15-11(6)18(23)26-14-7(2)9-5-24-17(22)12(9)13(21)16(14)25-15/h3,19-21H,4-5H2,1-2H3

>  <PUBCHEM_IUPAC_INCHIKEY>
FXSNMBKDCKMTHJ-UHFFFAOYSA-N

>  <PUBCHEM_XLOGP3_AA>
2.6

>  <PUBCHEM_EXACT_MASS>
358.069

>  <PUBCHEM_MOLECULAR_FORMULA>
C18H14O8

>  <PUBCHEM_MOLECULAR_WEIGHT>
358.302

>  <PUBCHEM_OPENEYE_CAN_SMILES>
CC1=CC(=C(C2=C1C(=O)OC3=C(C4=C(C(=C3O2)O)C(=O)OC4)C)CO)O

>  <PUBCHEM_OPENEYE_ISO_SMILES>
CC1=CC(=C(C2=C1C(=O)OC3=C(C4=C(C(=C3O2)O)C(=O)OC4)C)CO)O

>  <PUBCHEM_CACTVS_TPSA>
123

>  <PUBCHEM_MONOISOTOPIC_WEIGHT>
358.069

>  <PUBCHEM_TOTAL_CHARGE>
0

>  <PUBCHEM_HEAVY_ATOM_COUNT>
26

>  <PUBCHEM_ATOM_DEF_STEREO_COUNT>
0

>  <PUBCHEM_ATOM_UDEF_STEREO_COUNT>
0

>  <PUBCHEM_BOND_DEF_STEREO_COUNT>
0

>  <PUBCHEM_BOND_UDEF_STEREO_COUNT>
0

>  <PUBCHEM_ISOTOPIC_ATOM_COUNT>
0

>  <PUBCHEM_COMPONENT_COUNT>
1

>  <PUBCHEM_CACTVS_TAUTO_COUNT>
36

>  <PUBCHEM_COORDINATE_TYPE>
1
5
255

>  <PUBCHEM_BONDANNOTATIONS>
10  12  8
11  15  8
12  13  8
13  15  8
16  17  8
16  18  8
17  20  8
18  23  8
20  24  8
23  24  8
9  10  8
9  11  8

$$$$
