161271
 OpenBabel06101807152D

 40 42  0  0  0  0  0  0  0  0999 V2000
    6.3580   -0.9226    0.0000 O   0  0  0  0  0  0  0  0  0  0  0  0
    2.8660    1.1121    0.0000 O   0  0  0  0  0  0  0  0  0  0  0  0
    2.8660   -0.8879    0.0000 O   0  0  0  0  0  0  0  0  0  0  0  0
    4.5981    2.1121    0.0000 O   0  0  0  0  0  0  0  0  0  0  0  0
    6.3465    2.1467    0.0000 O   0  0  0  0  0  0  0  0  0  0  0  0
   10.7205   -2.4221    0.0000 O   0  0  0  0  0  0  0  0  0  0  0  0
    5.4641    0.6121    0.0000 C   0  0  0  0  0  0  0  0  0  0  0  0
    5.4641   -0.3879    0.0000 C   0  0  0  0  0  0  0  0  0  0  0  0
    7.2641   -0.4087    0.0000 C   0  0  0  0  0  0  0  0  0  0  0  0
    4.5981    1.1121    0.0000 C   0  0  0  0  0  0  0  0  0  0  0  0
    6.3580    1.1467    0.0000 C   0  0  0  0  0  0  0  0  0  0  0  0
    4.5981   -0.8879    0.0000 C   0  0  0  0  0  0  0  0  0  0  0  0
    3.7320    0.6121    0.0000 C   0  0  0  0  0  0  0  0  0  0  0  0
    8.1282   -0.9121    0.0000 C   0  0  0  0  0  0  0  0  0  0  0  0
    3.7320   -0.3879    0.0000 C   0  0  0  0  0  0  0  0  0  0  0  0
    7.2641    0.6329    0.0000 C   0  0  0  0  0  0  0  0  0  0  0  0
    8.1244   -1.9121    0.0000 C   0  0  0  0  0  0  0  0  0  0  0  0
    8.9962   -0.4154    0.0000 C   0  0  0  0  0  0  0  0  0  0  0  0
    8.9884   -2.4154    0.0000 C   0  0  0  0  0  0  0  0  0  0  0  0
    9.8602   -0.9188    0.0000 C   0  0  0  0  0  0  0  0  0  0  0  0
    9.8564   -1.9187    0.0000 C   0  0  0  0  0  0  0  0  0  0  0  0
    2.0000    0.6121    0.0000 C   0  0  0  0  0  0  0  0  0  0  0  0
    2.8660   -1.8879    0.0000 C   0  0  0  0  0  0  0  0  0  0  0  0
   11.5884   -1.9254    0.0000 C   0  0  0  0  0  0  0  0  0  0  0  0
    4.5981   -1.5079    0.0000 H   0  0  0  0  0  0  0  0  0  0  0  0
    7.7998    0.9450    0.0000 H   0  0  0  0  0  0  0  0  0  0  0  0
    7.5862   -2.2200    0.0000 H   0  0  0  0  0  0  0  0  0  0  0  0
    8.9985    0.2046    0.0000 H   0  0  0  0  0  0  0  0  0  0  0  0
    8.9860   -3.0354    0.0000 H   0  0  0  0  0  0  0  0  0  0  0  0
   10.3984   -0.6108    0.0000 H   0  0  0  0  0  0  0  0  0  0  0  0
    4.0611    2.4221    0.0000 H   0  0  0  0  0  0  0  0  0  0  0  0
    1.6900    1.1490    0.0000 H   0  0  0  0  0  0  0  0  0  0  0  0
    1.4631    0.3021    0.0000 H   0  0  0  0  0  0  0  0  0  0  0  0
    2.3100    0.0751    0.0000 H   0  0  0  0  0  0  0  0  0  0  0  0
    2.2460   -1.8879    0.0000 H   0  0  0  0  0  0  0  0  0  0  0  0
    2.8660   -2.5079    0.0000 H   0  0  0  0  0  0  0  0  0  0  0  0
    3.4860   -1.8879    0.0000 H   0  0  0  0  0  0  0  0  0  0  0  0
   11.8964   -2.4636    0.0000 H   0  0  0  0  0  0  0  0  0  0  0  0
   12.1266   -1.6175    0.0000 H   0  0  0  0  0  0  0  0  0  0  0  0
   11.2805   -1.3873    0.0000 H   0  0  0  0  0  0  0  0  0  0  0  0
  1  8  1  0  0  0  0
  1  9  1  0  0  0  0
  2 13  1  0  0  0  0
  2 22  1  0  0  0  0
  3 15  1  0  0  0  0
  3 23  1  0  0  0  0
  4 10  1  0  0  0  0
  4 31  1  0  0  0  0
  5 11  2  0  0  0  0
  6 21  1  0  0  0  0
  6 24  1  0  0  0  0
  7  8  1  0  0  0  0
  7 10  2  0  0  0  0
  7 11  1  0  0  0  0
  8 12  2  0  0  0  0
  9 14  1  0  0  0  0
  9 16  2  0  0  0  0
 10 13  1  0  0  0  0
 11 16  1  0  0  0  0
 12 15  1  0  0  0  0
 12 25  1  0  0  0  0
 13 15  2  0  0  0  0
 14 17  2  0  0  0  0
 14 18  1  0  0  0  0
 16 26  1  0  0  0  0
 17 19  1  0  0  0  0
 17 27  1  0  0  0  0
 18 20  2  0  0  0  0
 18 28  1  0  0  0  0
 19 21  2  0  0  0  0
 19 29  1  0  0  0  0
 20 21  1  0  0  0  0
 20 30  1  0  0  0  0
 22 32  1  0  0  0  0
 22 33  1  0  0  0  0
 22 34  1  0  0  0  0
 23 35  1  0  0  0  0
 23 36  1  0  0  0  0
 23 37  1  0  0  0  0
 24 38  1  0  0  0  0
 24 39  1  0  0  0  0
 24 40  1  0  0  0  0
M  END
>  <PUBCHEM_COMPOUND_CID>
161271

>  <PUBCHEM_COMPOUND_CANONICALIZED>
1

>  <PUBCHEM_CACTVS_COMPLEXITY>
482

>  <PUBCHEM_CACTVS_HBOND_ACCEPTOR>
6

>  <PUBCHEM_CACTVS_HBOND_DONOR>
1

>  <PUBCHEM_CACTVS_ROTATABLE_BOND>
4

>  <PUBCHEM_CACTVS_SUBSKEYS>
AAADceB4OAAAAAAAAAAAAAAAAAAAAAAAAAAwYIAAAAAAAACBQAAAGgAACAAADASAmAIyBoAABgCIAqBSAAACCAAkIAAIiAEGiMgNJzaGNRqCeWOl4BULuQfK7LzOIQABCAAIQABCAAIQABCAAAAAAAAAAA==

>  <PUBCHEM_IUPAC_OPENEYE_NAME>
5-hydroxy-6,7-dimethoxy-2-(4-methoxyphenyl)chromen-4-one

>  <PUBCHEM_IUPAC_CAS_NAME>
5-hydroxy-6,7-dimethoxy-2-(4-methoxyphenyl)-1-benzopyran-4-one

>  <PUBCHEM_IUPAC_NAME>
5-hydroxy-6,7-dimethoxy-2-(4-methoxyphenyl)chromen-4-one

>  <PUBCHEM_IUPAC_SYSTEMATIC_NAME>
6,7-dimethoxy-2-(4-methoxyphenyl)-5-oxidanyl-chromen-4-one

>  <PUBCHEM_IUPAC_TRADITIONAL_NAME>
5-hydroxy-6,7-dimethoxy-2-(4-methoxyphenyl)chromone

>  <PUBCHEM_IUPAC_INCHI>
InChI=1S/C18H16O6/c1-21-11-6-4-10(5-7-11)13-8-12(19)16-14(24-13)9-15(22-2)18(23-3)17(16)20/h4-9,20H,1-3H3

>  <PUBCHEM_IUPAC_INCHIKEY>
QCDYOIZVELGOLZ-UHFFFAOYSA-N

>  <PUBCHEM_XLOGP3>
2.4

>  <PUBCHEM_EXACT_MASS>
328.095

>  <PUBCHEM_MOLECULAR_FORMULA>
C18H16O6

>  <PUBCHEM_MOLECULAR_WEIGHT>
328.32

>  <PUBCHEM_OPENEYE_CAN_SMILES>
COC1=CC=C(C=C1)C2=CC(=O)C3=C(C(=C(C=C3O2)OC)OC)O

>  <PUBCHEM_OPENEYE_ISO_SMILES>
COC1=CC=C(C=C1)C2=CC(=O)C3=C(C(=C(C=C3O2)OC)OC)O

>  <PUBCHEM_CACTVS_TPSA>
74.2

>  <PUBCHEM_MONOISOTOPIC_WEIGHT>
328.095

>  <PUBCHEM_TOTAL_CHARGE>
0

>  <PUBCHEM_HEAVY_ATOM_COUNT>
24

>  <PUBCHEM_ATOM_DEF_STEREO_COUNT>
0

>  <PUBCHEM_ATOM_UDEF_STEREO_COUNT>
0

>  <PUBCHEM_BOND_DEF_STEREO_COUNT>
0

>  <PUBCHEM_BOND_UDEF_STEREO_COUNT>
0

>  <PUBCHEM_ISOTOPIC_ATOM_COUNT>
0

>  <PUBCHEM_COMPONENT_COUNT>
1

>  <PUBCHEM_CACTVS_TAUTO_COUNT>
5

>  <PUBCHEM_COORDINATE_TYPE>
1
5
255

>  <PUBCHEM_BONDANNOTATIONS>
1  8  8
1  9  8
10  13  8
11  16  8
12  15  8
13  15  8
14  17  8
14  18  8
17  19  8
18  20  8
19  21  8
20  21  8
7  10  8
7  11  8
7  8  8
8  12  8
9  16  8

$$$$
