16141385
 OpenBabel06101807152D

106115  0  0  0  0  0  0  0  0999 V2000
   10.5181    0.6953    0.0000 O   0  0  0  0  0  0  0  0  0  0  0  0
    6.8936   -0.6953    0.0000 O   0  0  0  0  0  0  0  0  0  0  0  0
    6.9738    0.5000    0.0000 O   0  0  0  0  0  0  0  0  0  0  0  0
   10.4379   -0.5000    0.0000 O   0  0  0  0  0  0  0  0  0  0  0  0
    9.8037    5.6944    0.0000 O   0  0  0  0  0  0  0  0  0  0  0  0
    7.6080   -5.6944    0.0000 O   0  0  0  0  0  0  0  0  0  0  0  0
   13.0964    4.6182    0.0000 O   0  0  0  0  0  0  0  0  0  0  0  0
    4.3153   -4.6182    0.0000 O   0  0  0  0  0  0  0  0  0  0  0  0
   15.1017    1.5000    0.0000 O   0  0  0  0  0  0  0  0  0  0  0  0
    2.3100   -1.5000    0.0000 O   0  0  0  0  0  0  0  0  0  0  0  0
    7.8398    8.0000    0.0000 O   0  0  0  0  0  0  0  0  0  0  0  0
    9.5719   -8.0000    0.0000 O   0  0  0  0  0  0  0  0  0  0  0  0
    8.7058    0.5000    0.0000 C   0  0  0  0  0  0  0  0  0  0  0  0
    8.7058   -0.5000    0.0000 C   0  0  0  0  0  0  0  0  0  0  0  0
    9.5719    1.0000    0.0000 C   0  0  0  0  0  0  0  0  0  0  0  0
    7.8398   -1.0000    0.0000 C   0  0  0  0  0  0  0  0  0  0  0  0
    7.8398   -2.0000    0.0000 C   0  0  0  0  0  0  0  0  0  0  0  0
    9.5719    2.0000    0.0000 C   0  0  0  0  0  0  0  0  0  0  0  0
   10.5181    2.3047    0.0000 C   0  0  0  0  0  0  0  0  0  0  0  0
    6.8936   -2.3047    0.0000 C   0  0  0  0  0  0  0  0  0  0  0  0
    8.7058    2.5000    0.0000 C   0  0  0  0  0  0  0  0  0  0  0  0
    8.7058   -2.5000    0.0000 C   0  0  0  0  0  0  0  0  0  0  0  0
    6.3100   -1.5000    0.0000 C   0  0  0  0  0  0  0  0  0  0  0  0
   11.1017    1.5000    0.0000 C   0  0  0  0  0  0  0  0  0  0  0  0
    7.8398    1.0000    0.0000 C   0  0  0  0  0  0  0  0  0  0  0  0
    9.5719   -1.0000    0.0000 C   0  0  0  0  0  0  0  0  0  0  0  0
    9.5719   -2.0000    0.0000 C   0  0  0  0  0  0  0  0  0  0  0  0
    7.8398    2.0000    0.0000 C   0  0  0  0  0  0  0  0  0  0  0  0
    6.5830   -3.2553    0.0000 C   0  0  0  0  0  0  0  0  0  0  0  0
   10.8288    3.2553    0.0000 C   0  0  0  0  0  0  0  0  0  0  0  0
    5.3100   -1.5000    0.0000 C   0  0  0  0  0  0  0  0  0  0  0  0
   12.1017    1.5000    0.0000 C   0  0  0  0  0  0  0  0  0  0  0  0
    8.7058    3.5000    0.0000 C   0  0  0  0  0  0  0  0  0  0  0  0
    8.7058   -3.5000    0.0000 C   0  0  0  0  0  0  0  0  0  0  0  0
    5.6044   -3.4615    0.0000 C   0  0  0  0  0  0  0  0  0  0  0  0
   11.8073    3.4615    0.0000 C   0  0  0  0  0  0  0  0  0  0  0  0
    7.2508   -3.9996    0.0000 C   0  0  0  0  0  0  0  0  0  0  0  0
   10.1609    3.9996    0.0000 C   0  0  0  0  0  0  0  0  0  0  0  0
   12.6017    0.6340    0.0000 C   0  0  0  0  0  0  0  0  0  0  0  0
    4.8100   -0.6340    0.0000 C   0  0  0  0  0  0  0  0  0  0  0  0
   12.6017    2.3660    0.0000 C   0  0  0  0  0  0  0  0  0  0  0  0
    4.8100   -2.3660    0.0000 C   0  0  0  0  0  0  0  0  0  0  0  0
    9.5719   -4.0000    0.0000 C   0  0  0  0  0  0  0  0  0  0  0  0
    7.8398    4.0000    0.0000 C   0  0  0  0  0  0  0  0  0  0  0  0
   10.4716    4.9501    0.0000 C   0  0  0  0  0  0  0  0  0  0  0  0
    6.9401   -4.9501    0.0000 C   0  0  0  0  0  0  0  0  0  0  0  0
   12.1179    4.4120    0.0000 C   0  0  0  0  0  0  0  0  0  0  0  0
    5.2938   -4.4120    0.0000 C   0  0  0  0  0  0  0  0  0  0  0  0
    5.9616   -5.1563    0.0000 C   0  0  0  0  0  0  0  0  0  0  0  0
   11.4501    5.1563    0.0000 C   0  0  0  0  0  0  0  0  0  0  0  0
    3.8100   -0.6340    0.0000 C   0  0  0  0  0  0  0  0  0  0  0  0
   13.6017    0.6340    0.0000 C   0  0  0  0  0  0  0  0  0  0  0  0
    3.8100   -2.3660    0.0000 C   0  0  0  0  0  0  0  0  0  0  0  0
   13.6017    2.3660    0.0000 C   0  0  0  0  0  0  0  0  0  0  0  0
   14.1017    1.5000    0.0000 C   0  0  0  0  0  0  0  0  0  0  0  0
    3.3100   -1.5000    0.0000 C   0  0  0  0  0  0  0  0  0  0  0  0
    9.5719   -5.0000    0.0000 C   0  0  0  0  0  0  0  0  0  0  0  0
    7.8398    5.0000    0.0000 C   0  0  0  0  0  0  0  0  0  0  0  0
    8.7058    5.5000    0.0000 C   0  0  0  0  0  0  0  0  0  0  0  0
    8.7058   -5.5000    0.0000 C   0  0  0  0  0  0  0  0  0  0  0  0
    6.9738    5.5000    0.0000 C   0  0  0  0  0  0  0  0  0  0  0  0
   10.4379   -5.5000    0.0000 C   0  0  0  0  0  0  0  0  0  0  0  0
    8.7058   -6.5000    0.0000 C   0  0  0  0  0  0  0  0  0  0  0  0
    8.7058    6.5000    0.0000 C   0  0  0  0  0  0  0  0  0  0  0  0
   10.4379   -6.5000    0.0000 C   0  0  0  0  0  0  0  0  0  0  0  0
    6.9738    6.5000    0.0000 C   0  0  0  0  0  0  0  0  0  0  0  0
    7.8398    7.0000    0.0000 C   0  0  0  0  0  0  0  0  0  0  0  0
    9.5719   -7.0000    0.0000 C   0  0  0  0  0  0  0  0  0  0  0  0
    7.3029    2.3100    0.0000 H   0  0  0  0  0  0  0  0  0  0  0  0
   10.1088   -2.3100    0.0000 H   0  0  0  0  0  0  0  0  0  0  0  0
    8.1689   -3.8100    0.0000 H   0  0  0  0  0  0  0  0  0  0  0  0
    9.2428    3.8100    0.0000 H   0  0  0  0  0  0  0  0  0  0  0  0
   12.2213    3.0000    0.0000 H   0  0  0  0  0  0  0  0  0  0  0  0
    5.1904   -3.0000    0.0000 H   0  0  0  0  0  0  0  0  0  0  0  0
    9.5542    3.8717    0.0000 H   0  0  0  0  0  0  0  0  0  0  0  0
    7.8575   -3.8717    0.0000 H   0  0  0  0  0  0  0  0  0  0  0  0
   12.2917    0.0970    0.0000 H   0  0  0  0  0  0  0  0  0  0  0  0
    5.1200   -0.0970    0.0000 H   0  0  0  0  0  0  0  0  0  0  0  0
   12.2917    2.9030    0.0000 H   0  0  0  0  0  0  0  0  0  0  0  0
    5.1200   -2.9030    0.0000 H   0  0  0  0  0  0  0  0  0  0  0  0
    6.4369    0.8100    0.0000 H   0  0  0  0  0  0  0  0  0  0  0  0
   10.9748   -0.8100    0.0000 H   0  0  0  0  0  0  0  0  0  0  0  0
    7.3029    3.6900    0.0000 H   0  0  0  0  0  0  0  0  0  0  0  0
   10.1088   -3.6900    0.0000 H   0  0  0  0  0  0  0  0  0  0  0  0
   11.6427    5.7456    0.0000 H   0  0  0  0  0  0  0  0  0  0  0  0
    5.7690   -5.7456    0.0000 H   0  0  0  0  0  0  0  0  0  0  0  0
   13.9117    0.0970    0.0000 H   0  0  0  0  0  0  0  0  0  0  0  0
    3.5000   -0.0970    0.0000 H   0  0  0  0  0  0  0  0  0  0  0  0
   13.9117    2.9030    0.0000 H   0  0  0  0  0  0  0  0  0  0  0  0
    3.5000   -2.9030    0.0000 H   0  0  0  0  0  0  0  0  0  0  0  0
    8.1689   -5.1900    0.0000 H   0  0  0  0  0  0  0  0  0  0  0  0
    9.2428    5.1900    0.0000 H   0  0  0  0  0  0  0  0  0  0  0  0
   10.9748   -5.1900    0.0000 H   0  0  0  0  0  0  0  0  0  0  0  0
    6.4369    5.1900    0.0000 H   0  0  0  0  0  0  0  0  0  0  0  0
    9.9964    6.2837    0.0000 H   0  0  0  0  0  0  0  0  0  0  0  0
    7.4154   -6.2837    0.0000 H   0  0  0  0  0  0  0  0  0  0  0  0
   13.2890    5.2075    0.0000 H   0  0  0  0  0  0  0  0  0  0  0  0
    4.1227   -5.2075    0.0000 H   0  0  0  0  0  0  0  0  0  0  0  0
   15.4117    0.9631    0.0000 H   0  0  0  0  0  0  0  0  0  0  0  0
    2.0000   -0.9631    0.0000 H   0  0  0  0  0  0  0  0  0  0  0  0
    9.2428    6.8100    0.0000 H   0  0  0  0  0  0  0  0  0  0  0  0
    8.1689   -6.8100    0.0000 H   0  0  0  0  0  0  0  0  0  0  0  0
    6.4369    6.8100    0.0000 H   0  0  0  0  0  0  0  0  0  0  0  0
   10.9748   -6.8100    0.0000 H   0  0  0  0  0  0  0  0  0  0  0  0
    7.3029    8.3100    0.0000 H   0  0  0  0  0  0  0  0  0  0  0  0
   10.1088   -8.3100    0.0000 H   0  0  0  0  0  0  0  0  0  0  0  0
  1 15  1  0  0  0  0
  1 24  1  0  0  0  0
  2 16  1  0  0  0  0
  2 23  1  0  0  0  0
  3 25  1  0  0  0  0
  3 81  1  0  0  0  0
  4 26  1  0  0  0  0
  4 82  1  0  0  0  0
  5 45  1  0  0  0  0
  5 95  1  0  0  0  0
  6 46  1  0  0  0  0
  6 96  1  0  0  0  0
  7 47  1  0  0  0  0
  7 97  1  0  0  0  0
  8 48  1  0  0  0  0
  8 98  1  0  0  0  0
  9 55  1  0  0  0  0
  9 99  1  0  0  0  0
 10 56  1  0  0  0  0
 10100  1  0  0  0  0
 11 67  1  0  0  0  0
 11105  1  0  0  0  0
 12 68  1  0  0  0  0
 12106  1  0  0  0  0
 13 14  1  0  0  0  0
 13 15  1  0  0  0  0
 13 25  2  0  0  0  0
 14 16  1  0  0  0  0
 14 26  2  0  0  0  0
 15 18  2  0  0  0  0
 16 17  2  0  0  0  0
 17 20  1  0  0  0  0
 17 22  1  0  0  0  0
 18 19  1  0  0  0  0
 18 21  1  0  0  0  0
 19 24  2  0  0  0  0
 19 30  1  0  0  0  0
 20 23  2  0  0  0  0
 20 29  1  0  0  0  0
 21 28  2  0  0  0  0
 21 33  1  0  0  0  0
 22 27  2  0  0  0  0
 22 34  1  0  0  0  0
 23 31  1  0  0  0  0
 24 32  1  0  0  0  0
 25 28  1  0  0  0  0
 26 27  1  0  0  0  0
 27 70  1  0  0  0  0
 28 69  1  0  0  0  0
 29 35  2  0  0  0  0
 29 37  1  0  0  0  0
 30 36  2  0  0  0  0
 30 38  1  0  0  0  0
 31 40  2  0  0  0  0
 31 42  1  0  0  0  0
 32 39  2  0  0  0  0
 32 41  1  0  0  0  0
 33 44  2  0  0  0  0
 33 72  1  0  0  0  0
 34 43  2  0  0  0  0
 34 71  1  0  0  0  0
 35 48  1  0  0  0  0
 35 74  1  0  0  0  0
 36 47  1  0  0  0  0
 36 73  1  0  0  0  0
 37 46  2  0  0  0  0
 37 76  1  0  0  0  0
 38 45  2  0  0  0  0
 38 75  1  0  0  0  0
 39 52  1  0  0  0  0
 39 77  1  0  0  0  0
 40 51  1  0  0  0  0
 40 78  1  0  0  0  0
 41 54  2  0  0  0  0
 41 79  1  0  0  0  0
 42 53  2  0  0  0  0
 42 80  1  0  0  0  0
 43 57  1  0  0  0  0
 43 84  1  0  0  0  0
 44 58  1  0  0  0  0
 44 83  1  0  0  0  0
 45 50  1  0  0  0  0
 46 49  1  0  0  0  0
 47 50  2  0  0  0  0
 48 49  2  0  0  0  0
 49 86  1  0  0  0  0
 50 85  1  0  0  0  0
 51 56  2  0  0  0  0
 51 88  1  0  0  0  0
 52 55  2  0  0  0  0
 52 87  1  0  0  0  0
 53 56  1  0  0  0  0
 53 90  1  0  0  0  0
 54 55  1  0  0  0  0
 54 89  1  0  0  0  0
 57 60  2  0  0  0  0
 57 62  1  0  0  0  0
 58 59  2  0  0  0  0
 58 61  1  0  0  0  0
 59 64  1  0  0  0  0
 59 92  1  0  0  0  0
 60 63  1  0  0  0  0
 60 91  1  0  0  0  0
 61 66  2  0  0  0  0
 61 94  1  0  0  0  0
 62 65  2  0  0  0  0
 62 93  1  0  0  0  0
 63 68  2  0  0  0  0
 63102  1  0  0  0  0
 64 67  2  0  0  0  0
 64101  1  0  0  0  0
 65 68  1  0  0  0  0
 65104  1  0  0  0  0
 66 67  1  0  0  0  0
 66103  1  0  0  0  0
M  END
>  <PUBCHEM_COMPOUND_CID>
16141385

>  <PUBCHEM_COMPOUND_CANONICALIZED>
1

>  <PUBCHEM_CACTVS_COMPLEXITY>
1520

>  <PUBCHEM_CACTVS_HBOND_ACCEPTOR>
12

>  <PUBCHEM_CACTVS_HBOND_DONOR>
10

>  <PUBCHEM_CACTVS_ROTATABLE_BOND>
9

>  <PUBCHEM_CACTVS_SUBSKEYS>
AAADcfB8PAAAAAAAAAAAAAAAAAAAASJAAAAwYMGDAAAAAEgB/gAAGgAACAAADASAmAAwBsAABkCIAqBSAAACCAAkIAAIiAEGCMgMJzaGNRqCeWCl4BUIuYfL7PzO4AADCAAYAADAAAYQADAAAAAAAAAAAA==

>  <PUBCHEM_IUPAC_OPENEYE_NAME>
5-[7-[3-(3,5-dihydroxyphenyl)-6-hydroxy-2-(4-hydroxyphenyl)-4-[(E)-2-(4-hydroxyphenyl)vinyl]benzofuran-7-yl]-6-hydroxy-2-(4-hydroxyphenyl)-4-[(E)-2-(4-hydroxyphenyl)vinyl]benzofuran-3-yl]benzene-1,3-diol

>  <PUBCHEM_IUPAC_CAS_NAME>
5-[7-[3-(3,5-dihydroxyphenyl)-6-hydroxy-2-(4-hydroxyphenyl)-4-[(E)-2-(4-hydroxyphenyl)ethenyl]-7-benzofuranyl]-6-hydroxy-2-(4-hydroxyphenyl)-4-[(E)-2-(4-hydroxyphenyl)ethenyl]-3-benzofuranyl]benzene-1,3-diol

>  <PUBCHEM_IUPAC_NAME>
5-[7-[3-(3,5-dihydroxyphenyl)-6-hydroxy-2-(4-hydroxyphenyl)-4-[(E)-2-(4-hydroxyphenyl)ethenyl]-1-benzofuran-7-yl]-6-hydroxy-2-(4-hydroxyphenyl)-4-[(E)-2-(4-hydroxyphenyl)ethenyl]-1-benzofuran-3-yl]benzene-1,3-diol

>  <PUBCHEM_IUPAC_SYSTEMATIC_NAME>
5-[7-[3-[3,5-bis(oxidanyl)phenyl]-2-(4-hydroxyphenyl)-4-[(E)-2-(4-hydroxyphenyl)ethenyl]-6-oxidanyl-1-benzofuran-7-yl]-2-(4-hydroxyphenyl)-4-[(E)-2-(4-hydroxyphenyl)ethenyl]-6-oxidanyl-1-benzofuran-3-yl]benzene-1,3-diol

>  <PUBCHEM_IUPAC_TRADITIONAL_NAME>
5-[7-[3-(3,5-dihydroxyphenyl)-6-hydroxy-2-(4-hydroxyphenyl)-4-[(E)-2-(4-hydroxyphenyl)vinyl]benzofuran-7-yl]-6-hydroxy-2-(4-hydroxyphenyl)-4-[(E)-2-(4-hydroxyphenyl)vinyl]benzofuran-3-yl]resorcinol

>  <PUBCHEM_IUPAC_INCHI>
InChI=1S/C56H38O12/c57-37-13-3-29(4-14-37)1-7-33-25-45(65)51(55-47(33)49(35-21-41(61)27-42(62)22-35)53(67-55)31-9-17-39(59)18-10-31)52-46(66)26-34(8-2-30-5-15-38(58)16-6-30)48-50(36-23-43(63)28-44(64)24-36)54(68-56(48)52)32-11-19-40(60)20-12-32/h1-28,57-66H/b7-1+,8-2+

>  <PUBCHEM_IUPAC_INCHIKEY>
GSRFIFJPVFIFMU-FACPPWRESA-N

>  <PUBCHEM_XLOGP3_AA>
11.9

>  <PUBCHEM_EXACT_MASS>
902.236

>  <PUBCHEM_MOLECULAR_FORMULA>
C56H38O12

>  <PUBCHEM_MOLECULAR_WEIGHT>
902.908

>  <PUBCHEM_OPENEYE_CAN_SMILES>
C1=CC(=CC=C1C=CC2=CC(=C(C3=C2C(=C(O3)C4=CC=C(C=C4)O)C5=CC(=CC(=C5)O)O)C6=C(C=C(C7=C6OC(=C7C8=CC(=CC(=C8)O)O)C9=CC=C(C=C9)O)C=CC1=CC=C(C=C1)O)O)O)O

>  <PUBCHEM_OPENEYE_ISO_SMILES>
C1=CC(=CC=C1/C=C/C2=CC(=C(C3=C2C(=C(O3)C4=CC=C(C=C4)O)C5=CC(=CC(=C5)O)O)C6=C(C=C(C7=C6OC(=C7C8=CC(=CC(=C8)O)O)C9=CC=C(C=C9)O)/C=C/C1=CC=C(C=C1)O)O)O)O

>  <PUBCHEM_CACTVS_TPSA>
229

>  <PUBCHEM_MONOISOTOPIC_WEIGHT>
902.236

>  <PUBCHEM_TOTAL_CHARGE>
0

>  <PUBCHEM_HEAVY_ATOM_COUNT>
68

>  <PUBCHEM_ATOM_DEF_STEREO_COUNT>
0

>  <PUBCHEM_ATOM_UDEF_STEREO_COUNT>
0

>  <PUBCHEM_BOND_DEF_STEREO_COUNT>
2

>  <PUBCHEM_BOND_UDEF_STEREO_COUNT>
0

>  <PUBCHEM_ISOTOPIC_ATOM_COUNT>
0

>  <PUBCHEM_COMPONENT_COUNT>
1

>  <PUBCHEM_CACTVS_TAUTO_COUNT>
999

>  <PUBCHEM_COORDINATE_TYPE>
1
5
255

>  <PUBCHEM_BONDANNOTATIONS>
1  15  8
1  24  8
13  15  8
13  25  8
14  16  8
14  26  8
15  18  8
16  17  8
17  20  8
17  22  8
18  19  8
18  21  8
19  24  8
2  16  8
2  23  8
20  23  8
21  28  8
22  27  8
25  28  8
26  27  8
29  35  8
29  37  8
30  36  8
30  38  8
31  40  8
31  42  8
32  39  8
32  41  8
35  48  8
36  47  8
37  46  8
38  45  8
39  52  8
40  51  8
41  54  8
42  53  8
45  50  8
46  49  8
47  50  8
48  49  8
51  56  8
52  55  8
53  56  8
54  55  8
57  60  8
57  62  8
58  59  8
58  61  8
59  64  8
60  63  8
61  66  8
62  65  8
63  68  8
64  67  8
65  68  8
66  67  8

$$$$
