16185747
 OpenBabel06101807152D

126137  0  0  1  0  0  0  0  0999 V2000
   12.0174   -1.4663    0.0000 O   0  0  0  0  0  0  0  0  0  0  0  0
   12.8220   -1.6245    0.0000 O   0  0  0  0  0  0  0  0  0  0  0  0
   13.0291    0.9839    0.0000 O   0  0  0  0  0  0  0  0  0  0  0  0
   14.7538   -1.1069    0.0000 O   0  0  0  0  0  0  0  0  0  0  0  0
    7.0370   -0.0056    0.0000 O   0  0  0  0  0  0  0  0  0  0  0  0
    9.2435   -2.4528    0.0000 O   0  0  0  0  0  0  0  0  0  0  0  0
    8.8207   -1.8734    0.0000 O   0  0  0  0  0  0  0  0  0  0  0  0
   10.3942    0.9559    0.0000 O   0  0  0  0  0  0  0  0  0  0  0  0
   12.2995   -3.0640    0.0000 O   0  0  0  0  0  0  0  0  0  0  0  0
   14.4950    1.2733    0.0000 O   0  0  0  0  0  0  0  0  0  0  0  0
    5.9266   -2.4834    0.0000 O   0  0  0  0  0  0  0  0  0  0  0  0
   10.3728   -4.9178    0.0000 O   0  0  0  0  0  0  0  0  0  0  0  0
    8.7702   -3.8171    0.0000 O   0  0  0  0  0  0  0  0  0  0  0  0
   13.7879   -1.3657    0.0000 O   0  0  0  0  0  0  0  0  0  0  0  0
   11.2055   -5.0088    0.0000 O   0  0  0  0  0  0  0  0  0  0  0  0
   14.6265   -5.6165    0.0000 O   0  0  0  0  0  0  0  0  0  0  0  0
   12.7349   -6.3321    0.0000 O   0  0  0  0  0  0  0  0  0  0  0  0
   14.5253    1.7628    0.0000 O   0  0  0  0  0  0  0  0  0  0  0  0
   14.2361   -3.0387    0.0000 O   0  0  0  0  0  0  0  0  0  0  0  0
   15.3984   -5.4565    0.0000 O   0  0  0  0  0  0  0  0  0  0  0  0
   13.6018    2.9587    0.0000 O   0  0  0  0  0  0  0  0  0  0  0  0
   17.3810   -4.9416    0.0000 O   0  0  0  0  0  0  0  0  0  0  0  0
   17.9111   -2.9631    0.0000 O   0  0  0  0  0  0  0  0  0  0  0  0
    2.9905   -1.7303    0.0000 O   0  0  0  0  0  0  0  0  0  0  0  0
    3.8091    1.6357    0.0000 O   0  0  0  0  0  0  0  0  0  0  0  0
   11.7807    4.8845    0.0000 O   0  0  0  0  0  0  0  0  0  0  0  0
    2.4281    0.1890    0.0000 O   0  0  0  0  0  0  0  0  0  0  0  0
    9.9990    1.8258    0.0000 O   0  0  0  0  0  0  0  0  0  0  0  0
   12.6413    5.3814    0.0000 O   0  0  0  0  0  0  0  0  0  0  0  0
    9.9990    3.8741    0.0000 O   0  0  0  0  0  0  0  0  0  0  0  0
   14.4072    6.4192    0.0000 O   0  0  0  0  0  0  0  0  0  0  0  0
   16.1811    5.3950    0.0000 O   0  0  0  0  0  0  0  0  0  0  0  0
   11.8339   -0.4802    0.0000 C   0  0  1  0  0  0  0  0  0  0  0  0
   10.9639   -0.9612    0.0000 C   0  0  2  0  0  0  0  0  0  0  0  0
   12.8220   -0.5892    0.0000 C   0  0  2  0  0  0  0  0  0  0  0  0
   13.5291    0.1179    0.0000 C   0  0  1  0  0  0  0  0  0  0  0  0
   10.5307   -1.8559    0.0000 C   0  0  0  0  0  0  0  0  0  0  0  0
    9.9913   -0.7286    0.0000 C   0  0  0  0  0  0  0  0  0  0  0  0
   10.6931   -2.8367    0.0000 C   0  0  0  0  0  0  0  0  0  0  0  0
   14.4950   -0.1410    0.0000 C   0  0  1  0  0  0  0  0  0  0  0  0
   11.3914   -3.5442    0.0000 C   0  0  0  0  0  0  0  0  0  0  0  0
    9.3036   -1.4546    0.0000 C   0  0  0  0  0  0  0  0  0  0  0  0
   11.5804   -2.3691    0.0000 C   0  0  0  0  0  0  0  0  0  0  0  0
    9.6868   -2.3733    0.0000 C   0  0  0  0  0  0  0  0  0  0  0  0
    8.3310   -1.2220    0.0000 C   0  0  0  0  0  0  0  0  0  0  0  0
    9.7064    0.2300    0.0000 C   0  0  0  0  0  0  0  0  0  0  0  0
    7.6264   -1.9892    0.0000 C   0  0  0  0  0  0  0  0  0  0  0  0
   12.3700   -3.7191    0.0000 C   0  0  0  0  0  0  0  0  0  0  0  0
    8.0462   -0.2635    0.0000 C   0  0  0  0  0  0  0  0  0  0  0  0
    6.6115   -1.7548    0.0000 C   0  0  1  0  0  0  0  0  0  0  0  0
   15.2021    0.5662    0.0000 C   0  0  0  0  0  0  0  0  0  0  0  0
   13.2703   -3.2976    0.0000 C   0  0  0  0  0  0  0  0  0  0  0  0
   10.4770   -3.9233    0.0000 C   0  0  0  0  0  0  0  0  0  0  0  0
    6.3148   -0.7563    0.0000 C   0  0  1  0  0  0  0  0  0  0  0  0
    9.6611   -3.3628    0.0000 C   0  0  0  0  0  0  0  0  0  0  0  0
    8.7339    0.4625    0.0000 C   0  0  0  0  0  0  0  0  0  0  0  0
   13.5291   -2.3316    0.0000 C   0  0  0  0  0  0  0  0  0  0  0  0
   13.9774   -4.0047    0.0000 C   0  0  0  0  0  0  0  0  0  0  0  0
   12.1547   -4.6942    0.0000 C   0  0  0  0  0  0  0  0  0  0  0  0
    5.3431   -0.5200    0.0000 C   0  0  0  0  0  0  0  0  0  0  0  0
   14.9433   -3.7458    0.0000 C   0  0  0  0  0  0  0  0  0  0  0  0
   13.5291    1.8499    0.0000 C   0  0  0  0  0  0  0  0  0  0  0  0
   13.8438   -4.9942    0.0000 C   0  0  0  0  0  0  0  0  0  0  0  0
   14.4950   -2.0728    0.0000 C   0  0  0  0  0  0  0  0  0  0  0  0
   12.9098   -5.3475    0.0000 C   0  0  0  0  0  0  0  0  0  0  0  0
   15.2021   -2.7799    0.0000 C   0  0  0  0  0  0  0  0  0  0  0  0
   12.6631    2.3499    0.0000 C   0  0  0  0  0  0  0  0  0  0  0  0
   15.6684   -4.4936    0.0000 C   0  0  0  0  0  0  0  0  0  0  0  0
    5.0620    0.4397    0.0000 C   0  0  0  0  0  0  0  0  0  0  0  0
    4.6526   -1.2433    0.0000 C   0  0  0  0  0  0  0  0  0  0  0  0
   16.2040   -2.4948    0.0000 C   0  0  0  0  0  0  0  0  0  0  0  0
   12.6631    3.3499    0.0000 C   0  0  0  0  0  0  0  0  0  0  0  0
   14.3951    2.3499    0.0000 C   0  0  0  0  0  0  0  0  0  0  0  0
   13.5291    3.8499    0.0000 C   0  0  0  0  0  0  0  0  0  0  0  0
   14.3951    3.3499    0.0000 C   0  0  0  0  0  0  0  0  0  0  0  0
   16.6766   -4.2318    0.0000 C   0  0  0  0  0  0  0  0  0  0  0  0
   16.9462   -3.2257    0.0000 C   0  0  0  0  0  0  0  0  0  0  0  0
   11.7691    1.8153    0.0000 C   0  0  0  0  0  0  0  0  0  0  0  0
    3.6810   -1.0070    0.0000 C   0  0  0  0  0  0  0  0  0  0  0  0
    4.0903    0.6760    0.0000 C   0  0  0  0  0  0  0  0  0  0  0  0
   11.7691    3.8846    0.0000 C   0  0  0  0  0  0  0  0  0  0  0  0
    3.3998   -0.0473    0.0000 C   0  0  0  0  0  0  0  0  0  0  0  0
   10.8631    2.3291    0.0000 C   0  0  0  0  0  0  0  0  0  0  0  0
   13.5130    4.8914    0.0000 C   0  0  0  0  0  0  0  0  0  0  0  0
   15.3051    3.8568    0.0000 C   0  0  0  0  0  0  0  0  0  0  0  0
   10.8631    3.3707    0.0000 C   0  0  0  0  0  0  0  0  0  0  0  0
   14.4111    5.4192    0.0000 C   0  0  0  0  0  0  0  0  0  0  0  0
   15.3132    4.8984    0.0000 C   0  0  0  0  0  0  0  0  0  0  0  0
   11.2110    0.0981    0.0000 H   0  0  0  0  0  0  0  0  0  0  0  0
   10.7218   -0.1464    0.0000 H   0  0  0  0  0  0  0  0  0  0  0  0
   12.1889   -1.1564    0.0000 H   0  0  0  0  0  0  0  0  0  0  0  0
   12.6864    0.2288    0.0000 H   0  0  0  0  0  0  0  0  0  0  0  0
   15.3161   -0.3609    0.0000 H   0  0  0  0  0  0  0  0  0  0  0  0
    7.3856   -2.5605    0.0000 H   0  0  0  0  0  0  0  0  0  0  0  0
    8.1481   -2.3243    0.0000 H   0  0  0  0  0  0  0  0  0  0  0  0
    6.0083   -1.6117    0.0000 H   0  0  0  0  0  0  0  0  0  0  0  0
   15.6405    0.1277    0.0000 H   0  0  0  0  0  0  0  0  0  0  0  0
   15.6405    1.0046    0.0000 H   0  0  0  0  0  0  0  0  0  0  0  0
    6.1416   -0.1610    0.0000 H   0  0  0  0  0  0  0  0  0  0  0  0
    8.5572    1.0568    0.0000 H   0  0  0  0  0  0  0  0  0  0  0  0
    8.6889   -2.7300    0.0000 H   0  0  0  0  0  0  0  0  0  0  0  0
    8.2838   -2.1835    0.0000 H   0  0  0  0  0  0  0  0  0  0  0  0
   10.9972    0.8117    0.0000 H   0  0  0  0  0  0  0  0  0  0  0  0
    6.1056   -3.0770    0.0000 H   0  0  0  0  0  0  0  0  0  0  0  0
    9.8065   -5.1702    0.0000 H   0  0  0  0  0  0  0  0  0  0  0  0
    8.7379   -4.4362    0.0000 H   0  0  0  0  0  0  0  0  0  0  0  0
    5.4901    0.8882    0.0000 H   0  0  0  0  0  0  0  0  0  0  0  0
    4.8270   -1.8383    0.0000 H   0  0  0  0  0  0  0  0  0  0  0  0
   16.3575   -1.8942    0.0000 H   0  0  0  0  0  0  0  0  0  0  0  0
   11.0802   -5.6160    0.0000 H   0  0  0  0  0  0  0  0  0  0  0  0
   11.7763    1.1953    0.0000 H   0  0  0  0  0  0  0  0  0  0  0  0
   14.5351   -6.2297    0.0000 H   0  0  0  0  0  0  0  0  0  0  0  0
   13.2094   -6.7312    0.0000 H   0  0  0  0  0  0  0  0  0  0  0  0
   15.8384    3.5406    0.0000 H   0  0  0  0  0  0  0  0  0  0  0  0
   15.8318   -5.9000    0.0000 H   0  0  0  0  0  0  0  0  0  0  0  0
   17.9805   -4.7835    0.0000 H   0  0  0  0  0  0  0  0  0  0  0  0
   18.0693   -2.3636    0.0000 H   0  0  0  0  0  0  0  0  0  0  0  0
    3.1648   -2.3253    0.0000 H   0  0  0  0  0  0  0  0  0  0  0  0
    3.2067    1.7822    0.0000 H   0  0  0  0  0  0  0  0  0  0  0  0
   11.2474    5.2007    0.0000 H   0  0  0  0  0  0  0  0  0  0  0  0
    2.0000   -0.2595    0.0000 H   0  0  0  0  0  0  0  0  0  0  0  0
    9.4608    2.1337    0.0000 H   0  0  0  0  0  0  0  0  0  0  0  0
   12.6341    6.0013    0.0000 H   0  0  0  0  0  0  0  0  0  0  0  0
   10.0014    4.4941    0.0000 H   0  0  0  0  0  0  0  0  0  0  0  0
   14.9430    6.7312    0.0000 H   0  0  0  0  0  0  0  0  0  0  0  0
   16.7168    5.0830    0.0000 H   0  0  0  0  0  0  0  0  0  0  0  0
  1 33  1  0  0  0  0
  1 43  1  0  0  0  0
  2 35  1  0  0  0  0
  2 57  1  0  0  0  0
  3 36  1  0  0  0  0
  3 62  1  0  0  0  0
  4 40  1  0  0  0  0
  4 64  1  0  0  0  0
  5 49  1  0  0  0  0
  5 54  1  0  0  0  0
  6 42  1  0  0  0  0
  6101  1  0  0  0  0
  7 44  1  0  0  0  0
  7102  1  0  0  0  0
  8 46  1  0  0  0  0
  8103  1  0  0  0  0
  9 43  2  0  0  0  0
 10 51  1  0  0  0  0
 10 73  1  0  0  0  0
 11104  1  0  0  0  0
 12 53  1  0  0  0  0
 12105  1  0  0  0  0
 13 55  1  0  0  0  0
 13106  1  0  0  0  0
 14 57  2  0  0  0  0
 15 59  1  0  0  0  0
 15110  1  0  0  0  0
 16 63  1  0  0  0  0
 16112  1  0  0  0  0
 17 65  1  0  0  0  0
 17113  1  0  0  0  0
 18 62  2  0  0  0  0
 19 64  2  0  0  0  0
 20 68  1  0  0  0  0
 20115  1  0  0  0  0
 21 73  2  0  0  0  0
 22 76  1  0  0  0  0
 22116  1  0  0  0  0
 23 77  1  0  0  0  0
 23117  1  0  0  0  0
 24 79  1  0  0  0  0
 24118  1  0  0  0  0
 25 80  1  0  0  0  0
 25119  1  0  0  0  0
 26 81  1  0  0  0  0
 26120  1  0  0  0  0
 27 82  1  0  0  0  0
 27121  1  0  0  0  0
 28 83  1  0  0  0  0
 28122  1  0  0  0  0
 29 84  1  0  0  0  0
 29123  1  0  0  0  0
 30 86  1  0  0  0  0
 30124  1  0  0  0  0
 31 87  1  0  0  0  0
 31125  1  0  0  0  0
 32 88  1  0  0  0  0
 32126  1  0  0  0  0
 33 34  1  1  0  0  0
 33 89  1  0  0  0  0
 34 37  1  0  0  0  0
 34 38  1  0  0  0  0
 34 90  1  1  0  0  0
 35 33  1  6  0  0  0
 35 91  1  0  0  0  0
 36 35  1  6  0  0  0
 36 92  1  0  0  0  0
 37 39  1  0  0  0  0
 37 44  2  0  0  0  0
 38 42  1  0  0  0  0
 38 46  2  0  0  0  0
 39 41  2  0  0  0  0
 39 43  1  0  0  0  0
 40 36  1  6  0  0  0
 40 51  1  0  0  0  0
 40 93  1  0  0  0  0
 41 48  1  0  0  0  0
 41 53  1  0  0  0  0
 42 45  2  0  0  0  0
 44 55  1  0  0  0  0
 45 47  1  0  0  0  0
 45 49  1  0  0  0  0
 46 56  1  0  0  0  0
 47 50  1  0  0  0  0
 47 94  1  0  0  0  0
 47 95  1  0  0  0  0
 48 52  1  0  0  0  0
 48 59  2  0  0  0  0
 49 56  2  0  0  0  0
 50 11  1  0  0  0  0
 50 54  1  6  0  0  0
 50 96  1  0  0  0  0
 51 97  1  0  0  0  0
 51 98  1  0  0  0  0
 52 57  1  0  0  0  0
 52 58  2  0  0  0  0
 53 55  2  0  0  0  0
 54 60  1  0  0  0  0
 54 99  1  6  0  0  0
 56100  1  0  0  0  0
 58 61  1  0  0  0  0
 58 63  1  0  0  0  0
 59 65  1  0  0  0  0
 60 69  2  0  0  0  0
 60 70  1  0  0  0  0
 61 66  1  0  0  0  0
 61 68  2  0  0  0  0
 62 67  1  0  0  0  0
 63 65  2  0  0  0  0
 64 66  1  0  0  0  0
 66 71  2  0  0  0  0
 67 72  1  0  0  0  0
 67 78  2  0  0  0  0
 68 76  1  0  0  0  0
 69 80  1  0  0  0  0
 69107  1  0  0  0  0
 70 79  2  0  0  0  0
 70108  1  0  0  0  0
 71 77  1  0  0  0  0
 71109  1  0  0  0  0
 72 74  1  0  0  0  0
 72 81  2  0  0  0  0
 73 75  1  0  0  0  0
 74 75  1  0  0  0  0
 74 84  2  0  0  0  0
 75 85  2  0  0  0  0
 76 77  2  0  0  0  0
 78 83  1  0  0  0  0
 78111  1  0  0  0  0
 79 82  1  0  0  0  0
 80 82  2  0  0  0  0
 81 86  1  0  0  0  0
 83 86  2  0  0  0  0
 84 87  1  0  0  0  0
 85 88  1  0  0  0  0
 85114  1  0  0  0  0
 87 88  2  0  0  0  0
M  END
>  <PUBCHEM_COMPOUND_CID>
16185747

>  <PUBCHEM_COMPOUND_CANONICALIZED>
0

>  <PUBCHEM_CACTVS_COMPLEXITY>
2620

>  <PUBCHEM_CACTVS_HBOND_ACCEPTOR>
32

>  <PUBCHEM_CACTVS_HBOND_DONOR>
21

>  <PUBCHEM_CACTVS_ROTATABLE_BOND>
2

>  <PUBCHEM_CACTVS_SUBSKEYS>
AAADcfB8PgAAAAAAAAAAAAAAAAAAAAAAAAA0aMGDAAAAAACRVAAAGgAACAAADRSgmAIwDoAABgCIAiDSCAACCAAkIAAAiAEGiMgNNzKGNRqCeSGlwBULuYfK7PzOoAADCAAYQABAAAYQADCAAAAAAAAAAA==

>  <PUBCHEM_IUPAC_INCHI>
InChI=1S/C56H38O32/c57-14-7-21-10(3-20(63)48(84-21)9-1-15(58)35(65)16(59)2-9)34(64)26(14)31-30-33-29(44(74)47(77)45(30)75)28-32-27(42(72)46(76)43(28)73)25-13(6-19(62)38(68)41(25)71)53(79)85-22-8-83-52(78)11-4-17(60)36(66)39(69)23(11)24-12(5-18(61)37(67)40(24)70)54(80)86-49(22)51(88-56(32)82)50(31)87-55(33)81/h1-2,4-7,20,22,31,48-51,57-77H,3,8H2/t20-,22+,31-,48+,49+,50-,51-/m0/s1

>  <PUBCHEM_IUPAC_INCHIKEY>
YRBMKGMWALNDRF-NARGYMRGSA-N

>  <PUBCHEM_XLOGP3_AA>
2.6

>  <PUBCHEM_EXACT_MASS>
1222.135

>  <PUBCHEM_MOLECULAR_FORMULA>
C56H38O32

>  <PUBCHEM_MOLECULAR_WEIGHT>
1222.888

>  <PUBCHEM_OPENEYE_CAN_SMILES>
C1C(C(OC2=CC(=C(C(=C21)O)C3C4C5C6C(COC(=O)C7=CC(=C(C(=C7C8=C(C(=C(C=C8C(=O)O6)O)O)O)O)O)O)OC(=O)C9=CC(=C(C(=C9C1=C(C(=C(C(=C1O)O)O)C1=C(C3=C(C(=C1O)O)O)C(=O)O4)C(=O)O5)O)O)O)O)C1=CC(=C(C(=C1)O)O)O)O

>  <PUBCHEM_OPENEYE_ISO_SMILES>
C1[C@@H]([C@H](OC2=CC(=C(C(=C21)O)[C@@H]3[C@H]4[C@@H]5[C@H]6[C@@H](COC(=O)C7=CC(=C(C(=C7C8=C(C(=C(C=C8C(=O)O6)O)O)O)O)O)O)OC(=O)C9=CC(=C(C(=C9C1=C(C(=C(C(=C1O)O)O)C1=C(C3=C(C(=C1O)O)O)C(=O)O4)C(=O)O5)O)O)O)O)C1=CC(=C(C(=C1)O)O)O)O

>  <PUBCHEM_CACTVS_TPSA>
566

>  <PUBCHEM_MONOISOTOPIC_WEIGHT>
1222.135

>  <PUBCHEM_TOTAL_CHARGE>
0

>  <PUBCHEM_HEAVY_ATOM_COUNT>
88

>  <PUBCHEM_ATOM_DEF_STEREO_COUNT>
7

>  <PUBCHEM_ATOM_UDEF_STEREO_COUNT>
0

>  <PUBCHEM_BOND_DEF_STEREO_COUNT>
0

>  <PUBCHEM_BOND_UDEF_STEREO_COUNT>
0

>  <PUBCHEM_ISOTOPIC_ATOM_COUNT>
0

>  <PUBCHEM_COMPONENT_COUNT>
1

>  <PUBCHEM_CACTVS_TAUTO_COUNT>
938

>  <PUBCHEM_COORDINATE_TYPE>
1
5
255

>  <PUBCHEM_BONDANNOTATIONS>
50  11  6
33  89  6
34  90  5
35  91  5
36  92  5
37  39  8
37  44  8
38  42  8
38  46  8
39  41  8
40  93  6
41  53  8
42  45  8
44  55  8
45  49  8
46  56  8
48  52  8
48  59  8
49  56  8
52  58  8
53  55  8
54  60  5
58  63  8
59  65  8
60  69  8
60  70  8
61  66  8
61  68  8
63  65  8
66  71  8
67  72  8
67  78  8
68  76  8
69  80  8
70  79  8
71  77  8
72  81  8
74  75  8
74  84  8
75  85  8
76  77  8
78  83  8
79  82  8
80  82  8
81  86  8
83  86  8
84  87  8
85  88  8
87  88  8

$$$$
