16185755
 OpenBabel06101807152D

122134  0  0  1  0  0  0  0  0999 V2000
   13.6131   -1.6448    0.0000 O   0  0  0  0  0  0  0  0  0  0  0  0
   10.9943   -0.6897    0.0000 O   0  0  0  0  0  0  0  0  0  0  0  0
   10.2687   -3.1583    0.0000 O   0  0  0  0  0  0  0  0  0  0  0  0
   14.2177   -2.1967    0.0000 O   0  0  0  0  0  0  0  0  0  0  0  0
   14.5560   -3.6936    0.0000 O   0  0  0  0  0  0  0  0  0  0  0  0
   12.3850    0.2914    0.0000 O   0  0  0  0  0  0  0  0  0  0  0  0
    8.6776   -1.2639    0.0000 O   0  0  0  0  0  0  0  0  0  0  0  0
    9.8610    0.9645    0.0000 O   0  0  0  0  0  0  0  0  0  0  0  0
   13.8841    3.9290    0.0000 O   0  0  0  0  0  0  0  0  0  0  0  0
    8.1063   -4.1982    0.0000 O   0  0  0  0  0  0  0  0  0  0  0  0
   14.0701   -5.9728    0.0000 O   0  0  0  0  0  0  0  0  0  0  0  0
   10.8457    6.0600    0.0000 O   0  0  0  0  0  0  0  0  0  0  0  0
   10.2091   -5.0547    0.0000 O   0  0  0  0  0  0  0  0  0  0  0  0
    6.1936   -3.6236    0.0000 O   0  0  0  0  0  0  0  0  0  0  0  0
   13.2250   -7.7002    0.0000 O   0  0  0  0  0  0  0  0  0  0  0  0
   11.8368   -8.0140    0.0000 O   0  0  0  0  0  0  0  0  0  0  0  0
    8.6927    0.3984    0.0000 O   0  0  0  0  0  0  0  0  0  0  0  0
    7.5493   -5.6493    0.0000 O   0  0  0  0  0  0  0  0  0  0  0  0
   10.7199   -8.1354    0.0000 O   0  0  0  0  0  0  0  0  0  0  0  0
    9.3932   -8.9461    0.0000 O   0  0  0  0  0  0  0  0  0  0  0  0
    4.5327   -3.5534    0.0000 O   0  0  0  0  0  0  0  0  0  0  0  0
    7.5220   -8.1130    0.0000 O   0  0  0  0  0  0  0  0  0  0  0  0
   12.8572    8.7621    0.0000 O   0  0  0  0  0  0  0  0  0  0  0  0
   15.9325    7.1676    0.0000 O   0  0  0  0  0  0  0  0  0  0  0  0
   14.8551    8.8526    0.0000 O   0  0  0  0  0  0  0  0  0  0  0  0
    4.2943    0.4737    0.0000 O   0  0  0  0  0  0  0  0  0  0  0  0
    7.0748    2.8746    0.0000 O   0  0  0  0  0  0  0  0  0  0  0  0
    4.9852    2.4840    0.0000 O   0  0  0  0  0  0  0  0  0  0  0  0
    4.6831    0.8430    0.0000 O   0  0  0  0  0  0  0  0  0  0  0  0
    2.6401    0.2561    0.0000 O   0  0  0  0  0  0  0  0  0  0  0  0
    2.1427   -1.8106    0.0000 O   0  0  0  0  0  0  0  0  0  0  0  0
   12.2852   -2.3377    0.0000 C   0  0  3  0  0  0  0  0  0  0  0  0
   11.4761   -1.7499    0.0000 C   0  0  1  0  0  0  0  0  0  0  0  0
   12.7852   -3.2037    0.0000 C   0  0  3  0  0  0  0  0  0  0  0  0
   10.4980   -1.5420    0.0000 C   0  0  1  0  0  0  0  0  0  0  0  0
   11.7247   -0.2729    0.0000 C   0  0  0  0  0  0  0  0  0  0  0  0
   13.2710   -2.5188    0.0000 C   0  0  0  0  0  0  0  0  0  0  0  0
    9.5198   -1.7499    0.0000 C   0  0  2  0  0  0  0  0  0  0  0  0
   12.8897   -4.1982    0.0000 C   0  0  0  0  0  0  0  0  0  0  0  0
   13.2207   -0.1993    0.0000 C   0  0  0  0  0  0  0  0  0  0  0  0
   11.9783   -0.6221    0.0000 C   0  0  0  0  0  0  0  0  0  0  0  0
   13.5808   -3.4722    0.0000 C   0  0  0  0  0  0  0  0  0  0  0  0
    8.7108   -2.3377    0.0000 C   0  0  1  0  0  0  0  0  0  0  0  0
   10.8591    1.0251    0.0000 C   0  0  0  0  0  0  0  0  0  0  0  0
   12.5807   -5.1493    0.0000 C   0  0  0  0  0  0  0  0  0  0  0  0
   13.9548    1.1774    0.0000 C   0  0  0  0  0  0  0  0  0  0  0  0
   11.5612    2.4184    0.0000 C   0  0  0  0  0  0  0  0  0  0  0  0
   13.1195    2.4950    0.0000 C   0  0  0  0  0  0  0  0  0  0  0  0
    8.2108   -3.2037    0.0000 C   0  0  1  0  0  0  0  0  0  0  0  0
   11.9115   -5.8924    0.0000 C   0  0  0  0  0  0  0  0  0  0  0  0
   10.6595    3.7704    0.0000 C   0  0  0  0  0  0  0  0  0  0  0  0
   11.0663   -4.5397    0.0000 C   0  0  0  0  0  0  0  0  0  0  0  0
   13.0706   -6.0053    0.0000 C   0  0  0  0  0  0  0  0  0  0  0  0
   11.3908    5.2217    0.0000 C   0  0  1  0  0  0  0  0  0  0  0  0
   13.0140    5.3015    0.0000 C   0  0  1  0  0  0  0  0  0  0  0  0
   10.9980   -6.2992    0.0000 C   0  0  0  0  0  0  0  0  0  0  0  0
    7.2643   -3.7118    0.0000 C   0  0  0  0  0  0  0  0  0  0  0  0
   12.6372   -6.8912    0.0000 C   0  0  0  0  0  0  0  0  0  0  0  0
   11.6607   -7.0297    0.0000 C   0  0  0  0  0  0  0  0  0  0  0  0
    9.9980   -6.2992    0.0000 C   0  0  0  0  0  0  0  0  0  0  0  0
   13.4743    6.1893    0.0000 C   0  0  0  0  0  0  0  0  0  0  0  0
    8.0659   -0.3807    0.0000 C   0  0  0  0  0  0  0  0  0  0  0  0
    9.0844   -5.8924    0.0000 C   0  0  0  0  0  0  0  0  0  0  0  0
    8.4153   -5.1493    0.0000 C   0  0  0  0  0  0  0  0  0  0  0  0
   10.1228   -7.3333    0.0000 C   0  0  0  0  0  0  0  0  0  0  0  0
    7.0722    0.0278    0.0000 C   0  0  0  0  0  0  0  0  0  0  0  0
   14.4732    6.2346    0.0000 C   0  0  0  0  0  0  0  0  0  0  0  0
   12.9356    7.0318    0.0000 C   0  0  0  0  0  0  0  0  0  0  0  0
    8.2324   -6.4916    0.0000 C   0  0  0  0  0  0  0  0  0  0  0  0
    5.3430   -2.9674    0.0000 C   0  0  0  0  0  0  0  0  0  0  0  0
    9.2849   -7.9520    0.0000 C   0  0  0  0  0  0  0  0  0  0  0  0
    6.0162   -0.1697    0.0000 C   0  0  0  0  0  0  0  0  0  0  0  0
    8.3333   -7.5284    0.0000 C   0  0  0  0  0  0  0  0  0  0  0  0
   13.3959    7.9196    0.0000 C   0  0  0  0  0  0  0  0  0  0  0  0
   14.9335    7.1223    0.0000 C   0  0  0  0  0  0  0  0  0  0  0  0
    7.4603    1.0774    0.0000 C   0  0  0  0  0  0  0  0  0  0  0  0
    4.9860   -1.9541    0.0000 C   0  0  0  0  0  0  0  0  0  0  0  0
    5.2373   -0.9096    0.0000 C   0  0  0  0  0  0  0  0  0  0  0  0
   14.3948    7.9648    0.0000 C   0  0  0  0  0  0  0  0  0  0  0  0
    5.2751    0.6688    0.0000 C   0  0  0  0  0  0  0  0  0  0  0  0
    6.7388    1.9328    0.0000 C   0  0  0  0  0  0  0  0  0  0  0  0
    5.6388    1.7271    0.0000 C   0  0  0  0  0  0  0  0  0  0  0  0
    4.4380   -0.1264    0.0000 C   0  0  0  0  0  0  0  0  0  0  0  0
    3.9178   -2.2879    0.0000 C   0  0  0  0  0  0  0  0  0  0  0  0
    3.3624   -0.4354    0.0000 C   0  0  0  0  0  0  0  0  0  0  0  0
    3.1006   -1.5234    0.0000 C   0  0  0  0  0  0  0  0  0  0  0  0
   11.1304   -0.9734    0.0000 H   0  0  0  0  0  0  0  0  0  0  0  0
   13.3923   -3.0782    0.0000 H   0  0  0  0  0  0  0  0  0  0  0  0
    9.8663   -0.9732    0.0000 H   0  0  0  0  0  0  0  0  0  0  0  0
    9.3142   -0.9251    0.0000 H   0  0  0  0  0  0  0  0  0  0  0  0
    8.7108   -1.4877    0.0000 H   0  0  0  0  0  0  0  0  0  0  0  0
   14.5744    1.2006    0.0000 H   0  0  0  0  0  0  0  0  0  0  0  0
    7.7858   -3.9398    0.0000 H   0  0  0  0  0  0  0  0  0  0  0  0
   10.1618    4.1401    0.0000 H   0  0  0  0  0  0  0  0  0  0  0  0
   10.2102    3.3432    0.0000 H   0  0  0  0  0  0  0  0  0  0  0  0
   11.6730    5.7738    0.0000 H   0  0  0  0  0  0  0  0  0  0  0  0
   14.9772   -3.2387    0.0000 H   0  0  0  0  0  0  0  0  0  0  0  0
   13.6334    5.3284    0.0000 H   0  0  0  0  0  0  0  0  0  0  0  0
    9.5190    1.4816    0.0000 H   0  0  0  0  0  0  0  0  0  0  0  0
    7.0148   -4.2794    0.0000 H   0  0  0  0  0  0  0  0  0  0  0  0
    7.1379   -3.1049    0.0000 H   0  0  0  0  0  0  0  0  0  0  0  0
   14.3973   -6.4994    0.0000 H   0  0  0  0  0  0  0  0  0  0  0  0
   10.2265    6.0272    0.0000 H   0  0  0  0  0  0  0  0  0  0  0  0
   13.8416   -7.6354    0.0000 H   0  0  0  0  0  0  0  0  0  0  0  0
   14.8072    5.7122    0.0000 H   0  0  0  0  0  0  0  0  0  0  0  0
   12.3162    7.0037    0.0000 H   0  0  0  0  0  0  0  0  0  0  0  0
   12.4199   -8.2246    0.0000 H   0  0  0  0  0  0  0  0  0  0  0  0
    7.6690   -6.2329    0.0000 H   0  0  0  0  0  0  0  0  0  0  0  0
    8.0710    1.1843    0.0000 H   0  0  0  0  0  0  0  0  0  0  0  0
   10.4743   -8.7047    0.0000 H   0  0  0  0  0  0  0  0  0  0  0  0
    3.7798   -2.8923    0.0000 H   0  0  0  0  0  0  0  0  0  0  0  0
    8.8930   -9.3125    0.0000 H   0  0  0  0  0  0  0  0  0  0  0  0
    6.9566   -7.8587    0.0000 H   0  0  0  0  0  0  0  0  0  0  0  0
   13.1425    9.3125    0.0000 H   0  0  0  0  0  0  0  0  0  0  0  0
   16.2665    6.6452    0.0000 H   0  0  0  0  0  0  0  0  0  0  0  0
   15.4745    8.8807    0.0000 H   0  0  0  0  0  0  0  0  0  0  0  0
    3.8855    0.9398    0.0000 H   0  0  0  0  0  0  0  0  0  0  0  0
    6.6732    3.3470    0.0000 H   0  0  0  0  0  0  0  0  0  0  0  0
    5.1890    3.0695    0.0000 H   0  0  0  0  0  0  0  0  0  0  0  0
    4.2386    1.2752    0.0000 H   0  0  0  0  0  0  0  0  0  0  0  0
    2.0448    0.0826    0.0000 H   0  0  0  0  0  0  0  0  0  0  0  0
    2.0000   -2.4140    0.0000 H   0  0  0  0  0  0  0  0  0  0  0  0
  1 32  1  0  0  0  0
  1 40  1  0  0  0  0
  2 35  1  0  0  0  0
  2 41  1  0  0  0  0
  3 38  1  0  0  0  0
  3 52  1  0  0  0  0
  4 37  2  0  0  0  0
  5 42  1  0  0  0  0
  5 97  1  0  0  0  0
  6 41  2  0  0  0  0
  7 43  1  0  0  0  0
  7 62  1  0  0  0  0
  8 44  1  0  0  0  0
  8 99  1  0  0  0  0
  9 48  1  0  0  0  0
  9 55  1  0  0  0  0
 10 49  1  0  0  0  0
 10 64  1  0  0  0  0
 11 53  1  0  0  0  0
 11102  1  0  0  0  0
 12103  1  0  0  0  0
 13 52  2  0  0  0  0
 14 57  1  0  0  0  0
 14 70  1  0  0  0  0
 15 58  1  0  0  0  0
 15104  1  0  0  0  0
 16 59  1  0  0  0  0
 16107  1  0  0  0  0
 17 62  2  0  0  0  0
 18 64  2  0  0  0  0
 19 65  1  0  0  0  0
 19110  1  0  0  0  0
 20 71  1  0  0  0  0
 20112  1  0  0  0  0
 21 70  2  0  0  0  0
 22 73  1  0  0  0  0
 22113  1  0  0  0  0
 23 74  1  0  0  0  0
 23114  1  0  0  0  0
 24 75  1  0  0  0  0
 24115  1  0  0  0  0
 25 79  1  0  0  0  0
 25116  1  0  0  0  0
 26 80  1  0  0  0  0
 26117  1  0  0  0  0
 27 81  1  0  0  0  0
 27118  1  0  0  0  0
 28 82  1  0  0  0  0
 28119  1  0  0  0  0
 29 83  1  0  0  0  0
 29120  1  0  0  0  0
 30 85  1  0  0  0  0
 30121  1  0  0  0  0
 31 86  1  0  0  0  0
 31122  1  0  0  0  0
 32 34  1  0  0  0  0
 32 37  1  0  0  0  0
 33 32  1  6  0  0  0
 33 36  1  0  0  0  0
 33 87  1  0  0  0  0
 34 39  1  0  0  0  0
 34 41  1  0  0  0  0
 34 88  1  0  0  0  0
 35 33  1  6  0  0  0
 35 89  1  0  0  0  0
 36 40  2  0  0  0  0
 36 44  1  0  0  0  0
 37 42  1  0  0  0  0
 38 35  1  1  0  0  0
 38 90  1  0  0  0  0
 39 42  2  0  0  0  0
 39 45  1  0  0  0  0
 40 46  1  0  0  0  0
 43 38  1  1  0  0  0
 43 91  1  0  0  0  0
 44 47  2  0  0  0  0
 45 50  1  0  0  0  0
 45 53  2  0  0  0  0
 46 48  2  0  0  0  0
 46 92  1  0  0  0  0
 47 48  1  0  0  0  0
 47 51  1  0  0  0  0
 49 43  1  1  0  0  0
 49 57  1  0  0  0  0
 49 93  1  0  0  0  0
 50 52  1  0  0  0  0
 50 56  2  0  0  0  0
 51 54  1  0  0  0  0
 51 94  1  0  0  0  0
 51 95  1  0  0  0  0
 53 58  1  0  0  0  0
 54 12  1  0  0  0  0
 54 55  1  6  0  0  0
 54 96  1  0  0  0  0
 55 61  1  0  0  0  0
 55 98  1  6  0  0  0
 56 59  1  0  0  0  0
 56 60  1  0  0  0  0
 57100  1  0  0  0  0
 57101  1  0  0  0  0
 58 59  2  0  0  0  0
 60 63  1  0  0  0  0
 60 65  2  0  0  0  0
 61 67  2  0  0  0  0
 61 68  1  0  0  0  0
 62 66  1  0  0  0  0
 63 64  1  0  0  0  0
 63 69  2  0  0  0  0
 65 71  1  0  0  0  0
 66 72  1  0  0  0  0
 66 76  2  0  0  0  0
 67 75  1  0  0  0  0
 67105  1  0  0  0  0
 68 74  2  0  0  0  0
 68106  1  0  0  0  0
 69 73  1  0  0  0  0
 69108  1  0  0  0  0
 70 77  1  0  0  0  0
 71 73  2  0  0  0  0
 72 78  1  0  0  0  0
 72 80  2  0  0  0  0
 74 79  1  0  0  0  0
 75 79  2  0  0  0  0
 76 81  1  0  0  0  0
 76109  1  0  0  0  0
 77 78  1  0  0  0  0
 77 84  2  0  0  0  0
 78 83  2  0  0  0  0
 80 82  1  0  0  0  0
 81 82  2  0  0  0  0
 83 85  1  0  0  0  0
 84 86  1  0  0  0  0
 84111  1  0  0  0  0
 85 86  2  0  0  0  0
M  END
>  <PUBCHEM_COMPOUND_CID>
16185755

>  <PUBCHEM_COMPOUND_CANONICALIZED>
0

>  <PUBCHEM_CACTVS_COMPLEXITY>
2770

>  <PUBCHEM_CACTVS_HBOND_ACCEPTOR>
31

>  <PUBCHEM_CACTVS_HBOND_DONOR>
18

>  <PUBCHEM_CACTVS_ROTATABLE_BOND>
1

>  <PUBCHEM_CACTVS_SUBSKEYS>
AAADcfB8PgAAAAAAAAAAAAAAAAAAASIAAAA0aMGDAAAAAEiRVAAAGgAACAAADVSgmAIwDoAABgCIAqDSCAICCAAkIAAAiAFGiMgNNzaGNR6CeSGl4BULuYfL7PzOoAADCAAYQABAAAYQADCAAAAAAAAAAA==

>  <PUBCHEM_IUPAC_INCHI>
InChI=1S/C55H36O31/c56-14-1-9(2-15(57)34(14)63)45-19(61)3-10-20(81-45)7-21-26(33(10)62)31-47-48-46-22(8-80-50(75)11-4-16(58)35(64)38(67)23(11)24-12(52(77)83-46)5-17(59)36(65)39(24)68)82-51(76)13-6-18(60)37(66)40(69)25(13)27-29(53(78)85-48)28(42(71)44(73)41(27)70)30-32(54(79)84-47)55(31,86-21)49(74)43(30)72/h1-2,4-7,19,22,31-32,45-48,56-73H,3,8H2/t19-,22+,31+,32?,45+,46+,47-,48-,55?/m0/s1

>  <PUBCHEM_IUPAC_INCHIKEY>
AULBOXDGSVHFPJ-SCYBQDIZSA-N

>  <PUBCHEM_XLOGP3_AA>
1.5

>  <PUBCHEM_EXACT_MASS>
1192.124

>  <PUBCHEM_MOLECULAR_FORMULA>
C55H36O31

>  <PUBCHEM_MOLECULAR_WEIGHT>
1192.862

>  <PUBCHEM_OPENEYE_CAN_SMILES>
C1C(C(OC2=CC3=C(C4C5C6C7C(COC(=O)C8=CC(=C(C(=C8C9=C(C(=C(C=C9C(=O)O7)O)O)O)O)O)O)OC(=O)C7=CC(=C(C(=C7C7=C(C(=C(C(=C7O)O)O)C7=C(C(=O)C4(C7C(=O)O5)O3)O)C(=O)O6)O)O)O)C(=C21)O)C1=CC(=C(C(=C1)O)O)O)O

>  <PUBCHEM_OPENEYE_ISO_SMILES>
C1[C@@H]([C@H](OC2=CC3=C([C@@H]4[C@H]5[C@@H]6[C@H]7[C@@H](COC(=O)C8=CC(=C(C(=C8C9=C(C(=C(C=C9C(=O)O7)O)O)O)O)O)O)OC(=O)C7=CC(=C(C(=C7C7=C(C(=C(C(=C7O)O)O)C7=C(C(=O)C4(C7C(=O)O5)O3)O)C(=O)O6)O)O)O)C(=C21)O)C1=CC(=C(C(=C1)O)O)O)O

>  <PUBCHEM_CACTVS_TPSA>
531

>  <PUBCHEM_MONOISOTOPIC_WEIGHT>
1192.124

>  <PUBCHEM_TOTAL_CHARGE>
0

>  <PUBCHEM_HEAVY_ATOM_COUNT>
86

>  <PUBCHEM_ATOM_DEF_STEREO_COUNT>
7

>  <PUBCHEM_ATOM_UDEF_STEREO_COUNT>
2

>  <PUBCHEM_BOND_DEF_STEREO_COUNT>
0

>  <PUBCHEM_BOND_UDEF_STEREO_COUNT>
0

>  <PUBCHEM_ISOTOPIC_ATOM_COUNT>
0

>  <PUBCHEM_COMPONENT_COUNT>
1

>  <PUBCHEM_CACTVS_TAUTO_COUNT>
970

>  <PUBCHEM_COORDINATE_TYPE>
1
5
255

>  <PUBCHEM_BONDANNOTATIONS>
54  12  6
32  37  3
33  87  6
34  41  3
35  89  6
36  40  8
36  44  8
38  90  6
40  46  8
43  91  6
44  47  8
45  50  8
45  53  8
46  48  8
47  48  8
49  93  5
50  56  8
53  58  8
55  61  5
56  59  8
58  59  8
60  63  8
60  65  8
61  67  8
61  68  8
63  69  8
65  71  8
66  72  8
66  76  8
67  75  8
68  74  8
69  73  8
71  73  8
72  80  8
74  79  8
75  79  8
76  81  8
77  78  8
77  84  8
78  83  8
80  82  8
81  82  8
83  85  8
84  86  8
85  86  8

$$$$
