162699
 OpenBabel06101807152D

 44 48  0  0  0  0  0  0  0  0999 V2000
    5.3424    0.8153    0.0000 O   0  0  0  0  0  0  0  0  0  0  0  0
    1.7702    0.5853    0.0000 O   0  0  0  0  0  0  0  0  0  0  0  0
    3.5301    3.6200    0.0000 O   0  0  0  0  0  0  0  0  0  0  0  0
    5.3424    9.1380    0.0000 O   0  0  0  0  0  0  0  0  0  0  0  0
    1.7702    9.3679    0.0000 O   0  0  0  0  0  0  0  0  0  0  0  0
    0.0000    0.5958    0.0000 O   0  0  0  0  0  0  0  0  0  0  0  0
    0.0000    9.3574    0.0000 O   0  0  0  0  0  0  0  0  0  0  0  0
    4.3961    2.1200    0.0000 C   0  0  0  0  0  0  0  0  0  0  0  0
    2.6641    2.1200    0.0000 C   0  0  0  0  0  0  0  0  0  0  0  0
    3.5301    2.6200    0.0000 C   0  0  0  0  0  0  0  0  0  0  0  0
    4.3961    1.1200    0.0000 C   0  0  0  0  0  0  0  0  0  0  0  0
    2.6641    1.1200    0.0000 C   0  0  0  0  0  0  0  0  0  0  0  0
    3.5301    0.6200    0.0000 C   0  0  0  0  0  0  0  0  0  0  0  0
    4.3961    7.8333    0.0000 C   0  0  0  0  0  0  0  0  0  0  0  0
    2.6641    7.8333    0.0000 C   0  0  0  0  0  0  0  0  0  0  0  0
    4.3961    8.8333    0.0000 C   0  0  0  0  0  0  0  0  0  0  0  0
    5.3424    2.4247    0.0000 C   0  0  0  0  0  0  0  0  0  0  0  0
    2.6641    8.8333    0.0000 C   0  0  0  0  0  0  0  0  0  0  0  0
    3.5301    7.3333    0.0000 C   0  0  0  0  0  0  0  0  0  0  0  0
    1.7702    2.6547    0.0000 C   0  0  0  0  0  0  0  0  0  0  0  0
    3.5301    9.3333    0.0000 C   0  0  0  0  0  0  0  0  0  0  0  0
    5.9260    1.6200    0.0000 C   0  0  0  0  0  0  0  0  0  0  0  0
    5.3424    7.5285    0.0000 C   0  0  0  0  0  0  0  0  0  0  0  0
    1.7702    7.2986    0.0000 C   0  0  0  0  0  0  0  0  0  0  0  0
    0.8641    2.1408    0.0000 C   0  0  0  0  0  0  0  0  0  0  0  0
    0.8641    1.0992    0.0000 C   0  0  0  0  0  0  0  0  0  0  0  0
    5.9260    8.3333    0.0000 C   0  0  0  0  0  0  0  0  0  0  0  0
    0.8641    7.8124    0.0000 C   0  0  0  0  0  0  0  0  0  0  0  0
    0.8641    8.8541    0.0000 C   0  0  0  0  0  0  0  0  0  0  0  0
    4.3961    4.1200    0.0000 C   0  0  0  0  0  0  0  0  0  0  0  0
    3.5301    0.0000    0.0000 H   0  0  0  0  0  0  0  0  0  0  0  0
    5.5350    3.0140    0.0000 H   0  0  0  0  0  0  0  0  0  0  0  0
    3.5301    6.7133    0.0000 H   0  0  0  0  0  0  0  0  0  0  0  0
    1.7773    3.2746    0.0000 H   0  0  0  0  0  0  0  0  0  0  0  0
    3.5301    9.9533    0.0000 H   0  0  0  0  0  0  0  0  0  0  0  0
    6.5460    1.6200    0.0000 H   0  0  0  0  0  0  0  0  0  0  0  0
    5.5350    6.9392    0.0000 H   0  0  0  0  0  0  0  0  0  0  0  0
    1.7773    6.6786    0.0000 H   0  0  0  0  0  0  0  0  0  0  0  0
    0.3284    2.4529    0.0000 H   0  0  0  0  0  0  0  0  0  0  0  0
    6.5460    8.3333    0.0000 H   0  0  0  0  0  0  0  0  0  0  0  0
    0.3284    7.5004    0.0000 H   0  0  0  0  0  0  0  0  0  0  0  0
    4.7062    3.5831    0.0000 H   0  0  0  0  0  0  0  0  0  0  0  0
    4.9331    4.4300    0.0000 H   0  0  0  0  0  0  0  0  0  0  0  0
    4.0862    4.6569    0.0000 H   0  0  0  0  0  0  0  0  0  0  0  0
  1 11  1  0  0  0  0
  1 22  1  0  0  0  0
  2 12  1  0  0  0  0
  2 26  1  0  0  0  0
  3 10  1  0  0  0  0
  3 30  1  0  0  0  0
  4 16  1  0  0  0  0
  4 27  1  0  0  0  0
  5 18  1  0  0  0  0
  5 29  1  0  0  0  0
  6 26  2  0  0  0  0
  7 29  2  0  0  0  0
  8 10  1  0  0  0  0
  8 11  2  0  0  0  0
  8 17  1  0  0  0  0
  9 10  2  0  0  0  0
  9 12  1  0  0  0  0
  9 20  1  0  0  0  0
 11 13  1  0  0  0  0
 12 13  2  0  0  0  0
 13 31  1  0  0  0  0
 14 16  2  0  0  0  0
 14 19  1  0  0  0  0
 14 23  1  0  0  0  0
 15 18  1  0  0  0  0
 15 19  2  0  0  0  0
 15 24  1  0  0  0  0
 16 21  1  0  0  0  0
 17 22  2  0  0  0  0
 17 32  1  0  0  0  0
 18 21  2  0  0  0  0
 19 33  1  0  0  0  0
 20 25  2  0  0  0  0
 20 34  1  0  0  0  0
 21 35  1  0  0  0  0
 22 36  1  0  0  0  0
 23 27  2  0  0  0  0
 23 37  1  0  0  0  0
 24 28  2  0  0  0  0
 24 38  1  0  0  0  0
 25 26  1  0  0  0  0
 25 39  1  0  0  0  0
 27 40  1  0  0  0  0
 28 29  1  0  0  0  0
 28 41  1  0  0  0  0
 30 42  1  0  0  0  0
 30 43  1  0  0  0  0
 30 44  1  0  0  0  0
M  END
>  <PUBCHEM_COMPOUND_CID>
162699

>  <PUBCHEM_COMPOUND_CANONICALIZED>
1

>  <PUBCHEM_CACTVS_COMPLEXITY>
609

>  <PUBCHEM_CACTVS_HBOND_ACCEPTOR>
7

>  <PUBCHEM_CACTVS_HBOND_DONOR>
0

>  <PUBCHEM_CACTVS_ROTATABLE_BOND>
1

>  <PUBCHEM_CACTVS_SUBSKEYS>
AAADccB4OAAAAAAAAAAAAAAAAAAAASJAAAAwYIEAAAAAAEiB/gAAGgAAAAAADASgmAIyDsAABECIAqjSiAACCAAkIAAIiAEGCMgMJzaENRqCO2Cl4BUIqYfK7PzOIAACCAAIAABAAAQQABAAAAAAAAAAAA==

>  <PUBCHEM_IUPAC_OPENEYE_NAME>
furo[3,2-g]chromen-7-one;4-methoxyfuro[3,2-g]chromen-7-one

>  <PUBCHEM_IUPAC_CAS_NAME>
7-furo[3,2-g][1]benzopyranone;4-methoxy-7-furo[3,2-g][1]benzopyranone

>  <PUBCHEM_IUPAC_NAME>
furo[3,2-g]chromen-7-one;4-methoxyfuro[3,2-g]chromen-7-one

>  <PUBCHEM_IUPAC_SYSTEMATIC_NAME>
furo[3,2-g]chromen-7-one;4-methoxyfuro[3,2-g]chromen-7-one

>  <PUBCHEM_IUPAC_TRADITIONAL_NAME>
furo[3,2-g]chromen-7-one;4-methoxyfuro[3,2-g]chromen-7-one

>  <PUBCHEM_IUPAC_INCHI>
InChI=1S/C12H8O4.C11H6O3/c1-14-12-7-2-3-11(13)16-10(7)6-9-8(12)4-5-15-9;12-11-2-1-7-5-8-3-4-13-9(8)6-10(7)14-11/h2-6H,1H3;1-6H

>  <PUBCHEM_IUPAC_INCHIKEY>
IAMQACMBFNNMJC-UHFFFAOYSA-N

>  <PUBCHEM_EXACT_MASS>
402.074

>  <PUBCHEM_MOLECULAR_FORMULA>
C23H14O7

>  <PUBCHEM_MOLECULAR_WEIGHT>
402.358

>  <PUBCHEM_OPENEYE_CAN_SMILES>
COC1=C2C=CC(=O)OC2=CC3=C1C=CO3.C1=CC(=O)OC2=CC3=C(C=CO3)C=C21

>  <PUBCHEM_OPENEYE_ISO_SMILES>
COC1=C2C=CC(=O)OC2=CC3=C1C=CO3.C1=CC(=O)OC2=CC3=C(C=CO3)C=C21

>  <PUBCHEM_CACTVS_TPSA>
88.1

>  <PUBCHEM_MONOISOTOPIC_WEIGHT>
402.074

>  <PUBCHEM_TOTAL_CHARGE>
0

>  <PUBCHEM_HEAVY_ATOM_COUNT>
30

>  <PUBCHEM_ATOM_DEF_STEREO_COUNT>
0

>  <PUBCHEM_ATOM_UDEF_STEREO_COUNT>
0

>  <PUBCHEM_BOND_DEF_STEREO_COUNT>
0

>  <PUBCHEM_BOND_UDEF_STEREO_COUNT>
0

>  <PUBCHEM_ISOTOPIC_ATOM_COUNT>
0

>  <PUBCHEM_COMPONENT_COUNT>
2

>  <PUBCHEM_CACTVS_TAUTO_COUNT>
1

>  <PUBCHEM_COORDINATE_TYPE>
1
5
255

>  <PUBCHEM_BONDANNOTATIONS>
1  11  8
1  22  8
11  13  8
12  13  8
14  16  8
14  19  8
14  23  8
15  18  8
15  19  8
15  24  8
16  21  8
17  22  8
18  21  8
2  12  8
2  26  8
20  25  8
23  27  8
24  28  8
25  26  8
28  29  8
4  16  8
4  27  8
5  18  8
5  29  8
8  10  8
8  11  8
8  17  8
9  10  8
9  12  8
9  20  8

$$$$
