162936
 OpenBabel06101807152D

 36 38  0  0  0  0  0  0  0  0999 V2000
    2.7493   -1.0043    0.0000 O   0  0  0  0  0  0  0  0  0  0  0  0
    4.8717   -3.4052    0.0000 O   0  0  0  0  0  0  0  0  0  0  0  0
    2.0000    2.4554    0.0000 O   0  0  0  0  0  0  0  0  0  0  0  0
    4.8717   -0.4052    0.0000 C   0  0  0  0  0  0  0  0  0  0  0  0
    5.6808    0.1826    0.0000 C   0  0  0  0  0  0  0  0  0  0  0  0
    5.7378   -0.9052    0.0000 C   0  0  0  0  0  0  0  0  0  0  0  0
    4.0057   -0.9052    0.0000 C   0  0  0  0  0  0  0  0  0  0  0  0
    4.0627    0.1826    0.0000 C   0  0  0  0  0  0  0  0  0  0  0  0
    5.3717    1.1336    0.0000 C   0  0  0  0  0  0  0  0  0  0  0  0
    4.3717    1.1336    0.0000 C   0  0  0  0  0  0  0  0  0  0  0  0
    5.7378   -1.9052    0.0000 C   0  0  0  0  0  0  0  0  0  0  0  0
    4.0057   -1.9052    0.0000 C   0  0  0  0  0  0  0  0  0  0  0  0
    4.8717   -2.4052    0.0000 C   0  0  0  0  0  0  0  0  0  0  0  0
    3.0473   -0.0497    0.0000 C   0  0  0  0  0  0  0  0  0  0  0  0
    3.6868    1.9184    0.0000 C   0  0  0  0  0  0  0  0  0  0  0  0
    2.3444    0.7190    0.0000 C   0  0  0  0  0  0  0  0  0  0  0  0
    2.6663    1.7096    0.0000 C   0  0  0  0  0  0  0  0  0  0  0  0
    2.3127    3.4052    0.0000 C   0  0  0  0  0  0  0  0  0  0  0  0
    5.9908   -0.3544    0.0000 H   0  0  0  0  0  0  0  0  0  0  0  0
    6.2472    0.4347    0.0000 H   0  0  0  0  0  0  0  0  0  0  0  0
    6.3484   -1.0129    0.0000 H   0  0  0  0  0  0  0  0  0  0  0  0
    5.9498   -0.3226    0.0000 H   0  0  0  0  0  0  0  0  0  0  0  0
    3.7937   -0.3226    0.0000 H   0  0  0  0  0  0  0  0  0  0  0  0
    3.3951   -1.0129    0.0000 H   0  0  0  0  0  0  0  0  0  0  0  0
    5.9782    1.2625    0.0000 H   0  0  0  0  0  0  0  0  0  0  0  0
    5.3069    1.7502    0.0000 H   0  0  0  0  0  0  0  0  0  0  0  0
    5.9498   -2.4878    0.0000 H   0  0  0  0  0  0  0  0  0  0  0  0
    6.3484   -1.7976    0.0000 H   0  0  0  0  0  0  0  0  0  0  0  0
    3.3951   -1.7976    0.0000 H   0  0  0  0  0  0  0  0  0  0  0  0
    3.7937   -2.4878    0.0000 H   0  0  0  0  0  0  0  0  0  0  0  0
    3.8852    2.5058    0.0000 H   0  0  0  0  0  0  0  0  0  0  0  0
    1.7384    0.5878    0.0000 H   0  0  0  0  0  0  0  0  0  0  0  0
    2.1444   -1.1402    0.0000 H   0  0  0  0  0  0  0  0  0  0  0  0
    2.9016    3.2114    0.0000 H   0  0  0  0  0  0  0  0  0  0  0  0
    2.5065    3.9941    0.0000 H   0  0  0  0  0  0  0  0  0  0  0  0
    1.7238    3.5991    0.0000 H   0  0  0  0  0  0  0  0  0  0  0  0
  1 14  1  0  0  0  0
  1 33  1  0  0  0  0
  2 13  2  0  0  0  0
  3 17  1  0  0  0  0
  3 18  1  0  0  0  0
  4  5  1  0  0  0  0
  4  6  1  0  0  0  0
  4  7  1  0  0  0  0
  4  8  1  0  0  0  0
  5  9  1  0  0  0  0
  5 19  1  0  0  0  0
  5 20  1  0  0  0  0
  6 11  1  0  0  0  0
  6 21  1  0  0  0  0
  6 22  1  0  0  0  0
  7 12  1  0  0  0  0
  7 23  1  0  0  0  0
  7 24  1  0  0  0  0
  8 10  2  0  0  0  0
  8 14  1  0  0  0  0
  9 10  1  0  0  0  0
  9 25  1  0  0  0  0
  9 26  1  0  0  0  0
 10 15  1  0  0  0  0
 11 13  1  0  0  0  0
 11 27  1  0  0  0  0
 11 28  1  0  0  0  0
 12 13  1  0  0  0  0
 12 29  1  0  0  0  0
 12 30  1  0  0  0  0
 14 16  2  0  0  0  0
 15 17  2  0  0  0  0
 15 31  1  0  0  0  0
 16 17  1  0  0  0  0
 16 32  1  0  0  0  0
 18 34  1  0  0  0  0
 18 35  1  0  0  0  0
 18 36  1  0  0  0  0
M  END
>  <PUBCHEM_COMPOUND_CID>
162936

>  <PUBCHEM_COMPOUND_CANONICALIZED>
1

>  <PUBCHEM_CACTVS_COMPLEXITY>
329

>  <PUBCHEM_CACTVS_HBOND_ACCEPTOR>
3

>  <PUBCHEM_CACTVS_HBOND_DONOR>
1

>  <PUBCHEM_CACTVS_ROTATABLE_BOND>
1

>  <PUBCHEM_CACTVS_SUBSKEYS>
AAADceBwMAAAAAAAAAAAAAAAAAAAAYAAAAAwYAAAAAAAAGABAAAAGgAACAAADgSAmAIyBoAABgCIAqBSAAACCAAgIAAAiAEGCIgMJzKGMRqAcCAlwBUIuAeI6PyPoAABCAAYAABAAAIQADAAAQAACAAAAA==

>  <PUBCHEM_IUPAC_OPENEYE_NAME>
7'-hydroxy-5'-methoxy-spiro[cyclohexane-4,1'-indane]-1-one

>  <PUBCHEM_IUPAC_CAS_NAME>
4-hydroxy-6-methoxy-1'-spiro[1,2-dihydroindene-3,4'-cyclohexane]one

>  <PUBCHEM_IUPAC_NAME>
4-hydroxy-6-methoxyspiro[1,2-dihydroindene-3,4'-cyclohexane]-1'-one

>  <PUBCHEM_IUPAC_SYSTEMATIC_NAME>
6-methoxy-4-oxidanyl-spiro[1,2-dihydroindene-3,4'-cyclohexane]-1'-one

>  <PUBCHEM_IUPAC_TRADITIONAL_NAME>
7'-hydroxy-5'-methoxy-spiro[cyclohexane-4,1'-indane]-1-one

>  <PUBCHEM_IUPAC_INCHI>
InChI=1S/C15H18O3/c1-18-12-8-10-2-5-15(14(10)13(17)9-12)6-3-11(16)4-7-15/h8-9,17H,2-7H2,1H3

>  <PUBCHEM_IUPAC_INCHIKEY>
WSWHSHJDUZRVPR-UHFFFAOYSA-N

>  <PUBCHEM_XLOGP3_AA>
2.3

>  <PUBCHEM_EXACT_MASS>
246.126

>  <PUBCHEM_MOLECULAR_FORMULA>
C15H18O3

>  <PUBCHEM_MOLECULAR_WEIGHT>
246.306

>  <PUBCHEM_OPENEYE_CAN_SMILES>
COC1=CC(=C2C(=C1)CCC23CCC(=O)CC3)O

>  <PUBCHEM_OPENEYE_ISO_SMILES>
COC1=CC(=C2C(=C1)CCC23CCC(=O)CC3)O

>  <PUBCHEM_CACTVS_TPSA>
46.5

>  <PUBCHEM_MONOISOTOPIC_WEIGHT>
246.126

>  <PUBCHEM_TOTAL_CHARGE>
0

>  <PUBCHEM_HEAVY_ATOM_COUNT>
18

>  <PUBCHEM_ATOM_DEF_STEREO_COUNT>
0

>  <PUBCHEM_ATOM_UDEF_STEREO_COUNT>
0

>  <PUBCHEM_BOND_DEF_STEREO_COUNT>
0

>  <PUBCHEM_BOND_UDEF_STEREO_COUNT>
0

>  <PUBCHEM_ISOTOPIC_ATOM_COUNT>
0

>  <PUBCHEM_COMPONENT_COUNT>
1

>  <PUBCHEM_CACTVS_TAUTO_COUNT>
18

>  <PUBCHEM_COORDINATE_TYPE>
1
5
255

>  <PUBCHEM_BONDANNOTATIONS>
10  15  8
14  16  8
15  17  8
16  17  8
8  10  8
8  14  8

$$$$
