165103
 OpenBabel06101807152D

 35 38  0  0  0  0  0  0  0  0999 V2000
   10.4728    0.0550    0.0000 O   0  0  0  0  0  0  0  0  0  0  0  0
    6.9006   -1.7844    0.0000 O   0  0  0  0  0  0  0  0  0  0  0  0
   10.4728   -1.5545    0.0000 O   0  0  0  0  0  0  0  0  0  0  0  0
    8.6605    1.2502    0.0000 O   0  0  0  0  0  0  0  0  0  0  0  0
    6.9121    1.2848    0.0000 O   0  0  0  0  0  0  0  0  0  0  0  0
    2.5381    1.7844    0.0000 O   0  0  0  0  0  0  0  0  0  0  0  0
    7.7945   -0.2497    0.0000 C   0  0  0  0  0  0  0  0  0  0  0  0
    7.7945   -1.2498    0.0000 C   0  0  0  0  0  0  0  0  0  0  0  0
    8.6605    0.2503    0.0000 C   0  0  0  0  0  0  0  0  0  0  0  0
    9.5266   -0.2497    0.0000 C   0  0  0  0  0  0  0  0  0  0  0  0
    9.5266   -1.2498    0.0000 C   0  0  0  0  0  0  0  0  0  0  0  0
    6.9006    0.2849    0.0000 C   0  0  0  0  0  0  0  0  0  0  0  0
    8.6605   -1.7498    0.0000 C   0  0  0  0  0  0  0  0  0  0  0  0
    5.9945   -0.2289    0.0000 C   0  0  0  0  0  0  0  0  0  0  0  0
    5.1304    0.2744    0.0000 C   0  0  0  0  0  0  0  0  0  0  0  0
   11.0564   -0.7497    0.0000 C   0  0  0  0  0  0  0  0  0  0  0  0
    5.9945   -1.2706    0.0000 C   0  0  0  0  0  0  0  0  0  0  0  0
    5.1343    1.2744    0.0000 C   0  0  0  0  0  0  0  0  0  0  0  0
    4.2625   -0.2223    0.0000 C   0  0  0  0  0  0  0  0  0  0  0  0
    4.2702    1.7777    0.0000 C   0  0  0  0  0  0  0  0  0  0  0  0
    3.3984    0.2811    0.0000 C   0  0  0  0  0  0  0  0  0  0  0  0
    9.5266    1.7502    0.0000 C   0  0  0  0  0  0  0  0  0  0  0  0
    3.4022    1.2811    0.0000 C   0  0  0  0  0  0  0  0  0  0  0  0
    8.6605   -2.3697    0.0000 H   0  0  0  0  0  0  0  0  0  0  0  0
   11.5173   -1.1645    0.0000 H   0  0  0  0  0  0  0  0  0  0  0  0
   11.5173   -0.3350    0.0000 H   0  0  0  0  0  0  0  0  0  0  0  0
    5.4588   -1.5826    0.0000 H   0  0  0  0  0  0  0  0  0  0  0  0
    5.6724    1.5823    0.0000 H   0  0  0  0  0  0  0  0  0  0  0  0
    4.2601   -0.8422    0.0000 H   0  0  0  0  0  0  0  0  0  0  0  0
    4.2726    2.3977    0.0000 H   0  0  0  0  0  0  0  0  0  0  0  0
    2.8602   -0.0268    0.0000 H   0  0  0  0  0  0  0  0  0  0  0  0
    9.8366    1.2133    0.0000 H   0  0  0  0  0  0  0  0  0  0  0  0
   10.0635    2.0602    0.0000 H   0  0  0  0  0  0  0  0  0  0  0  0
    9.2166    2.2872    0.0000 H   0  0  0  0  0  0  0  0  0  0  0  0
    2.0000    1.4765    0.0000 H   0  0  0  0  0  0  0  0  0  0  0  0
  1 10  1  0  0  0  0
  1 16  1  0  0  0  0
  2  8  1  0  0  0  0
  2 17  1  0  0  0  0
  3 11  1  0  0  0  0
  3 16  1  0  0  0  0
  4  9  1  0  0  0  0
  4 22  1  0  0  0  0
  5 12  2  0  0  0  0
  6 23  1  0  0  0  0
  6 35  1  0  0  0  0
  7  8  1  0  0  0  0
  7  9  2  0  0  0  0
  7 12  1  0  0  0  0
  8 13  2  0  0  0  0
  9 10  1  0  0  0  0
 10 11  2  0  0  0  0
 11 13  1  0  0  0  0
 12 14  1  0  0  0  0
 13 24  1  0  0  0  0
 14 15  1  0  0  0  0
 14 17  2  0  0  0  0
 15 18  2  0  0  0  0
 15 19  1  0  0  0  0
 16 25  1  0  0  0  0
 16 26  1  0  0  0  0
 17 27  1  0  0  0  0
 18 20  1  0  0  0  0
 18 28  1  0  0  0  0
 19 21  2  0  0  0  0
 19 29  1  0  0  0  0
 20 23  2  0  0  0  0
 20 30  1  0  0  0  0
 21 23  1  0  0  0  0
 21 31  1  0  0  0  0
 22 32  1  0  0  0  0
 22 33  1  0  0  0  0
 22 34  1  0  0  0  0
M  END
>  <PUBCHEM_COMPOUND_CID>
165103

>  <PUBCHEM_COMPOUND_CANONICALIZED>
1

>  <PUBCHEM_CACTVS_COMPLEXITY>
495

>  <PUBCHEM_CACTVS_HBOND_ACCEPTOR>
6

>  <PUBCHEM_CACTVS_HBOND_DONOR>
1

>  <PUBCHEM_CACTVS_ROTATABLE_BOND>
2

>  <PUBCHEM_CACTVS_SUBSKEYS>
AAADccB4OAAAAAAAAAAAAAAAAAAAASAAAAAwYIAAAAAAAEiBQAAAGgAACAAADASgmAMyDoAABgCIAqBSAAACCAAkIAAIiAEGiMgdJzaGNRqgcWIl4BUOuYfK7PzOIQABCAAIQABCAAIQABCAAAAAAAAAAA==

>  <PUBCHEM_IUPAC_OPENEYE_NAME>
7-(4-hydroxyphenyl)-9-methoxy-[1,3]dioxolo[4,5-g]chromen-8-one

>  <PUBCHEM_IUPAC_CAS_NAME>
7-(4-hydroxyphenyl)-9-methoxy-[1,3]dioxolo[4,5-g][1]benzopyran-8-one

>  <PUBCHEM_IUPAC_NAME>
7-(4-hydroxyphenyl)-9-methoxy-[1,3]dioxolo[4,5-g]chromen-8-one

>  <PUBCHEM_IUPAC_SYSTEMATIC_NAME>
7-(4-hydroxyphenyl)-9-methoxy-[1,3]dioxolo[4,5-g]chromen-8-one

>  <PUBCHEM_IUPAC_TRADITIONAL_NAME>
7-(4-hydroxyphenyl)-9-methoxy-[1,3]dioxolo[4,5-g]chromen-8-one

>  <PUBCHEM_IUPAC_INCHI>
InChI=1S/C17H12O6/c1-20-17-14-12(6-13-16(17)23-8-22-13)21-7-11(15(14)19)9-2-4-10(18)5-3-9/h2-7,18H,8H2,1H3

>  <PUBCHEM_IUPAC_INCHIKEY>
RSSZOUXCQUJNKL-UHFFFAOYSA-N

>  <PUBCHEM_XLOGP3_AA>
2.6

>  <PUBCHEM_EXACT_MASS>
312.063

>  <PUBCHEM_MOLECULAR_FORMULA>
C17H12O6

>  <PUBCHEM_MOLECULAR_WEIGHT>
312.277

>  <PUBCHEM_OPENEYE_CAN_SMILES>
COC1=C2C(=CC3=C1OCO3)OC=C(C2=O)C4=CC=C(C=C4)O

>  <PUBCHEM_OPENEYE_ISO_SMILES>
COC1=C2C(=CC3=C1OCO3)OC=C(C2=O)C4=CC=C(C=C4)O

>  <PUBCHEM_CACTVS_TPSA>
74.2

>  <PUBCHEM_MONOISOTOPIC_WEIGHT>
312.063

>  <PUBCHEM_TOTAL_CHARGE>
0

>  <PUBCHEM_HEAVY_ATOM_COUNT>
23

>  <PUBCHEM_ATOM_DEF_STEREO_COUNT>
0

>  <PUBCHEM_ATOM_UDEF_STEREO_COUNT>
0

>  <PUBCHEM_BOND_DEF_STEREO_COUNT>
0

>  <PUBCHEM_BOND_UDEF_STEREO_COUNT>
0

>  <PUBCHEM_ISOTOPIC_ATOM_COUNT>
0

>  <PUBCHEM_COMPONENT_COUNT>
1

>  <PUBCHEM_CACTVS_TAUTO_COUNT>
2

>  <PUBCHEM_COORDINATE_TYPE>
1
5
255

>  <PUBCHEM_BONDANNOTATIONS>
10  11  8
11  13  8
12  14  8
14  17  8
15  18  8
15  19  8
18  20  8
19  21  8
2  17  8
2  8  8
20  23  8
21  23  8
7  12  8
7  8  8
7  9  8
8  13  8
9  10  8

$$$$
