16655785
 OpenBabel06101807152D

102106  0  0  1  0  0  0  0  0999 V2000
    6.8671   -4.3649    0.0000 O   0  0  0  0  0  0  0  0  0  0  0  0
    5.1350   -4.3649    0.0000 O   0  0  0  0  0  0  0  0  0  0  0  0
    6.8671   -6.3649    0.0000 O   0  0  0  0  0  0  0  0  0  0  0  0
    5.1350   -7.3649    0.0000 O   0  0  0  0  0  0  0  0  0  0  0  0
    3.4030   -6.3649    0.0000 O   0  0  0  0  0  0  0  0  0  0  0  0
    2.5369   -4.8649    0.0000 O   0  0  0  0  0  0  0  0  0  0  0  0
    6.8963    1.8320    0.0000 C   0  0  1  0  0  0  0  0  0  0  0  0
    7.7643    1.3353    0.0000 C   0  0  2  0  0  0  0  0  0  0  0  0
    7.7681    0.3353    0.0000 C   0  0  1  0  0  0  0  0  0  0  0  0
    6.9040   -0.1680    0.0000 C   0  0  1  0  0  0  0  0  0  0  0  0
    7.1018    2.8046    0.0000 C   0  0  2  0  0  0  0  0  0  0  0  0
    6.0322    1.3286    0.0000 C   0  0  0  0  0  0  0  0  0  0  0  0
    6.8920   -1.2096    0.0000 C   0  0  2  0  0  0  0  0  0  0  0  0
    8.4987    2.0052    0.0000 C   0  0  0  0  0  0  0  0  0  0  0  0
    6.0361    0.3286    0.0000 C   0  0  0  0  0  0  0  0  0  0  0  0
    8.0901    2.9114    0.0000 C   0  0  0  0  0  0  0  0  0  0  0  0
    8.6801   -0.1680    0.0000 C   0  0  0  0  0  0  0  0  0  0  0  0
    6.0284    2.3286    0.0000 C   0  0  0  0  0  0  0  0  0  0  0  0
    7.7920   -1.7339    0.0000 C   0  0  0  0  0  0  0  0  0  0  0  0
    6.4311    3.5463    0.0000 C   0  0  2  0  0  0  0  0  0  0  0  0
    5.9421   -1.7339    0.0000 C   0  0  0  0  0  0  0  0  0  0  0  0
    8.6921   -1.2096    0.0000 C   0  0  0  0  0  0  0  0  0  0  0  0
    6.0279   -0.7062    0.0000 C   0  0  0  0  0  0  0  0  0  0  0  0
    7.8046   -2.8188    0.0000 C   0  0  0  0  0  0  0  0  0  0  0  0
    5.9295   -2.8188    0.0000 C   0  0  0  0  0  0  0  0  0  0  0  0
    6.8671   -3.3649    0.0000 C   0  0  2  0  0  0  0  0  0  0  0  0
    5.4534    3.3363    0.0000 C   0  0  0  0  0  0  0  0  0  0  0  0
    6.7381    4.4980    0.0000 C   0  0  0  0  0  0  0  0  0  0  0  0
    6.0674    5.2397    0.0000 C   0  0  0  0  0  0  0  0  0  0  0  0
    6.0010   -4.8649    0.0000 C   0  0  2  0  0  0  0  0  0  0  0  0
    6.3744    6.1914    0.0000 C   0  0  3  0  0  0  0  0  0  0  0  0
    5.7036    6.9332    0.0000 C   0  0  0  0  0  0  0  0  0  0  0  0
    6.0010   -5.8649    0.0000 C   0  0  1  0  0  0  0  0  0  0  0  0
    7.3521    6.4014    0.0000 C   0  0  0  0  0  0  0  0  0  0  0  0
    5.1350   -6.3649    0.0000 C   0  0  2  0  0  0  0  0  0  0  0  0
    4.2690   -4.8649    0.0000 C   0  0  1  0  0  0  0  0  0  0  0  0
    4.2690   -5.8649    0.0000 C   0  0  1  0  0  0  0  0  0  0  0  0
    5.0329    7.6749    0.0000 C   0  0  0  0  0  0  0  0  0  0  0  0
    6.4454    7.6039    0.0000 C   0  0  0  0  0  0  0  0  0  0  0  0
    4.9619    6.2625    0.0000 C   0  0  0  0  0  0  0  0  0  0  0  0
    7.6591    7.3532    0.0000 C   0  0  0  0  0  0  0  0  0  0  0  0
    3.4030   -4.3649    0.0000 C   0  0  0  0  0  0  0  0  0  0  0  0
    8.5426    0.9936    0.0000 H   0  0  0  0  0  0  0  0  0  0  0  0
    8.4993    0.7688    0.0000 H   0  0  0  0  0  0  0  0  0  0  0  0
    7.6385   -0.5958    0.0000 H   0  0  0  0  0  0  0  0  0  0  0  0
    7.4044    3.5989    0.0000 H   0  0  0  0  0  0  0  0  0  0  0  0
    5.8179    1.9104    0.0000 H   0  0  0  0  0  0  0  0  0  0  0  0
    5.4221    1.2186    0.0000 H   0  0  0  0  0  0  0  0  0  0  0  0
    8.8661    1.5058    0.0000 H   0  0  0  0  0  0  0  0  0  0  0  0
    9.0340    2.3181    0.0000 H   0  0  0  0  0  0  0  0  0  0  0  0
    5.4251    0.4340    0.0000 H   0  0  0  0  0  0  0  0  0  0  0  0
    5.8263   -0.2548    0.0000 H   0  0  0  0  0  0  0  0  0  0  0  0
    8.6790    3.1055    0.0000 H   0  0  0  0  0  0  0  0  0  0  0  0
    7.9590    3.5174    0.0000 H   0  0  0  0  0  0  0  0  0  0  0  0
    9.2921   -0.2670    0.0000 H   0  0  0  0  0  0  0  0  0  0  0  0
    8.8824    0.4181    0.0000 H   0  0  0  0  0  0  0  0  0  0  0  0
    6.3363    2.8668    0.0000 H   0  0  0  0  0  0  0  0  0  0  0  0
    5.4902    2.6366    0.0000 H   0  0  0  0  0  0  0  0  0  0  0  0
    5.7204    1.7905    0.0000 H   0  0  0  0  0  0  0  0  0  0  0  0
    6.0152    4.0062    0.0000 H   0  0  0  0  0  0  0  0  0  0  0  0
    5.7398   -1.1478    0.0000 H   0  0  0  0  0  0  0  0  0  0  0  0
    5.3300   -1.8329    0.0000 H   0  0  0  0  0  0  0  0  0  0  0  0
    9.2314   -1.5154    0.0000 H   0  0  0  0  0  0  0  0  0  0  0  0
    6.3400   -0.1705    0.0000 H   0  0  0  0  0  0  0  0  0  0  0  0
    5.4922   -0.3942    0.0000 H   0  0  0  0  0  0  0  0  0  0  0  0
    5.7158   -1.2420    0.0000 H   0  0  0  0  0  0  0  0  0  0  0  0
    8.0204   -3.4000    0.0000 H   0  0  0  0  0  0  0  0  0  0  0  0
    8.4142   -2.7056    0.0000 H   0  0  0  0  0  0  0  0  0  0  0  0
    5.3199   -2.7056    0.0000 H   0  0  0  0  0  0  0  0  0  0  0  0
    5.7137   -3.4000    0.0000 H   0  0  0  0  0  0  0  0  0  0  0  0
    7.4046   -3.6739    0.0000 H   0  0  0  0  0  0  0  0  0  0  0  0
    5.3232    3.9425    0.0000 H   0  0  0  0  0  0  0  0  0  0  0  0
    4.8472    3.2061    0.0000 H   0  0  0  0  0  0  0  0  0  0  0  0
    5.5836    2.7302    0.0000 H   0  0  0  0  0  0  0  0  0  0  0  0
    7.3442    4.6282    0.0000 H   0  0  0  0  0  0  0  0  0  0  0  0
    5.4612    5.1095    0.0000 H   0  0  0  0  0  0  0  0  0  0  0  0
    6.0010   -4.2449    0.0000 H   0  0  0  0  0  0  0  0  0  0  0  0
    6.6353    7.0004    0.0000 H   0  0  0  0  0  0  0  0  0  0  0  0
    6.0010   -6.4849    0.0000 H   0  0  0  0  0  0  0  0  0  0  0  0
    7.3750    5.7819    0.0000 H   0  0  0  0  0  0  0  0  0  0  0  0
    7.9662    6.3165    0.0000 H   0  0  0  0  0  0  0  0  0  0  0  0
    4.5981   -6.6749    0.0000 H   0  0  0  0  0  0  0  0  0  0  0  0
    4.2690   -4.2449    0.0000 H   0  0  0  0  0  0  0  0  0  0  0  0
    3.7320   -5.5549    0.0000 H   0  0  0  0  0  0  0  0  0  0  0  0
    4.5461    6.7223    0.0000 H   0  0  0  0  0  0  0  0  0  0  0  0
    4.5021    5.8466    0.0000 H   0  0  0  0  0  0  0  0  0  0  0  0
    5.3778    5.8026    0.0000 H   0  0  0  0  0  0  0  0  0  0  0  0
    6.8612    7.1440    0.0000 H   0  0  0  0  0  0  0  0  0  0  0  0
    6.9052    8.0197    0.0000 H   0  0  0  0  0  0  0  0  0  0  0  0
    6.0295    8.0638    0.0000 H   0  0  0  0  0  0  0  0  0  0  0  0
    5.4928    8.0907    0.0000 H   0  0  0  0  0  0  0  0  0  0  0  0
    4.6171    8.1348    0.0000 H   0  0  0  0  0  0  0  0  0  0  0  0
    4.5731    7.2591    0.0000 H   0  0  0  0  0  0  0  0  0  0  0  0
    8.2491    7.1628    0.0000 H   0  0  0  0  0  0  0  0  0  0  0  0
    7.8494    7.9432    0.0000 H   0  0  0  0  0  0  0  0  0  0  0  0
    7.0690    7.5435    0.0000 H   0  0  0  0  0  0  0  0  0  0  0  0
    6.8671   -6.9849    0.0000 H   0  0  0  0  0  0  0  0  0  0  0  0
    3.8015   -3.8900    0.0000 H   0  0  0  0  0  0  0  0  0  0  0  0
    3.0044   -3.8900    0.0000 H   0  0  0  0  0  0  0  0  0  0  0  0
    4.5981   -7.6749    0.0000 H   0  0  0  0  0  0  0  0  0  0  0  0
    3.4030   -6.9849    0.0000 H   0  0  0  0  0  0  0  0  0  0  0  0
    2.0000   -4.5549    0.0000 H   0  0  0  0  0  0  0  0  0  0  0  0
  2 30  1  0  0  0  0
  2 36  1  0  0  0  0
  3 97  1  0  0  0  0
  4100  1  0  0  0  0
  5101  1  0  0  0  0
  6 42  1  0  0  0  0
  6102  1  0  0  0  0
  7  8  1  1  0  0  0
  7 12  1  0  0  0  0
  7 18  1  0  0  0  0
  8  9  1  1  0  0  0
  8 14  1  0  0  0  0
  8 43  1  0  0  0  0
  9 10  1  1  0  0  0
  9 17  1  0  0  0  0
  9 44  1  0  0  0  0
 10 13  1  1  0  0  0
 10 15  1  0  0  0  0
 10 45  1  0  0  0  0
 11  7  1  6  0  0  0
 11 16  1  0  0  0  0
 11 20  1  0  0  0  0
 11 46  1  0  0  0  0
 12 15  1  0  0  0  0
 12 47  1  0  0  0  0
 12 48  1  0  0  0  0
 13 19  1  0  0  0  0
 13 21  1  0  0  0  0
 13 23  1  1  0  0  0
 14 16  1  0  0  0  0
 14 49  1  0  0  0  0
 14 50  1  0  0  0  0
 15 51  1  0  0  0  0
 15 52  1  0  0  0  0
 16 53  1  0  0  0  0
 16 54  1  0  0  0  0
 17 22  1  0  0  0  0
 17 55  1  0  0  0  0
 17 56  1  0  0  0  0
 18 57  1  0  0  0  0
 18 58  1  0  0  0  0
 18 59  1  0  0  0  0
 19 22  2  0  0  0  0
 19 24  1  0  0  0  0
 20 27  1  0  0  0  0
 20 28  1  0  0  0  0
 20 60  1  1  0  0  0
 21 25  1  0  0  0  0
 21 61  1  0  0  0  0
 21 62  1  0  0  0  0
 22 63  1  0  0  0  0
 23 64  1  0  0  0  0
 23 65  1  0  0  0  0
 23 66  1  0  0  0  0
 24 26  1  0  0  0  0
 24 67  1  0  0  0  0
 24 68  1  0  0  0  0
 25 26  1  0  0  0  0
 25 69  1  0  0  0  0
 25 70  1  0  0  0  0
 26  1  1  0  0  0  0
 26 71  1  6  0  0  0
 27 72  1  0  0  0  0
 27 73  1  0  0  0  0
 27 74  1  0  0  0  0
 28 29  2  0  0  0  0
 28 75  1  0  0  0  0
 29 31  1  0  0  0  0
 29 76  1  0  0  0  0
 30  1  1  0  0  0  0
 30 33  1  6  0  0  0
 30 77  1  0  0  0  0
 31 32  1  0  0  0  0
 31 34  1  0  0  0  0
 31 78  1  0  0  0  0
 32 38  1  0  0  0  0
 32 39  1  0  0  0  0
 32 40  1  0  0  0  0
 33  3  1  0  0  0  0
 33 35  1  6  0  0  0
 33 79  1  0  0  0  0
 34 41  1  0  0  0  0
 34 80  1  0  0  0  0
 34 81  1  0  0  0  0
 35  4  1  0  0  0  0
 35 37  1  1  0  0  0
 35 82  1  0  0  0  0
 36 37  1  6  0  0  0
 36 42  1  0  0  0  0
 36 83  1  0  0  0  0
 37  5  1  0  0  0  0
 37 84  1  1  0  0  0
 38 91  1  0  0  0  0
 38 92  1  0  0  0  0
 38 93  1  0  0  0  0
 39 88  1  0  0  0  0
 39 89  1  0  0  0  0
 39 90  1  0  0  0  0
 40 85  1  0  0  0  0
 40 86  1  0  0  0  0
 40 87  1  0  0  0  0
 41 94  1  0  0  0  0
 41 95  1  0  0  0  0
 41 96  1  0  0  0  0
 42 98  1  0  0  0  0
 42 99  1  0  0  0  0
M  END
>  <PUBCHEM_COMPOUND_CID>
16655785

>  <PUBCHEM_COMPOUND_CANONICALIZED>
1

>  <PUBCHEM_CACTVS_COMPLEXITY>
1000

>  <PUBCHEM_CACTVS_HBOND_ACCEPTOR>
6

>  <PUBCHEM_CACTVS_HBOND_DONOR>
4

>  <PUBCHEM_CACTVS_ROTATABLE_BOND>
8

>  <PUBCHEM_CACTVS_SUBSKEYS>
AAADcfB8OAAAAAAAAAAAAAAAAAAAAYAAAAA0YIEAAAAAAGCAAAAAGgAACAAADxSwgAMCCAAABgCAAiBCAAAAAAAgAAAICAAAAAgREAIAAQAiQAAFwAAPAAPA4PwPgAAAAAAAAADAAAQAACAAAQAACAAAAA==

>  <PUBCHEM_IUPAC_OPENEYE_NAME>
(2R,3R,4S,5S,6R)-2-[[(3S,8S,9S,10R,13R,14S,17R)-17-[(E,1R)-4-ethyl-1,5,5-trimethyl-hex-2-enyl]-10,13-dimethyl-2,3,4,7,8,9,11,12,14,15,16,17-dodecahydro-1H-cyclopenta[a]phenanthren-3-yl]oxy]-6-(hydroxymethyl)tetrahydropyran-3,4,5-triol

>  <PUBCHEM_IUPAC_CAS_NAME>
(2R,3R,4S,5S,6R)-2-[[(3S,8S,9S,10R,13R,14S,17R)-17-[(E,2R)-5-ethyl-6,6-dimethylhept-3-en-2-yl]-10,13-dimethyl-2,3,4,7,8,9,11,12,14,15,16,17-dodecahydro-1H-cyclopenta[a]phenanthren-3-yl]oxy]-6-(hydroxymethyl)oxane-3,4,5-triol

>  <PUBCHEM_IUPAC_NAME>
(2R,3R,4S,5S,6R)-2-[[(3S,8S,9S,10R,13R,14S,17R)-17-[(E,2R)-5-ethyl-6,6-dimethylhept-3-en-2-yl]-10,13-dimethyl-2,3,4,7,8,9,11,12,14,15,16,17-dodecahydro-1H-cyclopenta[a]phenanthren-3-yl]oxy]-6-(hydroxymethyl)oxane-3,4,5-triol

>  <PUBCHEM_IUPAC_SYSTEMATIC_NAME>
(2R,3R,4S,5S,6R)-2-[[(3S,8S,9S,10R,13R,14S,17R)-17-[(E,2R)-5-ethyl-6,6-dimethyl-hept-3-en-2-yl]-10,13-dimethyl-2,3,4,7,8,9,11,12,14,15,16,17-dodecahydro-1H-cyclopenta[a]phenanthren-3-yl]oxy]-6-(hydroxymethyl)oxane-3,4,5-triol

>  <PUBCHEM_IUPAC_TRADITIONAL_NAME>
(2R,3R,4S,5S,6R)-2-[[(3S,8S,9S,10R,13R,14S,17R)-17-[(E,1R)-4-ethyl-1,5,5-trimethyl-hex-2-enyl]-10,13-dimethyl-2,3,4,7,8,9,11,12,14,15,16,17-dodecahydro-1H-cyclopenta[a]phenanthren-3-yl]oxy]-6-methylol-tetrahydropyran-3,4,5-triol

>  <PUBCHEM_IUPAC_INCHI>
InChI=1S/C36H60O6/c1-8-22(34(3,4)5)10-9-21(2)26-13-14-27-25-12-11-23-19-24(15-17-35(23,6)28(25)16-18-36(26,27)7)41-33-32(40)31(39)30(38)29(20-37)42-33/h9-11,21-22,24-33,37-40H,8,12-20H2,1-7H3/b10-9+/t21-,22?,24+,25+,26-,27+,28+,29-,30-,31+,32-,33-,35+,36-/m1/s1

>  <PUBCHEM_IUPAC_INCHIKEY>
FNGFDRHLEQKDDQ-CMFUQAQTSA-N

>  <PUBCHEM_XLOGP3_AA>
7.4

>  <PUBCHEM_EXACT_MASS>
588.439

>  <PUBCHEM_MOLECULAR_FORMULA>
C36H60O6

>  <PUBCHEM_MOLECULAR_WEIGHT>
588.87

>  <PUBCHEM_OPENEYE_CAN_SMILES>
CCC(C=CC(C)C1CCC2C1(CCC3C2CC=C4C3(CCC(C4)OC5C(C(C(C(O5)CO)O)O)O)C)C)C(C)(C)C

>  <PUBCHEM_OPENEYE_ISO_SMILES>
CCC(/C=C/[C@@H](C)[C@H]1CC[C@@H]2[C@@]1(CC[C@H]3[C@H]2CC=C4[C@@]3(CC[C@@H](C4)O[C@H]5[C@@H]([C@H]([C@@H]([C@H](O5)CO)O)O)O)C)C)C(C)(C)C

>  <PUBCHEM_CACTVS_TPSA>
99.4

>  <PUBCHEM_MONOISOTOPIC_WEIGHT>
588.439

>  <PUBCHEM_TOTAL_CHARGE>
0

>  <PUBCHEM_HEAVY_ATOM_COUNT>
42

>  <PUBCHEM_ATOM_DEF_STEREO_COUNT>
13

>  <PUBCHEM_ATOM_UDEF_STEREO_COUNT>
1

>  <PUBCHEM_BOND_DEF_STEREO_COUNT>
1

>  <PUBCHEM_BOND_UDEF_STEREO_COUNT>
0

>  <PUBCHEM_ISOTOPIC_ATOM_COUNT>
0

>  <PUBCHEM_COMPONENT_COUNT>
1

>  <PUBCHEM_CACTVS_TAUTO_COUNT>
1

>  <PUBCHEM_COORDINATE_TYPE>
1
5
255

>  <PUBCHEM_BONDANNOTATIONS>
26  1  5
30  1  5
10  45  6
11  46  6
13  23  5
20  27  6
33  3  6
31  78  3
36  42  5
35  4  5
37  5  6
7  18  5
8  43  6
9  44  5

$$$$
