16747731
 OpenBabel06101807152D

 68 72  0  0  1  0  0  0  0  0999 V2000
    4.5981    1.7143    0.0000 O   0  0  0  0  0  0  0  0  0  0  0  0
    4.5981   -1.2857    0.0000 O   0  0  0  0  0  0  0  0  0  0  0  0
    6.3301    1.7143    0.0000 O   0  0  0  0  0  0  0  0  0  0  0  0
    2.8660   -0.2857    0.0000 O   0  0  0  0  0  0  0  0  0  0  0  0
    6.3301   -0.2857    0.0000 O   0  0  0  0  0  0  0  0  0  0  0  0
    7.1962    4.2143    0.0000 O   0  0  0  0  0  0  0  0  0  0  0  0
    2.8660   -1.2857    0.0000 O   0  0  0  0  0  0  0  0  0  0  0  0
    4.5981    2.7143    0.0000 O   0  0  0  0  0  0  0  0  0  0  0  0
    3.6939    4.2112    0.0000 O   0  0  0  0  0  0  0  0  0  0  0  0
    5.4520    7.2836    0.0000 O   0  0  0  0  0  0  0  0  0  0  0  0
   10.6603    1.2143    0.0000 O   0  0  0  0  0  0  0  0  0  0  0  0
    2.8660   -7.2857    0.0000 O   0  0  0  0  0  0  0  0  0  0  0  0
    4.5981   -0.2857    0.0000 C   0  0  2  0  0  0  0  0  0  0  0  0
    3.7320    0.2143    0.0000 C   0  0  2  0  0  0  0  0  0  0  0  0
    5.4641    0.2143    0.0000 C   0  0  2  0  0  0  0  0  0  0  0  0
    3.7320    1.2143    0.0000 C   0  0  2  0  0  0  0  0  0  0  0  0
    5.4641    1.2143    0.0000 C   0  0  1  0  0  0  0  0  0  0  0  0
    2.8660    1.7143    0.0000 C   0  0  0  0  0  0  0  0  0  0  0  0
    6.3301    2.7143    0.0000 C   0  0  0  0  0  0  0  0  0  0  0  0
    3.7320   -1.7857    0.0000 C   0  0  0  0  0  0  0  0  0  0  0  0
    7.1962    3.2143    0.0000 C   0  0  0  0  0  0  0  0  0  0  0  0
    5.4641    3.2143    0.0000 C   0  0  0  0  0  0  0  0  0  0  0  0
    5.4641    4.2143    0.0000 C   0  0  0  0  0  0  0  0  0  0  0  0
    6.3301    4.7143    0.0000 C   0  0  0  0  0  0  0  0  0  0  0  0
    8.0622    2.7143    0.0000 C   0  0  0  0  0  0  0  0  0  0  0  0
    3.7320   -2.7857    0.0000 C   0  0  0  0  0  0  0  0  0  0  0  0
    4.5541    4.7212    0.0000 C   0  0  0  0  0  0  0  0  0  0  0  0
    6.3462    5.7558    0.0000 C   0  0  0  0  0  0  0  0  0  0  0  0
    8.9282    3.2143    0.0000 C   0  0  0  0  0  0  0  0  0  0  0  0
    8.0622    1.7143    0.0000 C   0  0  0  0  0  0  0  0  0  0  0  0
    2.8660   -3.2857    0.0000 C   0  0  0  0  0  0  0  0  0  0  0  0
    4.5461    5.7628    0.0000 C   0  0  0  0  0  0  0  0  0  0  0  0
    5.4482    6.2836    0.0000 C   0  0  0  0  0  0  0  0  0  0  0  0
    9.7942    2.7143    0.0000 C   0  0  0  0  0  0  0  0  0  0  0  0
    8.9282    1.2143    0.0000 C   0  0  0  0  0  0  0  0  0  0  0  0
    2.8660   -4.2857    0.0000 C   0  0  0  0  0  0  0  0  0  0  0  0
    9.7942    1.7143    0.0000 C   0  0  0  0  0  0  0  0  0  0  0  0
    2.0000   -4.7857    0.0000 C   0  0  0  0  0  0  0  0  0  0  0  0
    3.7320   -4.7857    0.0000 C   0  0  0  0  0  0  0  0  0  0  0  0
    2.0000   -5.7857    0.0000 C   0  0  0  0  0  0  0  0  0  0  0  0
    3.7320   -5.7857    0.0000 C   0  0  0  0  0  0  0  0  0  0  0  0
    2.8660   -6.2857    0.0000 C   0  0  0  0  0  0  0  0  0  0  0  0
    5.1350   -0.5957    0.0000 H   0  0  0  0  0  0  0  0  0  0  0  0
    3.1951    0.5243    0.0000 H   0  0  0  0  0  0  0  0  0  0  0  0
    6.0010    0.5243    0.0000 H   0  0  0  0  0  0  0  0  0  0  0  0
    3.7320    1.8343    0.0000 H   0  0  0  0  0  0  0  0  0  0  0  0
    5.4641    1.8343    0.0000 H   0  0  0  0  0  0  0  0  0  0  0  0
    3.1760    2.2513    0.0000 H   0  0  0  0  0  0  0  0  0  0  0  0
    2.3291    2.0243    0.0000 H   0  0  0  0  0  0  0  0  0  0  0  0
    2.5560    1.1774    0.0000 H   0  0  0  0  0  0  0  0  0  0  0  0
    2.3291    0.0243    0.0000 H   0  0  0  0  0  0  0  0  0  0  0  0
    6.3301   -0.9057    0.0000 H   0  0  0  0  0  0  0  0  0  0  0  0
    4.2690   -3.0957    0.0000 H   0  0  0  0  0  0  0  0  0  0  0  0
    6.8867    6.0596    0.0000 H   0  0  0  0  0  0  0  0  0  0  0  0
    8.9282    3.8343    0.0000 H   0  0  0  0  0  0  0  0  0  0  0  0
    7.5252    1.4043    0.0000 H   0  0  0  0  0  0  0  0  0  0  0  0
    2.3291   -2.9757    0.0000 H   0  0  0  0  0  0  0  0  0  0  0  0
    4.0079    6.0707    0.0000 H   0  0  0  0  0  0  0  0  0  0  0  0
   10.3312    3.0243    0.0000 H   0  0  0  0  0  0  0  0  0  0  0  0
    8.9282    0.5943    0.0000 H   0  0  0  0  0  0  0  0  0  0  0  0
    3.1534    4.5150    0.0000 H   0  0  0  0  0  0  0  0  0  0  0  0
    4.9163    7.5957    0.0000 H   0  0  0  0  0  0  0  0  0  0  0  0
    1.4631   -4.4757    0.0000 H   0  0  0  0  0  0  0  0  0  0  0  0
    4.2690   -4.4757    0.0000 H   0  0  0  0  0  0  0  0  0  0  0  0
    1.4631   -6.0957    0.0000 H   0  0  0  0  0  0  0  0  0  0  0  0
    4.2690   -6.0957    0.0000 H   0  0  0  0  0  0  0  0  0  0  0  0
   11.1972    1.5243    0.0000 H   0  0  0  0  0  0  0  0  0  0  0  0
    2.3291   -7.5957    0.0000 H   0  0  0  0  0  0  0  0  0  0  0  0
  1 16  1  0  0  0  0
  1 17  1  0  0  0  0
  2 20  1  0  0  0  0
  3 19  1  0  0  0  0
  4 51  1  0  0  0  0
  5 52  1  0  0  0  0
  6 21  1  0  0  0  0
  6 24  1  0  0  0  0
  7 20  2  0  0  0  0
  8 22  2  0  0  0  0
  9 27  1  0  0  0  0
  9 61  1  0  0  0  0
 10 33  1  0  0  0  0
 10 62  1  0  0  0  0
 11 37  1  0  0  0  0
 11 67  1  0  0  0  0
 12 42  1  0  0  0  0
 12 68  1  0  0  0  0
 13  2  1  0  0  0  0
 13 14  1  1  0  0  0
 13 43  1  0  0  0  0
 14  4  1  0  0  0  0
 14 16  1  1  0  0  0
 14 44  1  0  0  0  0
 15  5  1  0  0  0  0
 15 13  1  1  0  0  0
 15 45  1  0  0  0  0
 16 18  1  0  0  0  0
 16 46  1  1  0  0  0
 17  3  1  0  0  0  0
 17 15  1  6  0  0  0
 17 47  1  0  0  0  0
 18 48  1  0  0  0  0
 18 49  1  0  0  0  0
 18 50  1  0  0  0  0
 19 21  2  0  0  0  0
 19 22  1  0  0  0  0
 20 26  1  0  0  0  0
 21 25  1  0  0  0  0
 22 23  1  0  0  0  0
 23 24  1  0  0  0  0
 23 27  2  0  0  0  0
 24 28  2  0  0  0  0
 25 29  2  0  0  0  0
 25 30  1  0  0  0  0
 26 31  2  0  0  0  0
 26 53  1  0  0  0  0
 27 32  1  0  0  0  0
 28 33  1  0  0  0  0
 28 54  1  0  0  0  0
 29 34  1  0  0  0  0
 29 55  1  0  0  0  0
 30 35  2  0  0  0  0
 30 56  1  0  0  0  0
 31 36  1  0  0  0  0
 31 57  1  0  0  0  0
 32 33  2  0  0  0  0
 32 58  1  0  0  0  0
 34 37  2  0  0  0  0
 34 59  1  0  0  0  0
 35 37  1  0  0  0  0
 35 60  1  0  0  0  0
 36 38  2  0  0  0  0
 36 39  1  0  0  0  0
 38 40  1  0  0  0  0
 38 63  1  0  0  0  0
 39 41  2  0  0  0  0
 39 64  1  0  0  0  0
 40 42  2  0  0  0  0
 40 65  1  0  0  0  0
 41 42  1  0  0  0  0
 41 66  1  0  0  0  0
M  END
>  <PUBCHEM_COMPOUND_CID>
16747731

>  <PUBCHEM_COMPOUND_CANONICALIZED>
1

>  <PUBCHEM_CACTVS_COMPLEXITY>
1030

>  <PUBCHEM_CACTVS_HBOND_ACCEPTOR>
12

>  <PUBCHEM_CACTVS_HBOND_DONOR>
6

>  <PUBCHEM_CACTVS_ROTATABLE_BOND>
7

>  <PUBCHEM_CACTVS_SUBSKEYS>
AAADceB4PAAAAAAAAAAAAAAAAAAAAAAAAAA0YMECAAAAAACBUAAAGgAACAAADBSwmAMyDoAABgCIAqDSCAICCAAkIAAIiAFGCMgdNzaGNR6ieWCl4BUPuYfI7KzOIAAACAAIAABAAAAQABAAAAAAAAAAAA==

>  <PUBCHEM_IUPAC_OPENEYE_NAME>
[(2S,3R,4R,5S,6S)-2-[5,7-dihydroxy-2-(4-hydroxyphenyl)-4-oxo-chromen-3-yl]oxy-3,5-dihydroxy-6-methyl-tetrahydropyran-4-yl] (E)-3-(4-hydroxyphenyl)prop-2-enoate

>  <PUBCHEM_IUPAC_CAS_NAME>
(E)-3-(4-hydroxyphenyl)-2-propenoic acid [(2S,3R,4R,5S,6S)-2-[[5,7-dihydroxy-2-(4-hydroxyphenyl)-4-oxo-1-benzopyran-3-yl]oxy]-3,5-dihydroxy-6-methyl-4-oxanyl] ester

>  <PUBCHEM_IUPAC_NAME>
[(2S,3R,4R,5S,6S)-2-[5,7-dihydroxy-2-(4-hydroxyphenyl)-4-oxochromen-3-yl]oxy-3,5-dihydroxy-6-methyloxan-4-yl] (E)-3-(4-hydroxyphenyl)prop-2-enoate

>  <PUBCHEM_IUPAC_SYSTEMATIC_NAME>
[(2S,3R,4R,5S,6S)-2-[2-(4-hydroxyphenyl)-5,7-bis(oxidanyl)-4-oxidanylidene-chromen-3-yl]oxy-6-methyl-3,5-bis(oxidanyl)oxan-4-yl] (E)-3-(4-hydroxyphenyl)prop-2-enoate

>  <PUBCHEM_IUPAC_TRADITIONAL_NAME>
(E)-3-(4-hydroxyphenyl)acrylic acid [(2S,3R,4R,5S,6S)-2-[5,7-dihydroxy-2-(4-hydroxyphenyl)-4-keto-chromen-3-yl]oxy-3,5-dihydroxy-6-methyl-tetrahydropyran-4-yl] ester

>  <PUBCHEM_IUPAC_INCHI>
InChI=1S/C30H26O12/c1-14-24(36)28(41-22(35)11-4-15-2-7-17(31)8-3-15)26(38)30(39-14)42-29-25(37)23-20(34)12-19(33)13-21(23)40-27(29)16-5-9-18(32)10-6-16/h2-14,24,26,28,30-34,36,38H,1H3/b11-4+/t14-,24-,26+,28+,30-/m0/s1

>  <PUBCHEM_IUPAC_INCHIKEY>
DAIIZVGCRDFTIV-SRWXCESMSA-N

>  <PUBCHEM_XLOGP3_AA>
3.5

>  <PUBCHEM_EXACT_MASS>
578.142

>  <PUBCHEM_MOLECULAR_FORMULA>
C30H26O12

>  <PUBCHEM_MOLECULAR_WEIGHT>
578.526

>  <PUBCHEM_OPENEYE_CAN_SMILES>
CC1C(C(C(C(O1)OC2=C(OC3=CC(=CC(=C3C2=O)O)O)C4=CC=C(C=C4)O)O)OC(=O)C=CC5=CC=C(C=C5)O)O

>  <PUBCHEM_OPENEYE_ISO_SMILES>
C[C@H]1[C@@H]([C@H]([C@H]([C@@H](O1)OC2=C(OC3=CC(=CC(=C3C2=O)O)O)C4=CC=C(C=C4)O)O)OC(=O)/C=C/C5=CC=C(C=C5)O)O

>  <PUBCHEM_CACTVS_TPSA>
192

>  <PUBCHEM_MONOISOTOPIC_WEIGHT>
578.142

>  <PUBCHEM_TOTAL_CHARGE>
0

>  <PUBCHEM_HEAVY_ATOM_COUNT>
42

>  <PUBCHEM_ATOM_DEF_STEREO_COUNT>
5

>  <PUBCHEM_ATOM_UDEF_STEREO_COUNT>
0

>  <PUBCHEM_BOND_DEF_STEREO_COUNT>
1

>  <PUBCHEM_BOND_UDEF_STEREO_COUNT>
0

>  <PUBCHEM_ISOTOPIC_ATOM_COUNT>
0

>  <PUBCHEM_COMPONENT_COUNT>
1

>  <PUBCHEM_CACTVS_TAUTO_COUNT>
228

>  <PUBCHEM_COORDINATE_TYPE>
1
5
255

>  <PUBCHEM_BONDANNOTATIONS>
16  18  6
19  21  8
19  22  8
13  2  6
22  23  8
23  24  8
23  27  8
24  28  8
25  29  8
25  30  8
27  32  8
28  33  8
29  34  8
17  3  5
30  35  8
32  33  8
34  37  8
35  37  8
36  38  8
36  39  8
38  40  8
39  41  8
14  4  5
40  42  8
41  42  8
15  5  6
6  21  8
6  24  8

$$$$
