17754750
 OpenBabel06101807152D

 54 54  0  0  0  0  0  0  0  0999 V2000
    6.3301   -0.3450    0.0000 O   0  0  0  0  0  0  0  0  0  0  0  0
    5.4641    1.1550    0.0000 O   0  0  0  0  0  0  0  0  0  0  0  0
    2.8660   -5.3450    0.0000 O   0  0  0  0  0  0  0  0  0  0  0  0
    4.5981   -6.3450    0.0000 O   0  0  0  0  0  0  0  0  0  0  0  0
    8.9282    4.1550    0.0000 C   0  0  0  0  0  0  0  0  0  0  0  0
    8.9282    5.1550    0.0000 C   0  0  0  0  0  0  0  0  0  0  0  0
    8.0622    3.6550    0.0000 C   0  0  0  0  0  0  0  0  0  0  0  0
    9.7942    5.6550    0.0000 C   0  0  0  0  0  0  0  0  0  0  0  0
    8.0622    2.6550    0.0000 C   0  0  0  0  0  0  0  0  0  0  0  0
    7.1962    2.1550    0.0000 C   0  0  0  0  0  0  0  0  0  0  0  0
    9.7942    6.6550    0.0000 C   0  0  0  0  0  0  0  0  0  0  0  0
   10.6603    5.1550    0.0000 C   0  0  0  0  0  0  0  0  0  0  0  0
    7.1962    1.1550    0.0000 C   0  0  0  0  0  0  0  0  0  0  0  0
    6.3301    0.6550    0.0000 C   0  0  0  0  0  0  0  0  0  0  0  0
    5.4641   -0.8450    0.0000 C   0  0  0  0  0  0  0  0  0  0  0  0
    5.4641   -1.8450    0.0000 C   0  0  0  0  0  0  0  0  0  0  0  0
    4.5981   -3.3450    0.0000 C   0  0  0  0  0  0  0  0  0  0  0  0
    4.5981   -2.3450    0.0000 C   0  0  0  0  0  0  0  0  0  0  0  0
    3.7320   -3.8450    0.0000 C   0  0  0  0  0  0  0  0  0  0  0  0
    5.4641   -3.8450    0.0000 C   0  0  0  0  0  0  0  0  0  0  0  0
    3.7320   -4.8450    0.0000 C   0  0  0  0  0  0  0  0  0  0  0  0
    4.5981   -5.3450    0.0000 C   0  0  0  0  0  0  0  0  0  0  0  0
    5.4641   -4.8450    0.0000 C   0  0  0  0  0  0  0  0  0  0  0  0
    2.0000   -4.8450    0.0000 C   0  0  0  0  0  0  0  0  0  0  0  0
    9.1403    3.5724    0.0000 H   0  0  0  0  0  0  0  0  0  0  0  0
    9.5388    4.2627    0.0000 H   0  0  0  0  0  0  0  0  0  0  0  0
    8.7162    5.7376    0.0000 H   0  0  0  0  0  0  0  0  0  0  0  0
    8.3176    5.0473    0.0000 H   0  0  0  0  0  0  0  0  0  0  0  0
    7.8501    4.2376    0.0000 H   0  0  0  0  0  0  0  0  0  0  0  0
    7.4516    3.5473    0.0000 H   0  0  0  0  0  0  0  0  0  0  0  0
    9.2573    5.9650    0.0000 H   0  0  0  0  0  0  0  0  0  0  0  0
    8.2742    2.0724    0.0000 H   0  0  0  0  0  0  0  0  0  0  0  0
    8.6728    2.7627    0.0000 H   0  0  0  0  0  0  0  0  0  0  0  0
    6.9841    2.7376    0.0000 H   0  0  0  0  0  0  0  0  0  0  0  0
    6.5856    2.0473    0.0000 H   0  0  0  0  0  0  0  0  0  0  0  0
   10.3503    4.6181    0.0000 H   0  0  0  0  0  0  0  0  0  0  0  0
   10.4142    6.6550    0.0000 H   0  0  0  0  0  0  0  0  0  0  0  0
    9.7942    7.2750    0.0000 H   0  0  0  0  0  0  0  0  0  0  0  0
    9.1742    6.6550    0.0000 H   0  0  0  0  0  0  0  0  0  0  0  0
   11.1972    4.8450    0.0000 H   0  0  0  0  0  0  0  0  0  0  0  0
   10.9703    5.6919    0.0000 H   0  0  0  0  0  0  0  0  0  0  0  0
    7.4082    0.5724    0.0000 H   0  0  0  0  0  0  0  0  0  0  0  0
    7.8067    1.2627    0.0000 H   0  0  0  0  0  0  0  0  0  0  0  0
    5.2520   -0.2624    0.0000 H   0  0  0  0  0  0  0  0  0  0  0  0
    4.8535   -0.9527    0.0000 H   0  0  0  0  0  0  0  0  0  0  0  0
    6.0010   -2.1550    0.0000 H   0  0  0  0  0  0  0  0  0  0  0  0
    4.0611   -2.0350    0.0000 H   0  0  0  0  0  0  0  0  0  0  0  0
    3.1951   -3.5350    0.0000 H   0  0  0  0  0  0  0  0  0  0  0  0
    6.0010   -3.5350    0.0000 H   0  0  0  0  0  0  0  0  0  0  0  0
    6.0010   -5.1550    0.0000 H   0  0  0  0  0  0  0  0  0  0  0  0
    5.1350   -6.6550    0.0000 H   0  0  0  0  0  0  0  0  0  0  0  0
    2.3100   -4.3081    0.0000 H   0  0  0  0  0  0  0  0  0  0  0  0
    1.4631   -4.5350    0.0000 H   0  0  0  0  0  0  0  0  0  0  0  0
    1.6900   -5.3819    0.0000 H   0  0  0  0  0  0  0  0  0  0  0  0
  1 14  1  0  0  0  0
  1 15  1  0  0  0  0
  2 14  2  0  0  0  0
  3 21  1  0  0  0  0
  3 24  1  0  0  0  0
  4 22  1  0  0  0  0
  4 51  1  0  0  0  0
  5  6  1  0  0  0  0
  5  7  1  0  0  0  0
  5 25  1  0  0  0  0
  5 26  1  0  0  0  0
  6  8  1  0  0  0  0
  6 27  1  0  0  0  0
  6 28  1  0  0  0  0
  7  9  1  0  0  0  0
  7 29  1  0  0  0  0
  7 30  1  0  0  0  0
  8 11  1  0  0  0  0
  8 12  1  0  0  0  0
  8 31  1  0  0  0  0
  9 10  1  0  0  0  0
  9 32  1  0  0  0  0
  9 33  1  0  0  0  0
 10 13  1  0  0  0  0
 10 34  1  0  0  0  0
 10 35  1  0  0  0  0
 11 37  1  0  0  0  0
 11 38  1  0  0  0  0
 11 39  1  0  0  0  0
 12 36  1  0  0  0  0
 12 40  1  0  0  0  0
 12 41  1  0  0  0  0
 13 14  1  0  0  0  0
 13 42  1  0  0  0  0
 13 43  1  0  0  0  0
 15 16  1  0  0  0  0
 15 44  1  0  0  0  0
 15 45  1  0  0  0  0
 16 18  2  0  0  0  0
 16 46  1  0  0  0  0
 17 18  1  0  0  0  0
 17 19  2  0  0  0  0
 17 20  1  0  0  0  0
 18 47  1  0  0  0  0
 19 21  1  0  0  0  0
 19 48  1  0  0  0  0
 20 23  2  0  0  0  0
 20 49  1  0  0  0  0
 21 22  2  0  0  0  0
 22 23  1  0  0  0  0
 23 50  1  0  0  0  0
 24 52  1  0  0  0  0
 24 53  1  0  0  0  0
 24 54  1  0  0  0  0
M  END
>  <PUBCHEM_COMPOUND_CID>
17754750

>  <PUBCHEM_COMPOUND_CANONICALIZED>
1

>  <PUBCHEM_CACTVS_COMPLEXITY>
365

>  <PUBCHEM_CACTVS_HBOND_ACCEPTOR>
4

>  <PUBCHEM_CACTVS_HBOND_DONOR>
1

>  <PUBCHEM_CACTVS_ROTATABLE_BOND>
12

>  <PUBCHEM_CACTVS_SUBSKEYS>
AAADceB4OAAAAAAAAAAAAAAAAAAAAAAAAAAwAAAAAAAAAAABAAAAGgAACAAADQSgmAIyDoAABgCIAiDSCAACCAAgIAAIiAEGiIgNJjKGMRqCcCMkwBELuAeIyPCOIAABAAAAQABAAAIAAACAAAAAAAAAAA==

>  <PUBCHEM_IUPAC_OPENEYE_NAME>
[(E)-3-(4-hydroxy-3-methoxy-phenyl)allyl] 8-methylnonanoate

>  <PUBCHEM_IUPAC_CAS_NAME>
8-methylnonanoic acid [(E)-3-(4-hydroxy-3-methoxyphenyl)prop-2-enyl] ester

>  <PUBCHEM_IUPAC_NAME>
[(E)-3-(4-hydroxy-3-methoxyphenyl)prop-2-enyl] 8-methylnonanoate

>  <PUBCHEM_IUPAC_SYSTEMATIC_NAME>
[(E)-3-(3-methoxy-4-oxidanyl-phenyl)prop-2-enyl] 8-methylnonanoate

>  <PUBCHEM_IUPAC_TRADITIONAL_NAME>
8-methylpelargonic acid [(E)-3-(4-hydroxy-3-methoxy-phenyl)allyl] ester

>  <PUBCHEM_IUPAC_INCHI>
InChI=1S/C20H30O4/c1-16(2)9-6-4-5-7-11-20(22)24-14-8-10-17-12-13-18(21)19(15-17)23-3/h8,10,12-13,15-16,21H,4-7,9,11,14H2,1-3H3/b10-8+

>  <PUBCHEM_IUPAC_INCHIKEY>
MPGLKHMQOVOUKA-CSKARUKUSA-N

>  <PUBCHEM_XLOGP3_AA>
5.7

>  <PUBCHEM_EXACT_MASS>
334.214

>  <PUBCHEM_MOLECULAR_FORMULA>
C20H30O4

>  <PUBCHEM_MOLECULAR_WEIGHT>
334.456

>  <PUBCHEM_OPENEYE_CAN_SMILES>
CC(C)CCCCCCC(=O)OCC=CC1=CC(=C(C=C1)O)OC

>  <PUBCHEM_OPENEYE_ISO_SMILES>
CC(C)CCCCCCC(=O)OC/C=C/C1=CC(=C(C=C1)O)OC

>  <PUBCHEM_CACTVS_TPSA>
55.8

>  <PUBCHEM_MONOISOTOPIC_WEIGHT>
334.214

>  <PUBCHEM_TOTAL_CHARGE>
0

>  <PUBCHEM_HEAVY_ATOM_COUNT>
24

>  <PUBCHEM_ATOM_DEF_STEREO_COUNT>
0

>  <PUBCHEM_ATOM_UDEF_STEREO_COUNT>
0

>  <PUBCHEM_BOND_DEF_STEREO_COUNT>
1

>  <PUBCHEM_BOND_UDEF_STEREO_COUNT>
0

>  <PUBCHEM_ISOTOPIC_ATOM_COUNT>
0

>  <PUBCHEM_COMPONENT_COUNT>
1

>  <PUBCHEM_CACTVS_TAUTO_COUNT>
4

>  <PUBCHEM_COORDINATE_TYPE>
1
5
255

>  <PUBCHEM_BONDANNOTATIONS>
17  19  8
17  20  8
19  21  8
20  23  8
21  22  8
22  23  8

$$$$
