182071
 OpenBabel06101807152D

 24 25  0  0  0  0  0  0  0  0999 V2000
    5.0929    0.7802    0.0000 S   0  0  0  0  0  0  0  0  0  0  0  0
    7.1620    0.1080    0.0000 S   0  0  0  0  0  0  0  0  0  0  0  0
    2.5896    1.7282    0.0000 O   0  0  0  0  0  0  0  0  0  0  0  0
    3.1249    0.0809    0.0000 O   0  0  0  0  0  0  0  0  0  0  0  0
    5.9019    1.3680    0.0000 C   0  0  0  0  0  0  0  0  0  0  0  0
    6.8530    1.0590    0.0000 C   0  0  0  0  0  0  0  0  0  0  0  0
    5.5929    2.3191    0.0000 C   0  0  0  0  0  0  0  0  0  0  0  0
    7.6620    1.6468    0.0000 C   0  0  0  0  0  0  0  0  0  0  0  0
    4.2839    1.3680    0.0000 C   0  0  0  0  0  0  0  0  0  0  0  0
    4.5929    2.3191    0.0000 C   0  0  0  0  0  0  0  0  0  0  0  0
    8.4710    1.0590    0.0000 C   0  0  0  0  0  0  0  0  0  0  0  0
    8.1620    0.1080    0.0000 C   0  0  0  0  0  0  0  0  0  0  0  0
    3.3328    1.0590    0.0000 C   0  0  0  0  0  0  0  0  0  0  0  0
    8.7498   -0.7011    0.0000 C   0  0  0  0  0  0  0  0  0  0  0  0
    9.3375   -1.5101    0.0000 C   0  0  0  0  0  0  0  0  0  0  0  0
    9.9253   -2.3191    0.0000 C   0  0  0  0  0  0  0  0  0  0  0  0
    5.9573    2.8207    0.0000 H   0  0  0  0  0  0  0  0  0  0  0  0
    7.6620    2.2668    0.0000 H   0  0  0  0  0  0  0  0  0  0  0  0
    4.2284    2.8207    0.0000 H   0  0  0  0  0  0  0  0  0  0  0  0
    9.0606    1.2506    0.0000 H   0  0  0  0  0  0  0  0  0  0  0  0
    2.0000    1.5366    0.0000 H   0  0  0  0  0  0  0  0  0  0  0  0
    9.4237   -2.6835    0.0000 H   0  0  0  0  0  0  0  0  0  0  0  0
   10.2897   -2.8207    0.0000 H   0  0  0  0  0  0  0  0  0  0  0  0
   10.4269   -1.9547    0.0000 H   0  0  0  0  0  0  0  0  0  0  0  0
  1  5  1  0  0  0  0
  1  9  1  0  0  0  0
  2  6  1  0  0  0  0
  2 12  1  0  0  0  0
  3 13  1  0  0  0  0
  3 21  1  0  0  0  0
  4 13  2  0  0  0  0
  5  6  1  0  0  0  0
  5  7  2  0  0  0  0
  6  8  2  0  0  0  0
  7 10  1  0  0  0  0
  7 17  1  0  0  0  0
  8 11  1  0  0  0  0
  8 18  1  0  0  0  0
  9 10  2  0  0  0  0
  9 13  1  0  0  0  0
 10 19  1  0  0  0  0
 11 12  2  0  0  0  0
 11 20  1  0  0  0  0
 12 14  1  0  0  0  0
 14 15  3  0  0  0  0
 15 16  1  0  0  0  0
 16 22  1  0  0  0  0
 16 23  1  0  0  0  0
 16 24  1  0  0  0  0
M  END
>  <PUBCHEM_COMPOUND_CID>
182071

>  <PUBCHEM_COMPOUND_CANONICALIZED>
1

>  <PUBCHEM_CACTVS_COMPLEXITY>
341

>  <PUBCHEM_CACTVS_HBOND_ACCEPTOR>
4

>  <PUBCHEM_CACTVS_HBOND_DONOR>
1

>  <PUBCHEM_CACTVS_ROTATABLE_BOND>
3

>  <PUBCHEM_CACTVS_SUBSKEYS>
AAADccBwMABgAAAAAAAAAAAAAAAAASJAAAAAAAAAAAAAAAAB4AAAGgQACAAACACA0AAyCYAAAgjMECDSCAgDAIAkCBBIiBkACMgIJjKgFBCAcQAkwAEomYeIyKCAAAAAAAAAAAAAAAAAAAAAAAAAAAAAAA==

>  <PUBCHEM_IUPAC_OPENEYE_NAME>
5-(5-prop-1-ynyl-2-thienyl)thiophene-2-carboxylic acid

>  <PUBCHEM_IUPAC_CAS_NAME>
5-(5-prop-1-ynyl-2-thiophenyl)-2-thiophenecarboxylic acid

>  <PUBCHEM_IUPAC_NAME>
5-(5-prop-1-ynylthiophen-2-yl)thiophene-2-carboxylic acid

>  <PUBCHEM_IUPAC_SYSTEMATIC_NAME>
5-(5-prop-1-ynylthiophen-2-yl)thiophene-2-carboxylic acid

>  <PUBCHEM_IUPAC_TRADITIONAL_NAME>
5-(5-prop-1-ynyl-2-thienyl)-2-thenoic acid

>  <PUBCHEM_IUPAC_INCHI>
InChI=1S/C12H8O2S2/c1-2-3-8-4-5-9(15-8)10-6-7-11(16-10)12(13)14/h4-7H,1H3,(H,13,14)

>  <PUBCHEM_IUPAC_INCHIKEY>
SJVJMFXCINSXFF-UHFFFAOYSA-N

>  <PUBCHEM_XLOGP3_AA>
3.6

>  <PUBCHEM_EXACT_MASS>
247.997

>  <PUBCHEM_MOLECULAR_FORMULA>
C12H8O2S2

>  <PUBCHEM_MOLECULAR_WEIGHT>
248.314

>  <PUBCHEM_OPENEYE_CAN_SMILES>
CC#CC1=CC=C(S1)C2=CC=C(S2)C(=O)O

>  <PUBCHEM_OPENEYE_ISO_SMILES>
CC#CC1=CC=C(S1)C2=CC=C(S2)C(=O)O

>  <PUBCHEM_CACTVS_TPSA>
93.8

>  <PUBCHEM_MONOISOTOPIC_WEIGHT>
247.997

>  <PUBCHEM_TOTAL_CHARGE>
0

>  <PUBCHEM_HEAVY_ATOM_COUNT>
16

>  <PUBCHEM_ATOM_DEF_STEREO_COUNT>
0

>  <PUBCHEM_ATOM_UDEF_STEREO_COUNT>
0

>  <PUBCHEM_BOND_DEF_STEREO_COUNT>
0

>  <PUBCHEM_BOND_UDEF_STEREO_COUNT>
0

>  <PUBCHEM_ISOTOPIC_ATOM_COUNT>
0

>  <PUBCHEM_COMPONENT_COUNT>
1

>  <PUBCHEM_CACTVS_TAUTO_COUNT>
1

>  <PUBCHEM_COORDINATE_TYPE>
1
5
255

>  <PUBCHEM_BONDANNOTATIONS>
1  5  8
1  9  8
11  12  8
2  12  8
2  6  8
5  7  8
6  8  8
7  10  8
8  11  8
9  10  8

$$$$
