183466
 OpenBabel06101807152D

 48 50  0  0  0  0  0  0  0  0999 V2000
    6.3580   -0.3649    0.0000 O   0  0  0  0  0  0  0  0  0  0  0  0
    4.5981    2.6698    0.0000 O   0  0  0  0  0  0  0  0  0  0  0  0
    4.5981   -1.3302    0.0000 O   0  0  0  0  0  0  0  0  0  0  0  0
    2.8660    1.6698    0.0000 O   0  0  0  0  0  0  0  0  0  0  0  0
    2.8660   -0.3302    0.0000 O   0  0  0  0  0  0  0  0  0  0  0  0
    6.3465    2.7044    0.0000 O   0  0  0  0  0  0  0  0  0  0  0  0
   10.7205   -1.8644    0.0000 O   0  0  0  0  0  0  0  0  0  0  0  0
    8.9846   -2.8577    0.0000 O   0  0  0  0  0  0  0  0  0  0  0  0
    5.4641    1.1698    0.0000 C   0  0  0  0  0  0  0  0  0  0  0  0
    5.4641    0.1698    0.0000 C   0  0  0  0  0  0  0  0  0  0  0  0
    4.5981    1.6698    0.0000 C   0  0  0  0  0  0  0  0  0  0  0  0
    4.5981   -0.3302    0.0000 C   0  0  0  0  0  0  0  0  0  0  0  0
    7.2641    0.1490    0.0000 C   0  0  0  0  0  0  0  0  0  0  0  0
    3.7320    1.1698    0.0000 C   0  0  0  0  0  0  0  0  0  0  0  0
    3.7320    0.1698    0.0000 C   0  0  0  0  0  0  0  0  0  0  0  0
    6.3580    1.7044    0.0000 C   0  0  0  0  0  0  0  0  0  0  0  0
    7.2641    1.1906    0.0000 C   0  0  0  0  0  0  0  0  0  0  0  0
    8.1282   -0.3544    0.0000 C   0  0  0  0  0  0  0  0  0  0  0  0
    8.1244   -1.3544    0.0000 C   0  0  0  0  0  0  0  0  0  0  0  0
    8.9962    0.1423    0.0000 C   0  0  0  0  0  0  0  0  0  0  0  0
    8.9884   -1.8577    0.0000 C   0  0  0  0  0  0  0  0  0  0  0  0
    9.8602   -0.3611    0.0000 C   0  0  0  0  0  0  0  0  0  0  0  0
    9.8564   -1.3611    0.0000 C   0  0  0  0  0  0  0  0  0  0  0  0
    3.7320    3.1698    0.0000 C   0  0  0  0  0  0  0  0  0  0  0  0
    3.7320   -1.8302    0.0000 C   0  0  0  0  0  0  0  0  0  0  0  0
    2.0000    1.1698    0.0000 C   0  0  0  0  0  0  0  0  0  0  0  0
    2.0000    0.1698    0.0000 C   0  0  0  0  0  0  0  0  0  0  0  0
   11.5884   -1.3677    0.0000 C   0  0  0  0  0  0  0  0  0  0  0  0
    7.7998    1.5026    0.0000 H   0  0  0  0  0  0  0  0  0  0  0  0
    7.5862   -1.6623    0.0000 H   0  0  0  0  0  0  0  0  0  0  0  0
    8.9985    0.7623    0.0000 H   0  0  0  0  0  0  0  0  0  0  0  0
   10.3984   -0.0531    0.0000 H   0  0  0  0  0  0  0  0  0  0  0  0
    4.0420    3.7067    0.0000 H   0  0  0  0  0  0  0  0  0  0  0  0
    3.1951    3.4798    0.0000 H   0  0  0  0  0  0  0  0  0  0  0  0
    3.4220    2.6328    0.0000 H   0  0  0  0  0  0  0  0  0  0  0  0
    3.4220   -1.2933    0.0000 H   0  0  0  0  0  0  0  0  0  0  0  0
    3.1951   -2.1402    0.0000 H   0  0  0  0  0  0  0  0  0  0  0  0
    4.0420   -2.3672    0.0000 H   0  0  0  0  0  0  0  0  0  0  0  0
    1.6900    1.7067    0.0000 H   0  0  0  0  0  0  0  0  0  0  0  0
    1.4631    0.8598    0.0000 H   0  0  0  0  0  0  0  0  0  0  0  0
    2.3100    0.6328    0.0000 H   0  0  0  0  0  0  0  0  0  0  0  0
    2.3100    0.7067    0.0000 H   0  0  0  0  0  0  0  0  0  0  0  0
    1.4631    0.4798    0.0000 H   0  0  0  0  0  0  0  0  0  0  0  0
    1.6900   -0.3672    0.0000 H   0  0  0  0  0  0  0  0  0  0  0  0
    9.5203   -3.1698    0.0000 H   0  0  0  0  0  0  0  0  0  0  0  0
   11.8964   -1.9058    0.0000 H   0  0  0  0  0  0  0  0  0  0  0  0
   12.1266   -1.0598    0.0000 H   0  0  0  0  0  0  0  0  0  0  0  0
   11.2805   -0.8296    0.0000 H   0  0  0  0  0  0  0  0  0  0  0  0
  1 10  1  0  0  0  0
  1 13  1  0  0  0  0
  2 11  1  0  0  0  0
  2 24  1  0  0  0  0
  3 12  1  0  0  0  0
  3 25  1  0  0  0  0
  4 14  1  0  0  0  0
  4 26  1  0  0  0  0
  5 15  1  0  0  0  0
  5 27  1  0  0  0  0
  6 16  2  0  0  0  0
  7 23  1  0  0  0  0
  7 28  1  0  0  0  0
  8 21  1  0  0  0  0
  8 45  1  0  0  0  0
  9 10  2  0  0  0  0
  9 11  1  0  0  0  0
  9 16  1  0  0  0  0
 10 12  1  0  0  0  0
 11 14  2  0  0  0  0
 12 15  2  0  0  0  0
 13 17  2  0  0  0  0
 13 18  1  0  0  0  0
 14 15  1  0  0  0  0
 16 17  1  0  0  0  0
 17 29  1  0  0  0  0
 18 19  2  0  0  0  0
 18 20  1  0  0  0  0
 19 21  1  0  0  0  0
 19 30  1  0  0  0  0
 20 22  2  0  0  0  0
 20 31  1  0  0  0  0
 21 23  2  0  0  0  0
 22 23  1  0  0  0  0
 22 32  1  0  0  0  0
 24 33  1  0  0  0  0
 24 34  1  0  0  0  0
 24 35  1  0  0  0  0
 25 36  1  0  0  0  0
 25 37  1  0  0  0  0
 25 38  1  0  0  0  0
 26 39  1  0  0  0  0
 26 40  1  0  0  0  0
 26 41  1  0  0  0  0
 27 42  1  0  0  0  0
 27 43  1  0  0  0  0
 27 44  1  0  0  0  0
 28 46  1  0  0  0  0
 28 47  1  0  0  0  0
 28 48  1  0  0  0  0
M  END
>  <PUBCHEM_COMPOUND_CID>
183466

>  <PUBCHEM_COMPOUND_CANONICALIZED>
1

>  <PUBCHEM_CACTVS_COMPLEXITY>
579

>  <PUBCHEM_CACTVS_HBOND_ACCEPTOR>
8

>  <PUBCHEM_CACTVS_HBOND_DONOR>
1

>  <PUBCHEM_CACTVS_ROTATABLE_BOND>
6

>  <PUBCHEM_CACTVS_SUBSKEYS>
AAADceB4PAAAAAAAAAAAAAAAAAAAAAAAAAAwYIAAAAAAAACBQAAAGgAACAAADASAmAIyBoAABgCIAqBSAAACCAAkIAAIiAEGiMgNJzaGNRqCeWOl4BULuQfK7LzOIQABCAAIQABCAAIQABCAAAAAAAAAAA==

>  <PUBCHEM_IUPAC_OPENEYE_NAME>
2-(3-hydroxy-4-methoxy-phenyl)-5,6,7,8-tetramethoxy-chromen-4-one

>  <PUBCHEM_IUPAC_CAS_NAME>
2-(3-hydroxy-4-methoxyphenyl)-5,6,7,8-tetramethoxy-1-benzopyran-4-one

>  <PUBCHEM_IUPAC_NAME>
2-(3-hydroxy-4-methoxyphenyl)-5,6,7,8-tetramethoxychromen-4-one

>  <PUBCHEM_IUPAC_SYSTEMATIC_NAME>
5,6,7,8-tetramethoxy-2-(4-methoxy-3-oxidanyl-phenyl)chromen-4-one

>  <PUBCHEM_IUPAC_TRADITIONAL_NAME>
2-(3-hydroxy-4-methoxy-phenyl)-5,6,7,8-tetramethoxy-chromone

>  <PUBCHEM_IUPAC_INCHI>
InChI=1S/C20H20O8/c1-23-13-7-6-10(8-11(13)21)14-9-12(22)15-16(24-2)18(25-3)20(27-5)19(26-4)17(15)28-14/h6-9,21H,1-5H3

>  <PUBCHEM_IUPAC_INCHIKEY>
XFYYZBJXMSDKCV-UHFFFAOYSA-N

>  <PUBCHEM_XLOGP3_AA>
2.7

>  <PUBCHEM_EXACT_MASS>
388.116

>  <PUBCHEM_MOLECULAR_FORMULA>
C20H20O8

>  <PUBCHEM_MOLECULAR_WEIGHT>
388.372

>  <PUBCHEM_OPENEYE_CAN_SMILES>
COC1=C(C=C(C=C1)C2=CC(=O)C3=C(O2)C(=C(C(=C3OC)OC)OC)OC)O

>  <PUBCHEM_OPENEYE_ISO_SMILES>
COC1=C(C=C(C=C1)C2=CC(=O)C3=C(O2)C(=C(C(=C3OC)OC)OC)OC)O

>  <PUBCHEM_CACTVS_TPSA>
92.7

>  <PUBCHEM_MONOISOTOPIC_WEIGHT>
388.116

>  <PUBCHEM_TOTAL_CHARGE>
0

>  <PUBCHEM_HEAVY_ATOM_COUNT>
28

>  <PUBCHEM_ATOM_DEF_STEREO_COUNT>
0

>  <PUBCHEM_ATOM_UDEF_STEREO_COUNT>
0

>  <PUBCHEM_BOND_DEF_STEREO_COUNT>
0

>  <PUBCHEM_BOND_UDEF_STEREO_COUNT>
0

>  <PUBCHEM_ISOTOPIC_ATOM_COUNT>
0

>  <PUBCHEM_COMPONENT_COUNT>
1

>  <PUBCHEM_CACTVS_TAUTO_COUNT>
3

>  <PUBCHEM_COORDINATE_TYPE>
1
5
255

>  <PUBCHEM_BONDANNOTATIONS>
1  10  8
1  13  8
10  12  8
11  14  8
12  15  8
13  17  8
14  15  8
16  17  8
18  19  8
18  20  8
19  21  8
20  22  8
21  23  8
22  23  8
9  10  8
9  11  8
9  16  8

$$$$
