18410556
 OpenBabel06101807152D

 38 37  0  0  1  0  0  0  0  0999 V2000
    4.5981    0.1550    0.0000 S   0  0  3  0  0  0  0  0  0  0  0  0
    8.0622   -0.8450    0.0000 O   0  0  0  0  0  0  0  0  0  0  0  0
    5.4641   -1.3450    0.0000 O   0  0  0  0  0  0  0  0  0  0  0  0
   12.3923    0.6550    0.0000 O   0  0  0  0  0  0  0  0  0  0  0  0
    7.1962   -1.3450    0.0000 O   0  0  0  0  0  0  0  0  0  0  0  0
    4.5981   -0.8450    0.0000 O   0  0  0  0  0  0  0  0  0  0  0  0
   11.5263   -0.8450    0.0000 O   0  0  0  0  0  0  0  0  0  0  0  0
    7.1962    0.6550    0.0000 N   0  0  0  0  0  0  0  0  0  0  0  0
   10.6603    1.6550    0.0000 N   0  0  0  0  0  0  0  0  0  0  0  0
    9.7942    0.1550    0.0000 C   0  0  0  0  0  0  0  0  0  0  0  0
    6.3301    0.1550    0.0000 C   0  0  3  0  0  0  0  0  0  0  0  0
    8.9282    0.6550    0.0000 C   0  0  0  0  0  0  0  0  0  0  0  0
   10.6603    0.6550    0.0000 C   0  0  3  0  0  0  0  0  0  0  0  0
    5.4641    0.6550    0.0000 C   0  0  0  0  0  0  0  0  0  0  0  0
    8.0622    0.1550    0.0000 C   0  0  0  0  0  0  0  0  0  0  0  0
    6.3301   -0.8450    0.0000 C   0  0  0  0  0  0  0  0  0  0  0  0
   11.5263    0.1550    0.0000 C   0  0  0  0  0  0  0  0  0  0  0  0
    3.7320    0.6550    0.0000 C   0  0  0  0  0  0  0  0  0  0  0  0
    2.8660    0.1550    0.0000 C   0  0  0  0  0  0  0  0  0  0  0  0
    2.0000    0.6550    0.0000 C   0  0  0  0  0  0  0  0  0  0  0  0
    9.3957   -0.3199    0.0000 H   0  0  0  0  0  0  0  0  0  0  0  0
   10.1928   -0.3199    0.0000 H   0  0  0  0  0  0  0  0  0  0  0  0
    6.8671   -0.1550    0.0000 H   0  0  0  0  0  0  0  0  0  0  0  0
    9.3267    1.1300    0.0000 H   0  0  0  0  0  0  0  0  0  0  0  0
    8.5297    1.1300    0.0000 H   0  0  0  0  0  0  0  0  0  0  0  0
   11.1972    0.9650    0.0000 H   0  0  0  0  0  0  0  0  0  0  0  0
    5.8626    1.1300    0.0000 H   0  0  0  0  0  0  0  0  0  0  0  0
    5.0656    1.1300    0.0000 H   0  0  0  0  0  0  0  0  0  0  0  0
    7.1962    1.2750    0.0000 H   0  0  0  0  0  0  0  0  0  0  0  0
   11.1972    1.9650    0.0000 H   0  0  0  0  0  0  0  0  0  0  0  0
   10.1233    1.9650    0.0000 H   0  0  0  0  0  0  0  0  0  0  0  0
    3.7320    1.2750    0.0000 H   0  0  0  0  0  0  0  0  0  0  0  0
    5.4641   -1.9650    0.0000 H   0  0  0  0  0  0  0  0  0  0  0  0
    2.8660   -0.4650    0.0000 H   0  0  0  0  0  0  0  0  0  0  0  0
   12.9292    0.3450    0.0000 H   0  0  0  0  0  0  0  0  0  0  0  0
    2.3100    1.1919    0.0000 H   0  0  0  0  0  0  0  0  0  0  0  0
    1.4631    0.9650    0.0000 H   0  0  0  0  0  0  0  0  0  0  0  0
    1.6900    0.1181    0.0000 H   0  0  0  0  0  0  0  0  0  0  0  0
  1  6  2  0  0  0  0
  1 14  1  0  0  0  0
  1 18  1  0  0  0  0
  2 15  2  0  0  0  0
  3 16  1  0  0  0  0
  3 33  1  0  0  0  0
  4 17  1  0  0  0  0
  4 35  1  0  0  0  0
  5 16  2  0  0  0  0
  7 17  2  0  0  0  0
  8 11  1  0  0  0  0
  8 15  1  0  0  0  0
  8 29  1  0  0  0  0
  9 13  1  0  0  0  0
  9 30  1  0  0  0  0
  9 31  1  0  0  0  0
 10 12  1  0  0  0  0
 10 13  1  0  0  0  0
 10 21  1  0  0  0  0
 10 22  1  0  0  0  0
 11 14  1  0  0  0  0
 11 16  1  0  0  0  0
 11 23  1  0  0  0  0
 12 15  1  0  0  0  0
 12 24  1  0  0  0  0
 12 25  1  0  0  0  0
 13 17  1  0  0  0  0
 13 26  1  0  0  0  0
 14 27  1  0  0  0  0
 14 28  1  0  0  0  0
 18 19  2  0  0  0  0
 18 32  1  0  0  0  0
 19 20  1  0  0  0  0
 19 34  1  0  0  0  0
 20 36  1  0  0  0  0
 20 37  1  0  0  0  0
 20 38  1  0  0  0  0
M  END
>  <PUBCHEM_COMPOUND_CID>
18410556

>  <PUBCHEM_COMPOUND_CANONICALIZED>
1

>  <PUBCHEM_CACTVS_COMPLEXITY>
423

>  <PUBCHEM_CACTVS_HBOND_ACCEPTOR>
8

>  <PUBCHEM_CACTVS_HBOND_DONOR>
4

>  <PUBCHEM_CACTVS_ROTATABLE_BOND>
9

>  <PUBCHEM_CACTVS_SUBSKEYS>
AAADceBzOABAAAAAAAAAAAAAAAAAAAAAAAAAAAAAAAAAAAAAAAAAHgQQCAAACCjFwASCCALAAgqIACHSGEBAAAAAABAIAIGIAAACABIggSAEQAAEFgCQAACcFwIAAAAAAAAAAAAAAAAAAAAAAAAAAAAAAA==

>  <PUBCHEM_IUPAC_OPENEYE_NAME>
2-amino-5-[[1-carboxy-2-[(E)-prop-1-enyl]sulfinyl-ethyl]amino]-5-oxo-pentanoic acid

>  <PUBCHEM_IUPAC_CAS_NAME>
2-amino-5-[[1-carboxy-2-[(E)-prop-1-enyl]sulfinylethyl]amino]-5-oxopentanoic acid

>  <PUBCHEM_IUPAC_NAME>
2-amino-5-[[1-carboxy-2-[(E)-prop-1-enyl]sulfinylethyl]amino]-5-oxopentanoic acid

>  <PUBCHEM_IUPAC_SYSTEMATIC_NAME>
2-azanyl-5-oxidanylidene-5-[[1-oxidanyl-1-oxidanylidene-3-[(E)-prop-1-enyl]sulfinyl-propan-2-yl]amino]pentanoic acid

>  <PUBCHEM_IUPAC_TRADITIONAL_NAME>
2-amino-5-[[1-carboxy-2-[(E)-prop-1-enyl]sulfinyl-ethyl]amino]-5-keto-valeric acid

>  <PUBCHEM_IUPAC_INCHI>
InChI=1S/C11H18N2O6S/c1-2-5-20(19)6-8(11(17)18)13-9(14)4-3-7(12)10(15)16/h2,5,7-8H,3-4,6,12H2,1H3,(H,13,14)(H,15,16)(H,17,18)/b5-2+

>  <PUBCHEM_IUPAC_INCHIKEY>
LMNDKWXDMBGGAL-GORDUTHDSA-N

>  <PUBCHEM_XLOGP3_AA>
-4.2

>  <PUBCHEM_EXACT_MASS>
306.089

>  <PUBCHEM_MOLECULAR_FORMULA>
C11H18N2O6S

>  <PUBCHEM_MOLECULAR_WEIGHT>
306.333

>  <PUBCHEM_OPENEYE_CAN_SMILES>
CC=CS(=O)CC(C(=O)O)NC(=O)CCC(C(=O)O)N

>  <PUBCHEM_OPENEYE_ISO_SMILES>
C/C=C/S(=O)CC(C(=O)O)NC(=O)CCC(C(=O)O)N

>  <PUBCHEM_CACTVS_TPSA>
166

>  <PUBCHEM_MONOISOTOPIC_WEIGHT>
306.089

>  <PUBCHEM_TOTAL_CHARGE>
0

>  <PUBCHEM_HEAVY_ATOM_COUNT>
20

>  <PUBCHEM_ATOM_DEF_STEREO_COUNT>
0

>  <PUBCHEM_ATOM_UDEF_STEREO_COUNT>
3

>  <PUBCHEM_BOND_DEF_STEREO_COUNT>
1

>  <PUBCHEM_BOND_UDEF_STEREO_COUNT>
0

>  <PUBCHEM_ISOTOPIC_ATOM_COUNT>
0

>  <PUBCHEM_COMPONENT_COUNT>
1

>  <PUBCHEM_CACTVS_TAUTO_COUNT>
2

>  <PUBCHEM_COORDINATE_TYPE>
1
5
255

>  <PUBCHEM_BONDANNOTATIONS>
1  18  3
11  16  3
13  9  3

$$$$
