184579
 OpenBabel06101807152D

 25 27  0  0  0  0  0  0  0  0999 V2000
    6.3518    0.4963    0.0000 S   0  0  0  0  0  0  0  0  0  0  0  0
    8.0321   -0.0608    0.0000 S   0  0  0  0  0  0  0  0  0  0  0  0
    4.5274    0.8518    0.0000 N   0  0  0  0  0  0  0  0  0  0  0  0
    6.7328   -1.2631    0.0000 N   0  0  0  0  0  0  0  0  0  0  0  0
    5.0274   -0.6871    0.0000 C   0  0  0  0  0  0  0  0  0  0  0  0
    4.0274   -0.6871    0.0000 C   0  0  0  0  0  0  0  0  0  0  0  0
    3.7183    0.2640    0.0000 C   0  0  0  0  0  0  0  0  0  0  0  0
    5.3364    0.2640    0.0000 C   0  0  0  0  0  0  0  0  0  0  0  0
    5.7123   -1.4718    0.0000 C   0  0  0  0  0  0  0  0  0  0  0  0
    3.3424   -1.4718    0.0000 C   0  0  0  0  0  0  0  0  0  0  0  0
    2.7029    0.4963    0.0000 C   0  0  0  0  0  0  0  0  0  0  0  0
    2.3219   -1.2631    0.0000 C   0  0  0  0  0  0  0  0  0  0  0  0
    2.0000   -0.2724    0.0000 C   0  0  0  0  0  0  0  0  0  0  0  0
    7.0547   -0.2724    0.0000 C   0  0  0  0  0  0  0  0  0  0  0  0
    8.7040   -0.8013    0.0000 C   0  0  0  0  0  0  0  0  0  0  0  0
    5.1824   -1.7936    0.0000 H   0  0  0  0  0  0  0  0  0  0  0  0
    5.9387   -2.0490    0.0000 H   0  0  0  0  0  0  0  0  0  0  0  0
    4.5274    1.4718    0.0000 H   0  0  0  0  0  0  0  0  0  0  0  0
    3.5408   -2.0592    0.0000 H   0  0  0  0  0  0  0  0  0  0  0  0
    2.5182    1.0881    0.0000 H   0  0  0  0  0  0  0  0  0  0  0  0
    1.9088   -1.7254    0.0000 H   0  0  0  0  0  0  0  0  0  0  0  0
    1.3940   -0.1412    0.0000 H   0  0  0  0  0  0  0  0  0  0  0  0
    8.2449   -1.2180    0.0000 H   0  0  0  0  0  0  0  0  0  0  0  0
    9.1207   -1.2605    0.0000 H   0  0  0  0  0  0  0  0  0  0  0  0
    9.1632   -0.3847    0.0000 H   0  0  0  0  0  0  0  0  0  0  0  0
  1  8  1  0  0  0  0
  1 14  1  0  0  0  0
  2 14  1  0  0  0  0
  2 15  1  0  0  0  0
  3  7  1  0  0  0  0
  3  8  1  0  0  0  0
  3 18  1  0  0  0  0
  4  9  1  0  0  0  0
  4 14  2  0  0  0  0
  5  6  1  0  0  0  0
  5  8  2  0  0  0  0
  5  9  1  0  0  0  0
  6  7  1  0  0  0  0
  6 10  2  0  0  0  0
  7 11  2  0  0  0  0
  9 16  1  0  0  0  0
  9 17  1  0  0  0  0
 10 12  1  0  0  0  0
 10 19  1  0  0  0  0
 11 13  1  0  0  0  0
 11 20  1  0  0  0  0
 12 13  2  0  0  0  0
 12 21  1  0  0  0  0
 13 22  1  0  0  0  0
 15 23  1  0  0  0  0
 15 24  1  0  0  0  0
 15 25  1  0  0  0  0
M  END
>  <PUBCHEM_COMPOUND_CID>
184579

>  <PUBCHEM_COMPOUND_CANONICALIZED>
1

>  <PUBCHEM_CACTVS_COMPLEXITY>
280

>  <PUBCHEM_CACTVS_HBOND_ACCEPTOR>
3

>  <PUBCHEM_CACTVS_HBOND_DONOR>
1

>  <PUBCHEM_CACTVS_ROTATABLE_BOND>
1

>  <PUBCHEM_CACTVS_SUBSKEYS>
AAADccBzAABgAAAAAAAAAAAAAAAAAWAAAAAwQAAAAAAAAFgB8AAAHAQQAAAADAjBXgSywfLJkAigAyRiRACC0yBhCjAImTAwZJgIIOLg0ZGEIAhgkADIyAcQgMAOgAAAAAACAAAAAAAAAAQAAAAAAAAAAA==

>  <PUBCHEM_IUPAC_OPENEYE_NAME>
2-methylsulfanyl-4,9-dihydro-[1,3]thiazino[6,5-b]indole

>  <PUBCHEM_IUPAC_CAS_NAME>
2-(methylthio)-4,9-dihydro-[1,3]thiazino[6,5-b]indole

>  <PUBCHEM_IUPAC_NAME>
2-methylsulfanyl-4,9-dihydro-[1,3]thiazino[6,5-b]indole

>  <PUBCHEM_IUPAC_SYSTEMATIC_NAME>
2-methylsulfanyl-4,9-dihydro-[1,3]thiazino[6,5-b]indole

>  <PUBCHEM_IUPAC_TRADITIONAL_NAME>
2-(methylthio)-4,9-dihydro-[1,3]thiazin[6,5-b]indole

>  <PUBCHEM_IUPAC_INCHI>
InChI=1S/C11H10N2S2/c1-14-11-12-6-8-7-4-2-3-5-9(7)13-10(8)15-11/h2-5,13H,6H2,1H3

>  <PUBCHEM_IUPAC_INCHIKEY>
MVMVWNMQGBYIDM-UHFFFAOYSA-N

>  <PUBCHEM_XLOGP3_AA>
3.3

>  <PUBCHEM_EXACT_MASS>
234.029

>  <PUBCHEM_MOLECULAR_FORMULA>
C11H10N2S2

>  <PUBCHEM_MOLECULAR_WEIGHT>
234.335

>  <PUBCHEM_OPENEYE_CAN_SMILES>
CSC1=NCC2=C(S1)NC3=CC=CC=C23

>  <PUBCHEM_OPENEYE_ISO_SMILES>
CSC1=NCC2=C(S1)NC3=CC=CC=C23

>  <PUBCHEM_CACTVS_TPSA>
78.8

>  <PUBCHEM_MONOISOTOPIC_WEIGHT>
234.029

>  <PUBCHEM_TOTAL_CHARGE>
0

>  <PUBCHEM_HEAVY_ATOM_COUNT>
15

>  <PUBCHEM_ATOM_DEF_STEREO_COUNT>
0

>  <PUBCHEM_ATOM_UDEF_STEREO_COUNT>
0

>  <PUBCHEM_BOND_DEF_STEREO_COUNT>
0

>  <PUBCHEM_BOND_UDEF_STEREO_COUNT>
0

>  <PUBCHEM_ISOTOPIC_ATOM_COUNT>
0

>  <PUBCHEM_COMPONENT_COUNT>
1

>  <PUBCHEM_CACTVS_TAUTO_COUNT>
1

>  <PUBCHEM_COORDINATE_TYPE>
1
5
255

>  <PUBCHEM_BONDANNOTATIONS>
10  12  8
11  13  8
12  13  8
3  7  8
3  8  8
5  6  8
5  8  8
6  10  8
6  7  8
7  11  8

$$$$
