185477
 OpenBabel06101807152D

128132  0  0  1  0  0  0  0  0999 V2000
   15.8563   -2.6574    0.0000 O   0  0  0  0  0  0  0  0  0  0  0  0
   14.9961   -1.1541    0.0000 O   0  0  0  0  0  0  0  0  0  0  0  0
   20.3834   -1.1050    0.0000 C   0  0  2  0  0  0  0  0  0  0  0  0
   19.5173   -0.6051    0.0000 C   0  0  1  0  0  0  0  0  0  0  0  0
   18.6073   -1.1119    0.0000 C   0  0  2  0  0  0  0  0  0  0  0  0
   21.2494   -0.6051    0.0000 C   0  0  1  0  0  0  0  0  0  0  0  0
   18.5993   -2.1535    0.0000 C   0  0  3  0  0  0  0  0  0  0  0  0
   20.3994   -2.1466    0.0000 C   0  0  0  0  0  0  0  0  0  0  0  0
   21.2494    0.3949    0.0000 C   0  0  0  0  0  0  0  0  0  0  0  0
   22.1433    0.9296    0.0000 C   0  0  2  0  0  0  0  0  0  0  0  0
   19.5014   -2.6743    0.0000 C   0  0  0  0  0  0  0  0  0  0  0  0
   17.6639   -2.7032    0.0000 C   0  0  0  0  0  0  0  0  0  0  0  0
   23.0494    0.4158    0.0000 C   0  0  1  0  0  0  0  0  0  0  0  0
   22.1433   -1.1397    0.0000 C   0  0  0  0  0  0  0  0  0  0  0  0
   19.5173    0.3949    0.0000 C   0  0  0  0  0  0  0  0  0  0  0  0
   17.6805   -0.5478    0.0000 C   0  0  0  0  0  0  0  0  0  0  0  0
   23.0494   -0.6259    0.0000 C   0  0  0  0  0  0  0  0  0  0  0  0
   21.0261   -1.8711    0.0000 C   0  0  0  0  0  0  0  0  0  0  0  0
   20.3834    0.8949    0.0000 C   0  0  0  0  0  0  0  0  0  0  0  0
   16.7242   -2.1607    0.0000 C   0  0  2  0  0  0  0  0  0  0  0  0
   18.6150   -0.1119    0.0000 C   0  0  0  0  0  0  0  0  0  0  0  0
   22.1182    2.0143    0.0000 C   0  0  2  0  0  0  0  0  0  0  0  0
   16.7326   -1.0758    0.0000 C   0  0  0  0  0  0  0  0  0  0  0  0
   21.5915   -1.5447    0.0000 C   0  0  0  0  0  0  0  0  0  0  0  0
   23.9932    0.9510    0.0000 C   0  0  0  0  0  0  0  0  0  0  0  0
   23.0494    2.5712    0.0000 C   0  0  1  0  0  0  0  0  0  0  0  0
   23.9932    2.0360    0.0000 C   0  0  0  0  0  0  0  0  0  0  0  0
   17.1672   -3.5712    0.0000 C   0  0  0  0  0  0  0  0  0  0  0  0
   18.1672   -3.5673    0.0000 C   0  0  0  0  0  0  0  0  0  0  0  0
   23.9193   -0.0775    0.0000 C   0  0  0  0  0  0  0  0  0  0  0  0
   21.2427    2.4975    0.0000 C   0  0  0  0  0  0  0  0  0  0  0  0
   23.0378    3.5712    0.0000 C   0  0  0  0  0  0  0  0  0  0  0  0
   14.9922   -2.1540    0.0000 C   0  0  0  0  0  0  0  0  0  0  0  0
   14.1243   -2.6507    0.0000 C   0  0  0  0  0  0  0  0  0  0  0  0
   13.2602   -2.1474    0.0000 C   0  0  0  0  0  0  0  0  0  0  0  0
   12.3922   -2.6440    0.0000 C   0  0  0  0  0  0  0  0  0  0  0  0
   11.5281   -2.1407    0.0000 C   0  0  0  0  0  0  0  0  0  0  0  0
   10.6602   -2.6374    0.0000 C   0  0  0  0  0  0  0  0  0  0  0  0
    9.7961   -2.1340    0.0000 C   0  0  0  0  0  0  0  0  0  0  0  0
    8.9282   -2.6307    0.0000 C   0  0  0  0  0  0  0  0  0  0  0  0
    8.0641   -2.1273    0.0000 C   0  0  0  0  0  0  0  0  0  0  0  0
    7.1961   -2.6240    0.0000 C   0  0  0  0  0  0  0  0  0  0  0  0
    6.3320   -2.1207    0.0000 C   0  0  0  0  0  0  0  0  0  0  0  0
    5.4641   -2.6173    0.0000 C   0  0  0  0  0  0  0  0  0  0  0  0
    4.6000   -2.1140    0.0000 C   0  0  0  0  0  0  0  0  0  0  0  0
    3.7320   -2.6106    0.0000 C   0  0  0  0  0  0  0  0  0  0  0  0
    2.8680   -2.1073    0.0000 C   0  0  0  0  0  0  0  0  0  0  0  0
    2.0000   -2.6040    0.0000 C   0  0  0  0  0  0  0  0  0  0  0  0
   20.2535   -0.1801    0.0000 H   0  0  0  0  0  0  0  0  0  0  0  0
   18.6017   -2.7735    0.0000 H   0  0  0  0  0  0  0  0  0  0  0  0
   20.6175   -2.7270    0.0000 H   0  0  0  0  0  0  0  0  0  0  0  0
   21.0086   -2.0311    0.0000 H   0  0  0  0  0  0  0  0  0  0  0  0
   21.3992    1.3404    0.0000 H   0  0  0  0  0  0  0  0  0  0  0  0
   19.1041   -3.1503    0.0000 H   0  0  0  0  0  0  0  0  0  0  0  0
   19.9023   -3.1472    0.0000 H   0  0  0  0  0  0  0  0  0  0  0  0
   21.7387   -1.6095    0.0000 H   0  0  0  0  0  0  0  0  0  0  0  0
   22.5370   -1.6187    0.0000 H   0  0  0  0  0  0  0  0  0  0  0  0
   19.3053    0.9776    0.0000 H   0  0  0  0  0  0  0  0  0  0  0  0
   18.9068    0.2873    0.0000 H   0  0  0  0  0  0  0  0  0  0  0  0
   18.0887   -0.0812    0.0000 H   0  0  0  0  0  0  0  0  0  0  0  0
   17.2906   -0.0658    0.0000 H   0  0  0  0  0  0  0  0  0  0  0  0
   23.2585   -1.2096    0.0000 H   0  0  0  0  0  0  0  0  0  0  0  0
   23.6603   -0.5198    0.0000 H   0  0  0  0  0  0  0  0  0  0  0  0
   20.5512   -2.2696    0.0000 H   0  0  0  0  0  0  0  0  0  0  0  0
   21.4247   -2.3460    0.0000 H   0  0  0  0  0  0  0  0  0  0  0  0
   21.5011   -1.4726    0.0000 H   0  0  0  0  0  0  0  0  0  0  0  0
   20.3834    1.5150    0.0000 H   0  0  0  0  0  0  0  0  0  0  0  0
   16.1891   -1.8476    0.0000 H   0  0  0  0  0  0  0  0  0  0  0  0
   19.2350   -0.1167    0.0000 H   0  0  0  0  0  0  0  0  0  0  0  0
   18.6198    0.5081    0.0000 H   0  0  0  0  0  0  0  0  0  0  0  0
   17.9951   -0.1071    0.0000 H   0  0  0  0  0  0  0  0  0  0  0  0
   21.5880    1.6930    0.0000 H   0  0  0  0  0  0  0  0  0  0  0  0
   16.5281   -0.4905    0.0000 H   0  0  0  0  0  0  0  0  0  0  0  0
   16.1210   -1.1771    0.0000 H   0  0  0  0  0  0  0  0  0  0  0  0
   21.0089   -1.7568    0.0000 H   0  0  0  0  0  0  0  0  0  0  0  0
   21.8036   -2.1273    0.0000 H   0  0  0  0  0  0  0  0  0  0  0  0
   22.1741   -1.3326    0.0000 H   0  0  0  0  0  0  0  0  0  0  0  0
   24.2022    0.3673    0.0000 H   0  0  0  0  0  0  0  0  0  0  0  0
   24.6040    1.0571    0.0000 H   0  0  0  0  0  0  0  0  0  0  0  0
   22.5083    2.8740    0.0000 H   0  0  0  0  0  0  0  0  0  0  0  0
   24.6040    1.9299    0.0000 H   0  0  0  0  0  0  0  0  0  0  0  0
   24.2022    2.6197    0.0000 H   0  0  0  0  0  0  0  0  0  0  0  0
   17.6315   -3.8794    0.0000 H   0  0  0  0  0  0  0  0  0  0  0  0
   18.4793   -4.1030    0.0000 H   0  0  0  0  0  0  0  0  0  0  0  0
   16.6291   -3.2632    0.0000 H   0  0  0  0  0  0  0  0  0  0  0  0
   16.8593   -4.1093    0.0000 H   0  0  0  0  0  0  0  0  0  0  0  0
   17.7054   -3.8791    0.0000 H   0  0  0  0  0  0  0  0  0  0  0  0
   18.7030   -3.2553    0.0000 H   0  0  0  0  0  0  0  0  0  0  0  0
   23.6134   -0.6169    0.0000 H   0  0  0  0  0  0  0  0  0  0  0  0
   24.4586   -0.3834    0.0000 H   0  0  0  0  0  0  0  0  0  0  0  0
   24.2251    0.4618    0.0000 H   0  0  0  0  0  0  0  0  0  0  0  0
   21.5423    3.0403    0.0000 H   0  0  0  0  0  0  0  0  0  0  0  0
   20.6999    2.7971    0.0000 H   0  0  0  0  0  0  0  0  0  0  0  0
   20.9431    1.9547    0.0000 H   0  0  0  0  0  0  0  0  0  0  0  0
   23.6578    3.5783    0.0000 H   0  0  0  0  0  0  0  0  0  0  0  0
   23.0307    4.1911    0.0000 H   0  0  0  0  0  0  0  0  0  0  0  0
   22.4179    3.5640    0.0000 H   0  0  0  0  0  0  0  0  0  0  0  0
   13.7239   -3.1241    0.0000 H   0  0  0  0  0  0  0  0  0  0  0  0
   14.5210   -3.1272    0.0000 H   0  0  0  0  0  0  0  0  0  0  0  0
   13.6605   -1.6740    0.0000 H   0  0  0  0  0  0  0  0  0  0  0  0
   12.8635   -1.6709    0.0000 H   0  0  0  0  0  0  0  0  0  0  0  0
   11.9919   -3.1174    0.0000 H   0  0  0  0  0  0  0  0  0  0  0  0
   12.7889   -3.1205    0.0000 H   0  0  0  0  0  0  0  0  0  0  0  0
   11.9285   -1.6673    0.0000 H   0  0  0  0  0  0  0  0  0  0  0  0
   11.1314   -1.6642    0.0000 H   0  0  0  0  0  0  0  0  0  0  0  0
   10.2598   -3.1108    0.0000 H   0  0  0  0  0  0  0  0  0  0  0  0
   11.0569   -3.1138    0.0000 H   0  0  0  0  0  0  0  0  0  0  0  0
   10.1965   -1.6606    0.0000 H   0  0  0  0  0  0  0  0  0  0  0  0
    9.3994   -1.6575    0.0000 H   0  0  0  0  0  0  0  0  0  0  0  0
    8.5278   -3.1041    0.0000 H   0  0  0  0  0  0  0  0  0  0  0  0
    9.3248   -3.1072    0.0000 H   0  0  0  0  0  0  0  0  0  0  0  0
    8.4644   -1.6539    0.0000 H   0  0  0  0  0  0  0  0  0  0  0  0
    7.6674   -1.6509    0.0000 H   0  0  0  0  0  0  0  0  0  0  0  0
    6.7958   -3.0974    0.0000 H   0  0  0  0  0  0  0  0  0  0  0  0
    7.5928   -3.1005    0.0000 H   0  0  0  0  0  0  0  0  0  0  0  0
    6.7324   -1.6473    0.0000 H   0  0  0  0  0  0  0  0  0  0  0  0
    5.9353   -1.6442    0.0000 H   0  0  0  0  0  0  0  0  0  0  0  0
    5.0637   -3.0907    0.0000 H   0  0  0  0  0  0  0  0  0  0  0  0
    5.8608   -3.0938    0.0000 H   0  0  0  0  0  0  0  0  0  0  0  0
    5.0003   -1.6406    0.0000 H   0  0  0  0  0  0  0  0  0  0  0  0
    4.2033   -1.6375    0.0000 H   0  0  0  0  0  0  0  0  0  0  0  0
    3.3317   -3.0841    0.0000 H   0  0  0  0  0  0  0  0  0  0  0  0
    4.1287   -3.0871    0.0000 H   0  0  0  0  0  0  0  0  0  0  0  0
    3.2683   -1.6339    0.0000 H   0  0  0  0  0  0  0  0  0  0  0  0
    2.4712   -1.6308    0.0000 H   0  0  0  0  0  0  0  0  0  0  0  0
    1.6921   -2.0659    0.0000 H   0  0  0  0  0  0  0  0  0  0  0  0
    1.4619   -2.9119    0.0000 H   0  0  0  0  0  0  0  0  0  0  0  0
    2.3079   -3.1421    0.0000 H   0  0  0  0  0  0  0  0  0  0  0  0
  1 33  1  0  0  0  0
  2 33  2  0  0  0  0
  3  4  1  1  0  0  0
  3  8  1  0  0  0  0
  3 18  1  0  0  0  0
  4  5  1  6  0  0  0
  4 15  1  0  0  0  0
  4 49  1  0  0  0  0
  5  7  1  1  0  0  0
  5 16  1  0  0  0  0
  5 21  1  0  0  0  0
  6  3  1  1  0  0  0
  6  9  1  0  0  0  0
  6 14  1  0  0  0  0
  6 24  1  0  0  0  0
  7 11  1  0  0  0  0
  7 12  1  0  0  0  0
  7 50  1  0  0  0  0
  8 11  1  0  0  0  0
  8 51  1  0  0  0  0
  8 52  1  0  0  0  0
  9 10  1  0  0  0  0
  9 19  2  0  0  0  0
 10 13  1  6  0  0  0
 10 53  1  0  0  0  0
 11 54  1  0  0  0  0
 11 55  1  0  0  0  0
 12 20  1  0  0  0  0
 12 28  1  0  0  0  0
 12 29  1  0  0  0  0
 13 17  1  0  0  0  0
 13 25  1  0  0  0  0
 13 30  1  1  0  0  0
 14 17  1  0  0  0  0
 14 56  1  0  0  0  0
 14 57  1  0  0  0  0
 15 19  1  0  0  0  0
 15 58  1  0  0  0  0
 15 59  1  0  0  0  0
 16 23  1  0  0  0  0
 16 60  1  0  0  0  0
 16 61  1  0  0  0  0
 17 62  1  0  0  0  0
 17 63  1  0  0  0  0
 18 64  1  0  0  0  0
 18 65  1  0  0  0  0
 18 66  1  0  0  0  0
 19 67  1  0  0  0  0
 20  1  1  0  0  0  0
 20 23  1  0  0  0  0
 20 68  1  6  0  0  0
 21 69  1  0  0  0  0
 21 70  1  0  0  0  0
 21 71  1  0  0  0  0
 22 10  1  1  0  0  0
 22 31  1  0  0  0  0
 22 72  1  0  0  0  0
 23 73  1  0  0  0  0
 23 74  1  0  0  0  0
 24 75  1  0  0  0  0
 24 76  1  0  0  0  0
 24 77  1  0  0  0  0
 25 27  1  0  0  0  0
 25 78  1  0  0  0  0
 25 79  1  0  0  0  0
 26 22  1  6  0  0  0
 26 27  1  0  0  0  0
 26 32  1  0  0  0  0
 26 80  1  0  0  0  0
 27 81  1  0  0  0  0
 27 82  1  0  0  0  0
 28 85  1  0  0  0  0
 28 86  1  0  0  0  0
 28 87  1  0  0  0  0
 29 83  1  0  0  0  0
 29 84  1  0  0  0  0
 29 88  1  0  0  0  0
 30 89  1  0  0  0  0
 30 90  1  0  0  0  0
 30 91  1  0  0  0  0
 31 92  1  0  0  0  0
 31 93  1  0  0  0  0
 31 94  1  0  0  0  0
 32 95  1  0  0  0  0
 32 96  1  0  0  0  0
 32 97  1  0  0  0  0
 33 34  1  0  0  0  0
 34 35  1  0  0  0  0
 34 98  1  0  0  0  0
 34 99  1  0  0  0  0
 35 36  1  0  0  0  0
 35100  1  0  0  0  0
 35101  1  0  0  0  0
 36 37  1  0  0  0  0
 36102  1  0  0  0  0
 36103  1  0  0  0  0
 37 38  1  0  0  0  0
 37104  1  0  0  0  0
 37105  1  0  0  0  0
 38 39  1  0  0  0  0
 38106  1  0  0  0  0
 38107  1  0  0  0  0
 39 40  1  0  0  0  0
 39108  1  0  0  0  0
 39109  1  0  0  0  0
 40 41  1  0  0  0  0
 40110  1  0  0  0  0
 40111  1  0  0  0  0
 41 42  1  0  0  0  0
 41112  1  0  0  0  0
 41113  1  0  0  0  0
 42 43  1  0  0  0  0
 42114  1  0  0  0  0
 42115  1  0  0  0  0
 43 44  1  0  0  0  0
 43116  1  0  0  0  0
 43117  1  0  0  0  0
 44 45  1  0  0  0  0
 44118  1  0  0  0  0
 44119  1  0  0  0  0
 45 46  1  0  0  0  0
 45120  1  0  0  0  0
 45121  1  0  0  0  0
 46 47  1  0  0  0  0
 46122  1  0  0  0  0
 46123  1  0  0  0  0
 47 48  1  0  0  0  0
 47124  1  0  0  0  0
 47125  1  0  0  0  0
 48126  1  0  0  0  0
 48127  1  0  0  0  0
 48128  1  0  0  0  0
M  END
>  <PUBCHEM_COMPOUND_CID>
185477

>  <PUBCHEM_COMPOUND_CANONICALIZED>
1

>  <PUBCHEM_CACTVS_COMPLEXITY>
1100

>  <PUBCHEM_CACTVS_HBOND_ACCEPTOR>
2

>  <PUBCHEM_CACTVS_HBOND_DONOR>
0

>  <PUBCHEM_CACTVS_ROTATABLE_BOND>
16

>  <PUBCHEM_CACTVS_SUBSKEYS>
AAADcfB8MAAAAAAAAAAAAAAAAAAAAAAAAAAwYMGCAAAAAADAAAAAGgAAAAAADxSggAICCAAABACIAiDSCAAAAAAgAAAACAEAAAgAABIAAQACAAAEgAAIAAOIyPCPgAAAAAAAAADAAAYAADAAAAAAAAAAAA==

>  <PUBCHEM_IUPAC_OPENEYE_NAME>
[(3S,6aR,6bS,8aR,11R,12S,12aS,14aR,14bR)-4,4,6a,6b,8a,11,12,14b-octamethyl-2,3,4a,5,6,7,8,9,10,11,12,12a,14,14a-tetradecahydro-1H-picen-3-yl] hexadecanoate

>  <PUBCHEM_IUPAC_CAS_NAME>
hexadecanoic acid [(3S,6aR,6bS,8aR,11R,12S,12aS,14aR,14bR)-4,4,6a,6b,8a,11,12,14b-octamethyl-2,3,4a,5,6,7,8,9,10,11,12,12a,14,14a-tetradecahydro-1H-picen-3-yl] ester

>  <PUBCHEM_IUPAC_NAME>
[(3S,6aR,6bS,8aR,11R,12S,12aS,14aR,14bR)-4,4,6a,6b,8a,11,12,14b-octamethyl-2,3,4a,5,6,7,8,9,10,11,12,12a,14,14a-tetradecahydro-1H-picen-3-yl] hexadecanoate

>  <PUBCHEM_IUPAC_SYSTEMATIC_NAME>
[(3S,6aR,6bS,8aR,11R,12S,12aS,14aR,14bR)-4,4,6a,6b,8a,11,12,14b-octamethyl-2,3,4a,5,6,7,8,9,10,11,12,12a,14,14a-tetradecahydro-1H-picen-3-yl] hexadecanoate

>  <PUBCHEM_IUPAC_TRADITIONAL_NAME>
palmitic acid [(3S,6aR,6bS,8aR,11R,12S,12aS,14aR,14bR)-4,4,6a,6b,8a,11,12,14b-octamethyl-2,3,4a,5,6,7,8,9,10,11,12,12a,14,14a-tetradecahydro-1H-picen-3-yl] ester

>  <PUBCHEM_IUPAC_INCHI>
InChI=1S/C46H80O2/c1-10-11-12-13-14-15-16-17-18-19-20-21-22-23-40(47)48-39-28-30-44(7)37(42(39,4)5)27-31-46(9)38(44)25-24-36-41-35(3)34(2)26-29-43(41,6)32-33-45(36,46)8/h24,34-35,37-39,41H,10-23,25-33H2,1-9H3/t34-,35+,37?,38-,39+,41-,43-,44+,45-,46-/m1/s1

>  <PUBCHEM_IUPAC_INCHIKEY>
BHPGRVQWTLDDQX-MYFXNNOVSA-N

>  <PUBCHEM_XLOGP3_AA>
16.9

>  <PUBCHEM_EXACT_MASS>
664.616

>  <PUBCHEM_MOLECULAR_FORMULA>
C46H80O2

>  <PUBCHEM_MOLECULAR_WEIGHT>
665.144

>  <PUBCHEM_OPENEYE_CAN_SMILES>
CCCCCCCCCCCCCCCC(=O)OC1CCC2(C(C1(C)C)CCC3(C2CC=C4C3(CCC5(C4C(C(CC5)C)C)C)C)C)C

>  <PUBCHEM_OPENEYE_ISO_SMILES>
CCCCCCCCCCCCCCCC(=O)O[C@H]1CC[C@@]2([C@H]3CC=C4[C@H]5[C@H]([C@@H](CC[C@@]5(CC[C@]4([C@@]3(CCC2C1(C)C)C)C)C)C)C)C

>  <PUBCHEM_CACTVS_TPSA>
26.3

>  <PUBCHEM_MONOISOTOPIC_WEIGHT>
664.616

>  <PUBCHEM_TOTAL_CHARGE>
0

>  <PUBCHEM_HEAVY_ATOM_COUNT>
48

>  <PUBCHEM_ATOM_DEF_STEREO_COUNT>
9

>  <PUBCHEM_ATOM_UDEF_STEREO_COUNT>
1

>  <PUBCHEM_BOND_DEF_STEREO_COUNT>
0

>  <PUBCHEM_BOND_UDEF_STEREO_COUNT>
0

>  <PUBCHEM_ISOTOPIC_ATOM_COUNT>
0

>  <PUBCHEM_COMPONENT_COUNT>
1

>  <PUBCHEM_CACTVS_TAUTO_COUNT>
1

>  <PUBCHEM_COORDINATE_TYPE>
1
5
255

>  <PUBCHEM_BONDANNOTATIONS>
20  1  5
10  53  6
13  30  5
22  31  5
26  32  6
3  18  5
4  49  6
5  21  5
6  24  6
7  11  3

$$$$
