188341
 OpenBabel06101807152D

 50 53  0  0  0  0  0  0  0  0999 V2000
    3.9061   -0.1897    0.0000 O   0  0  0  0  0  0  0  0  0  0  0  0
    7.4260   -0.1897    0.0000 O   0  0  0  0  0  0  0  0  0  0  0  0
    5.6660    2.8450    0.0000 O   0  0  0  0  0  0  0  0  0  0  0  0
    7.4144    2.8796    0.0000 O   0  0  0  0  0  0  0  0  0  0  0  0
    9.2517   -1.2327    0.0000 O   0  0  0  0  0  0  0  0  0  0  0  0
    3.0000    0.3242    0.0000 C   0  0  0  0  0  0  0  0  0  0  0  0
    4.8000    0.3450    0.0000 C   0  0  0  0  0  0  0  0  0  0  0  0
    5.6660   -0.1550    0.0000 C   0  0  0  0  0  0  0  0  0  0  0  0
    4.8000    1.3450    0.0000 C   0  0  0  0  0  0  0  0  0  0  0  0
    6.5320    0.3450    0.0000 C   0  0  0  0  0  0  0  0  0  0  0  0
    6.5320    1.3450    0.0000 C   0  0  0  0  0  0  0  0  0  0  0  0
    3.0000    1.3658    0.0000 C   0  0  0  0  0  0  0  0  0  0  0  0
    5.6660    1.8450    0.0000 C   0  0  0  0  0  0  0  0  0  0  0  0
    3.9061    1.8797    0.0000 C   0  0  0  0  0  0  0  0  0  0  0  0
    5.6660   -1.1550    0.0000 C   0  0  0  0  0  0  0  0  0  0  0  0
    2.0000    0.3203    0.0000 C   0  0  0  0  0  0  0  0  0  0  0  0
    2.5033   -0.5438    0.0000 C   0  0  0  0  0  0  0  0  0  0  0  0
    7.4260    1.8797    0.0000 C   0  0  0  0  0  0  0  0  0  0  0  0
    8.3321    1.3658    0.0000 C   0  0  0  0  0  0  0  0  0  0  0  0
    8.3321    0.3242    0.0000 C   0  0  0  0  0  0  0  0  0  0  0  0
    4.8000   -1.6550    0.0000 C   0  0  0  0  0  0  0  0  0  0  0  0
    9.2632    1.9227    0.0000 C   0  0  0  0  0  0  0  0  0  0  0  0
    9.2632   -0.2327    0.0000 C   0  0  0  0  0  0  0  0  0  0  0  0
    4.8000   -2.6550    0.0000 C   0  0  0  0  0  0  0  0  0  0  0  0
   10.2070    1.3875    0.0000 C   0  0  0  0  0  0  0  0  0  0  0  0
   10.2070    0.3025    0.0000 C   0  0  0  0  0  0  0  0  0  0  0  0
    3.9340   -3.1550    0.0000 C   0  0  0  0  0  0  0  0  0  0  0  0
    5.6660   -3.1550    0.0000 C   0  0  0  0  0  0  0  0  0  0  0  0
    2.4643    1.6779    0.0000 H   0  0  0  0  0  0  0  0  0  0  0  0
    3.9132    2.4996    0.0000 H   0  0  0  0  0  0  0  0  0  0  0  0
    5.8781   -1.7376    0.0000 H   0  0  0  0  0  0  0  0  0  0  0  0
    6.2766   -1.0473    0.0000 H   0  0  0  0  0  0  0  0  0  0  0  0
    1.9652   -0.2358    0.0000 H   0  0  0  0  0  0  0  0  0  0  0  0
    2.1954   -1.0819    0.0000 H   0  0  0  0  0  0  0  0  0  0  0  0
    3.0415   -0.8517    0.0000 H   0  0  0  0  0  0  0  0  0  0  0  0
    1.9976    0.9403    0.0000 H   0  0  0  0  0  0  0  0  0  0  0  0
    1.3800    0.3179    0.0000 H   0  0  0  0  0  0  0  0  0  0  0  0
    2.0024   -0.2997    0.0000 H   0  0  0  0  0  0  0  0  0  0  0  0
    4.2631   -1.3450    0.0000 H   0  0  0  0  0  0  0  0  0  0  0  0
    9.2560    2.5427    0.0000 H   0  0  0  0  0  0  0  0  0  0  0  0
    5.1291    3.1550    0.0000 H   0  0  0  0  0  0  0  0  0  0  0  0
   10.7427    1.6996    0.0000 H   0  0  0  0  0  0  0  0  0  0  0  0
   10.7427   -0.0096    0.0000 H   0  0  0  0  0  0  0  0  0  0  0  0
    3.6240   -2.6181    0.0000 H   0  0  0  0  0  0  0  0  0  0  0  0
    3.3970   -3.4650    0.0000 H   0  0  0  0  0  0  0  0  0  0  0  0
    4.2440   -3.6919    0.0000 H   0  0  0  0  0  0  0  0  0  0  0  0
    5.3560   -3.6919    0.0000 H   0  0  0  0  0  0  0  0  0  0  0  0
    6.2030   -3.4650    0.0000 H   0  0  0  0  0  0  0  0  0  0  0  0
    5.9760   -2.6181    0.0000 H   0  0  0  0  0  0  0  0  0  0  0  0
    9.7850   -1.5489    0.0000 H   0  0  0  0  0  0  0  0  0  0  0  0
  1  6  1  0  0  0  0
  1  7  1  0  0  0  0
  2 10  1  0  0  0  0
  2 20  1  0  0  0  0
  3 13  1  0  0  0  0
  3 41  1  0  0  0  0
  4 18  2  0  0  0  0
  5 23  1  0  0  0  0
  5 50  1  0  0  0  0
  6 12  1  0  0  0  0
  6 16  1  0  0  0  0
  6 17  1  0  0  0  0
  7  8  2  0  0  0  0
  7  9  1  0  0  0  0
  8 10  1  0  0  0  0
  8 15  1  0  0  0  0
  9 13  2  0  0  0  0
  9 14  1  0  0  0  0
 10 11  2  0  0  0  0
 11 13  1  0  0  0  0
 11 18  1  0  0  0  0
 12 14  2  0  0  0  0
 12 29  1  0  0  0  0
 14 30  1  0  0  0  0
 15 21  1  0  0  0  0
 15 31  1  0  0  0  0
 15 32  1  0  0  0  0
 16 36  1  0  0  0  0
 16 37  1  0  0  0  0
 16 38  1  0  0  0  0
 17 33  1  0  0  0  0
 17 34  1  0  0  0  0
 17 35  1  0  0  0  0
 18 19  1  0  0  0  0
 19 20  2  0  0  0  0
 19 22  1  0  0  0  0
 20 23  1  0  0  0  0
 21 24  2  0  0  0  0
 21 39  1  0  0  0  0
 22 25  2  0  0  0  0
 22 40  1  0  0  0  0
 23 26  2  0  0  0  0
 24 27  1  0  0  0  0
 24 28  1  0  0  0  0
 25 26  1  0  0  0  0
 25 42  1  0  0  0  0
 26 43  1  0  0  0  0
 27 44  1  0  0  0  0
 27 45  1  0  0  0  0
 27 46  1  0  0  0  0
 28 47  1  0  0  0  0
 28 48  1  0  0  0  0
 28 49  1  0  0  0  0
M  END
>  <PUBCHEM_COMPOUND_CID>
188341

>  <PUBCHEM_COMPOUND_CANONICALIZED>
1

>  <PUBCHEM_CACTVS_COMPLEXITY>
677

>  <PUBCHEM_CACTVS_HBOND_ACCEPTOR>
5

>  <PUBCHEM_CACTVS_HBOND_DONOR>
2

>  <PUBCHEM_CACTVS_ROTATABLE_BOND>
2

>  <PUBCHEM_CACTVS_SUBSKEYS>
AAADceB4OAAAAAAAAAAAAAAAAAAAAAAAAAA0YIEAAAAAAACRQAAAGgAACAAADESAmAAyBoAABgCIAqBSAAACCAAkIAAIiAEGiMgNJzaGNRqCeWOl4BULuYeK7PzOIAADCAAIQABAAAYQABCAAAAAAAAAAA==

>  <PUBCHEM_IUPAC_OPENEYE_NAME>
5,10-dihydroxy-2,2-dimethyl-12-(3-methylbut-2-enyl)pyrano[3,2-b]xanthen-6-one

>  <PUBCHEM_IUPAC_CAS_NAME>
5,10-dihydroxy-2,2-dimethyl-12-(3-methylbut-2-enyl)-6-pyrano[3,2-b]xanthenone

>  <PUBCHEM_IUPAC_NAME>
5,10-dihydroxy-2,2-dimethyl-12-(3-methylbut-2-enyl)pyrano[3,2-b]xanthen-6-one

>  <PUBCHEM_IUPAC_SYSTEMATIC_NAME>
2,2-dimethyl-12-(3-methylbut-2-enyl)-5,10-bis(oxidanyl)pyrano[3,2-b]xanthen-6-one

>  <PUBCHEM_IUPAC_TRADITIONAL_NAME>
5,10-dihydroxy-2,2-dimethyl-12-(3-methylbut-2-enyl)pyrano[3,2-b]xanthen-6-one

>  <PUBCHEM_IUPAC_INCHI>
InChI=1S/C23H22O5/c1-12(2)8-9-15-20-14(10-11-23(3,4)28-20)19(26)17-18(25)13-6-5-7-16(24)21(13)27-22(15)17/h5-8,10-11,24,26H,9H2,1-4H3

>  <PUBCHEM_IUPAC_INCHIKEY>
YWHROXVOOAEFOY-UHFFFAOYSA-N

>  <PUBCHEM_XLOGP3_AA>
5.7

>  <PUBCHEM_EXACT_MASS>
378.147

>  <PUBCHEM_MOLECULAR_FORMULA>
C23H22O5

>  <PUBCHEM_MOLECULAR_WEIGHT>
378.424

>  <PUBCHEM_OPENEYE_CAN_SMILES>
CC(=CCC1=C2C(=C(C3=C1OC4=C(C3=O)C=CC=C4O)O)C=CC(O2)(C)C)C

>  <PUBCHEM_OPENEYE_ISO_SMILES>
CC(=CCC1=C2C(=C(C3=C1OC4=C(C3=O)C=CC=C4O)O)C=CC(O2)(C)C)C

>  <PUBCHEM_CACTVS_TPSA>
76

>  <PUBCHEM_MONOISOTOPIC_WEIGHT>
378.147

>  <PUBCHEM_TOTAL_CHARGE>
0

>  <PUBCHEM_HEAVY_ATOM_COUNT>
28

>  <PUBCHEM_ATOM_DEF_STEREO_COUNT>
0

>  <PUBCHEM_ATOM_UDEF_STEREO_COUNT>
0

>  <PUBCHEM_BOND_DEF_STEREO_COUNT>
0

>  <PUBCHEM_BOND_UDEF_STEREO_COUNT>
0

>  <PUBCHEM_ISOTOPIC_ATOM_COUNT>
0

>  <PUBCHEM_COMPONENT_COUNT>
1

>  <PUBCHEM_CACTVS_TAUTO_COUNT>
10

>  <PUBCHEM_COORDINATE_TYPE>
1
5
255

>  <PUBCHEM_BONDANNOTATIONS>
10  11  8
11  13  8
11  18  8
18  19  8
19  20  8
19  22  8
2  10  8
2  20  8
20  23  8
22  25  8
23  26  8
25  26  8
7  8  8
7  9  8
8  10  8
9  13  8

$$$$
