188981
 OpenBabel06101807152D

 22 22  0  0  0  0  0  0  0  0999 V2000
    2.5123   -0.4464    0.0000 O   0  0  0  0  0  0  0  0  0  0  0  0
    3.9726   -1.6110    0.0000 O   0  0  0  0  0  0  0  0  0  0  0  0
    5.6039    0.4875    0.0000 C   0  0  0  0  0  0  0  0  0  0  0  0
    6.6039    0.4875    0.0000 C   0  0  0  0  0  0  0  0  0  0  0  0
    5.1700   -0.4135    0.0000 C   0  0  0  0  0  0  0  0  0  0  0  0
    5.1700    1.3884    0.0000 C   0  0  0  0  0  0  0  0  0  0  0  0
    4.1951   -0.6360    0.0000 C   0  0  0  0  0  0  0  0  0  0  0  0
    4.1951    1.6110    0.0000 C   0  0  0  0  0  0  0  0  0  0  0  0
    3.4132   -0.0125    0.0000 C   0  0  0  0  0  0  0  0  0  0  0  0
    7.1039    1.3535    0.0000 C   0  0  0  0  0  0  0  0  0  0  0  0
    3.4132    0.9875    0.0000 C   0  0  0  0  0  0  0  0  0  0  0  0
    7.1039   -0.3786    0.0000 C   0  0  0  0  0  0  0  0  0  0  0  0
    5.5566   -0.8982    0.0000 H   0  0  0  0  0  0  0  0  0  0  0  0
    5.5566    1.8732    0.0000 H   0  0  0  0  0  0  0  0  0  0  0  0
    4.0571    2.2154    0.0000 H   0  0  0  0  0  0  0  0  0  0  0  0
    7.6408    1.0435    0.0000 H   0  0  0  0  0  0  0  0  0  0  0  0
    7.4139    1.8904    0.0000 H   0  0  0  0  0  0  0  0  0  0  0  0
    6.5669    1.6635    0.0000 H   0  0  0  0  0  0  0  0  0  0  0  0
    2.8546    1.2565    0.0000 H   0  0  0  0  0  0  0  0  0  0  0  0
    6.7939   -0.9155    0.0000 H   0  0  0  0  0  0  0  0  0  0  0  0
    7.7239   -0.3786    0.0000 H   0  0  0  0  0  0  0  0  0  0  0  0
    2.0000   -0.0972    0.0000 H   0  0  0  0  0  0  0  0  0  0  0  0
  1  9  1  0  0  0  0
  1 22  1  0  0  0  0
  2  7  2  0  0  0  0
  3  4  1  0  0  0  0
  3  5  2  0  0  0  0
  3  6  1  0  0  0  0
  4 10  1  0  0  0  0
  4 12  2  0  0  0  0
  5  7  1  0  0  0  0
  5 13  1  0  0  0  0
  6  8  2  0  0  0  0
  6 14  1  0  0  0  0
  7  9  1  0  0  0  0
  8 11  1  0  0  0  0
  8 15  1  0  0  0  0
  9 11  2  0  0  0  0
 10 16  1  0  0  0  0
 10 17  1  0  0  0  0
 10 18  1  0  0  0  0
 11 19  1  0  0  0  0
 12 20  1  0  0  0  0
 12 21  1  0  0  0  0
M  END
>  <PUBCHEM_COMPOUND_CID>
188981

>  <PUBCHEM_COMPOUND_CANONICALIZED>
1

>  <PUBCHEM_CACTVS_COMPLEXITY>
317

>  <PUBCHEM_CACTVS_HBOND_ACCEPTOR>
2

>  <PUBCHEM_CACTVS_HBOND_DONOR>
1

>  <PUBCHEM_CACTVS_ROTATABLE_BOND>
1

>  <PUBCHEM_CACTVS_SUBSKEYS>
AAADccBwMAAAAAAAAAAAAAAAAAAAAAAAAAAAAAAABAAAAAAAAAAAGgAACAAADASAgAACAAAAAgCIAqBSAAIAAAAgIAAICABAAEgIAAAAAQAAQAAAwAAIgYIAAAAAAAAAAAAAAAAAAAAAAAAAAAAAAAAAAA==

>  <PUBCHEM_IUPAC_OPENEYE_NAME>
2-hydroxy-6-isopropenyl-cyclohepta-2,4,6-trien-1-one

>  <PUBCHEM_IUPAC_CAS_NAME>
2-hydroxy-6-(1-methylethenyl)-1-cyclohepta-2,4,6-trienone

>  <PUBCHEM_IUPAC_NAME>
2-hydroxy-6-prop-1-en-2-ylcyclohepta-2,4,6-trien-1-one

>  <PUBCHEM_IUPAC_SYSTEMATIC_NAME>
2-oxidanyl-6-prop-1-en-2-yl-cyclohepta-2,4,6-trien-1-one

>  <PUBCHEM_IUPAC_TRADITIONAL_NAME>
2-hydroxy-6-isopropenyl-cyclohepta-2,4,6-trien-1-one

>  <PUBCHEM_IUPAC_INCHI>
InChI=1S/C10H10O2/c1-7(2)8-4-3-5-9(11)10(12)6-8/h3-6H,1H2,2H3,(H,11,12)

>  <PUBCHEM_IUPAC_INCHIKEY>
ZXPADFNEYYDQFL-UHFFFAOYSA-N

>  <PUBCHEM_XLOGP3_AA>
2.4

>  <PUBCHEM_EXACT_MASS>
162.068

>  <PUBCHEM_MOLECULAR_FORMULA>
C10H10O2

>  <PUBCHEM_MOLECULAR_WEIGHT>
162.188

>  <PUBCHEM_OPENEYE_CAN_SMILES>
CC(=C)C1=CC(=O)C(=CC=C1)O

>  <PUBCHEM_OPENEYE_ISO_SMILES>
CC(=C)C1=CC(=O)C(=CC=C1)O

>  <PUBCHEM_CACTVS_TPSA>
37.3

>  <PUBCHEM_MONOISOTOPIC_WEIGHT>
162.068

>  <PUBCHEM_TOTAL_CHARGE>
0

>  <PUBCHEM_HEAVY_ATOM_COUNT>
12

>  <PUBCHEM_ATOM_DEF_STEREO_COUNT>
0

>  <PUBCHEM_ATOM_UDEF_STEREO_COUNT>
0

>  <PUBCHEM_BOND_DEF_STEREO_COUNT>
0

>  <PUBCHEM_BOND_UDEF_STEREO_COUNT>
0

>  <PUBCHEM_ISOTOPIC_ATOM_COUNT>
0

>  <PUBCHEM_COMPONENT_COUNT>
1

>  <PUBCHEM_CACTVS_TAUTO_COUNT>
5

>  <PUBCHEM_COORDINATE_TYPE>
1
5
255

>  <PUBCHEM_BONDANNOTATIONS>
3  5  8
3  6  8
5  7  8
6  8  8
7  9  8
8  11  8
9  11  8

$$$$
