19021065
 OpenBabel06101807152D

 47 45  0  0  0  0  0  0  0  0999 V2000
    5.9161    0.0000    0.0000 I   0  5  0  0  0  0  0  0  0  0  0  0
    1.4030    4.1200    0.0000 S   0  3  0  0  0  0  0  0  0  0  0  0
    6.5991    4.1200    0.0000 C   0  0  0  0  0  0  0  0  0  0  0  0
    5.7331    4.6200    0.0000 C   0  0  0  0  0  0  0  0  0  0  0  0
    7.4651    4.6200    0.0000 C   0  0  0  0  0  0  0  0  0  0  0  0
    4.8671    4.1200    0.0000 C   0  0  0  0  0  0  0  0  0  0  0  0
    8.3312    4.1200    0.0000 C   0  0  0  0  0  0  0  0  0  0  0  0
    4.0010    4.6200    0.0000 C   0  0  0  0  0  0  0  0  0  0  0  0
    9.1972    4.6200    0.0000 C   0  0  0  0  0  0  0  0  0  0  0  0
    3.1350    4.1200    0.0000 C   0  0  0  0  0  0  0  0  0  0  0  0
   10.0632    4.1200    0.0000 C   0  0  0  0  0  0  0  0  0  0  0  0
    2.2690    4.6200    0.0000 C   0  0  0  0  0  0  0  0  0  0  0  0
   10.9292    4.6200    0.0000 C   0  0  0  0  0  0  0  0  0  0  0  0
   11.7953    4.1200    0.0000 C   0  0  0  0  0  0  0  0  0  0  0  0
    0.5369    4.6200    0.0000 C   0  0  0  0  0  0  0  0  0  0  0  0
    1.4030    3.1200    0.0000 C   0  0  0  0  0  0  0  0  0  0  0  0
    6.2006    3.6450    0.0000 H   0  0  0  0  0  0  0  0  0  0  0  0
    6.9976    3.6450    0.0000 H   0  0  0  0  0  0  0  0  0  0  0  0
    6.1316    5.0950    0.0000 H   0  0  0  0  0  0  0  0  0  0  0  0
    5.3346    5.0950    0.0000 H   0  0  0  0  0  0  0  0  0  0  0  0
    7.8637    5.0950    0.0000 H   0  0  0  0  0  0  0  0  0  0  0  0
    7.0666    5.0950    0.0000 H   0  0  0  0  0  0  0  0  0  0  0  0
    4.4685    3.6450    0.0000 H   0  0  0  0  0  0  0  0  0  0  0  0
    5.2656    3.6450    0.0000 H   0  0  0  0  0  0  0  0  0  0  0  0
    7.9326    3.6450    0.0000 H   0  0  0  0  0  0  0  0  0  0  0  0
    8.7297    3.6450    0.0000 H   0  0  0  0  0  0  0  0  0  0  0  0
    4.3996    5.0950    0.0000 H   0  0  0  0  0  0  0  0  0  0  0  0
    3.6025    5.0950    0.0000 H   0  0  0  0  0  0  0  0  0  0  0  0
    9.5957    5.0950    0.0000 H   0  0  0  0  0  0  0  0  0  0  0  0
    8.7987    5.0950    0.0000 H   0  0  0  0  0  0  0  0  0  0  0  0
    2.7365    3.6450    0.0000 H   0  0  0  0  0  0  0  0  0  0  0  0
    3.5335    3.6450    0.0000 H   0  0  0  0  0  0  0  0  0  0  0  0
    9.6647    3.6450    0.0000 H   0  0  0  0  0  0  0  0  0  0  0  0
   10.4617    3.6450    0.0000 H   0  0  0  0  0  0  0  0  0  0  0  0
    2.6675    5.0950    0.0000 H   0  0  0  0  0  0  0  0  0  0  0  0
    1.8705    5.0950    0.0000 H   0  0  0  0  0  0  0  0  0  0  0  0
   11.3278    5.0950    0.0000 H   0  0  0  0  0  0  0  0  0  0  0  0
   10.5307    5.0950    0.0000 H   0  0  0  0  0  0  0  0  0  0  0  0
   11.4853    3.5831    0.0000 H   0  0  0  0  0  0  0  0  0  0  0  0
   12.3322    3.8100    0.0000 H   0  0  0  0  0  0  0  0  0  0  0  0
   12.1053    4.6569    0.0000 H   0  0  0  0  0  0  0  0  0  0  0  0
    0.8469    5.1569    0.0000 H   0  0  0  0  0  0  0  0  0  0  0  0
    0.0000    4.9300    0.0000 H   0  0  0  0  0  0  0  0  0  0  0  0
    0.2269    4.0831    0.0000 H   0  0  0  0  0  0  0  0  0  0  0  0
    0.7830    3.1200    0.0000 H   0  0  0  0  0  0  0  0  0  0  0  0
    1.4030    2.5000    0.0000 H   0  0  0  0  0  0  0  0  0  0  0  0
    2.0230    3.1200    0.0000 H   0  0  0  0  0  0  0  0  0  0  0  0
  2 12  1  0  0  0  0
  2 15  1  0  0  0  0
  2 16  1  0  0  0  0
  3  4  1  0  0  0  0
  3  5  1  0  0  0  0
  3 17  1  0  0  0  0
  3 18  1  0  0  0  0
  4  6  1  0  0  0  0
  4 19  1  0  0  0  0
  4 20  1  0  0  0  0
  5  7  1  0  0  0  0
  5 21  1  0  0  0  0
  5 22  1  0  0  0  0
  6  8  1  0  0  0  0
  6 23  1  0  0  0  0
  6 24  1  0  0  0  0
  7  9  1  0  0  0  0
  7 25  1  0  0  0  0
  7 26  1  0  0  0  0
  8 10  1  0  0  0  0
  8 27  1  0  0  0  0
  8 28  1  0  0  0  0
  9 11  1  0  0  0  0
  9 29  1  0  0  0  0
  9 30  1  0  0  0  0
 10 12  1  0  0  0  0
 10 31  1  0  0  0  0
 10 32  1  0  0  0  0
 11 13  1  0  0  0  0
 11 33  1  0  0  0  0
 11 34  1  0  0  0  0
 12 35  1  0  0  0  0
 12 36  1  0  0  0  0
 13 14  1  0  0  0  0
 13 37  1  0  0  0  0
 13 38  1  0  0  0  0
 14 39  1  0  0  0  0
 14 40  1  0  0  0  0
 14 41  1  0  0  0  0
 15 42  1  0  0  0  0
 15 43  1  0  0  0  0
 15 44  1  0  0  0  0
 16 45  1  0  0  0  0
 16 46  1  0  0  0  0
 16 47  1  0  0  0  0
M  CHG  2   1  -1   2   1
M  END
>  <PUBCHEM_COMPOUND_CID>
19021065

>  <PUBCHEM_COMPOUND_CANONICALIZED>
1

>  <PUBCHEM_CACTVS_COMPLEXITY>
110

>  <PUBCHEM_CACTVS_HBOND_ACCEPTOR>
1

>  <PUBCHEM_CACTVS_HBOND_DONOR>
0

>  <PUBCHEM_CACTVS_ROTATABLE_BOND>
11

>  <PUBCHEM_CACTVS_SUBSKEYS>
AAADceBwAABAAgAAAAAAAAAAAAAAAAAAAAAAAAAAAAAAAAAAAAAAGAQAAAAACACEQACCAAAAAAgAAAAAAAAAAAAAABAAAAAAAAAAAAIgAAAAAAAAAAAAAAEAgIAAAAAAAAAAAAAAAAAAAAAAAAAAAAAAAA==

>  <PUBCHEM_IUPAC_OPENEYE_NAME>
dodecyl(dimethyl)sulfonium;iodide

>  <PUBCHEM_IUPAC_CAS_NAME>
dodecyl(dimethyl)sulfonium;iodide

>  <PUBCHEM_IUPAC_NAME>
dodecyl(dimethyl)sulfanium;iodide

>  <PUBCHEM_IUPAC_SYSTEMATIC_NAME>
dodecyl(dimethyl)sulfanium;iodide

>  <PUBCHEM_IUPAC_TRADITIONAL_NAME>
lauryl(dimethyl)sulfonium;iodide

>  <PUBCHEM_IUPAC_INCHI>
InChI=1S/C14H31S.HI/c1-4-5-6-7-8-9-10-11-12-13-14-15(2)3;/h4-14H2,1-3H3;1H/q+1;/p-1

>  <PUBCHEM_IUPAC_INCHIKEY>
CWMLLWRTIPJOKV-UHFFFAOYSA-M

>  <PUBCHEM_EXACT_MASS>
358.119

>  <PUBCHEM_MOLECULAR_FORMULA>
C14H31IS

>  <PUBCHEM_MOLECULAR_WEIGHT>
358.366

>  <PUBCHEM_OPENEYE_CAN_SMILES>
CCCCCCCCCCCC[S+](C)C.[I-]

>  <PUBCHEM_OPENEYE_ISO_SMILES>
CCCCCCCCCCCC[S+](C)C.[I-]

>  <PUBCHEM_CACTVS_TPSA>
1

>  <PUBCHEM_MONOISOTOPIC_WEIGHT>
358.119

>  <PUBCHEM_TOTAL_CHARGE>
0

>  <PUBCHEM_HEAVY_ATOM_COUNT>
16

>  <PUBCHEM_ATOM_DEF_STEREO_COUNT>
0

>  <PUBCHEM_ATOM_UDEF_STEREO_COUNT>
0

>  <PUBCHEM_BOND_DEF_STEREO_COUNT>
0

>  <PUBCHEM_BOND_UDEF_STEREO_COUNT>
0

>  <PUBCHEM_ISOTOPIC_ATOM_COUNT>
0

>  <PUBCHEM_COMPONENT_COUNT>
2

>  <PUBCHEM_CACTVS_TAUTO_COUNT>
1

>  <PUBCHEM_COORDINATE_TYPE>
1
5
255

$$$$
