193736
 OpenBabel06101807152D

 23 22  0  0  1  0  0  0  0  0999 V2000
    4.5981   -1.1550    0.0000 O   0  0  0  0  0  0  0  0  0  0  0  0
    5.4641    1.3450    0.0000 O   0  0  0  0  0  0  0  0  0  0  0  0
    3.7320    1.3450    0.0000 O   0  0  0  0  0  0  0  0  0  0  0  0
    7.1962    0.3450    0.0000 O   0  0  0  0  0  0  0  0  0  0  0  0
    2.0000    0.3450    0.0000 O   0  0  0  0  0  0  0  0  0  0  0  0
    4.5981   -0.1550    0.0000 C   0  0  2  0  0  0  0  0  0  0  0  0
    5.4641    0.3450    0.0000 C   0  0  2  0  0  0  0  0  0  0  0  0
    3.7320    0.3450    0.0000 C   0  0  1  0  0  0  0  0  0  0  0  0
    6.3301   -0.1550    0.0000 C   0  0  0  0  0  0  0  0  0  0  0  0
    2.8660   -0.1550    0.0000 C   0  0  0  0  0  0  0  0  0  0  0  0
    3.7320   -1.6550    0.0000 C   0  0  0  0  0  0  0  0  0  0  0  0
    5.1350   -0.4650    0.0000 H   0  0  0  0  0  0  0  0  0  0  0  0
    6.0010    0.6550    0.0000 H   0  0  0  0  0  0  0  0  0  0  0  0
    4.2690    0.6550    0.0000 H   0  0  0  0  0  0  0  0  0  0  0  0
    5.9316   -0.6299    0.0000 H   0  0  0  0  0  0  0  0  0  0  0  0
    6.7287   -0.6299    0.0000 H   0  0  0  0  0  0  0  0  0  0  0  0
    2.8660   -0.7750    0.0000 H   0  0  0  0  0  0  0  0  0  0  0  0
    6.0010    1.6550    0.0000 H   0  0  0  0  0  0  0  0  0  0  0  0
    3.1951    1.6550    0.0000 H   0  0  0  0  0  0  0  0  0  0  0  0
    3.4220   -1.1181    0.0000 H   0  0  0  0  0  0  0  0  0  0  0  0
    3.1951   -1.9650    0.0000 H   0  0  0  0  0  0  0  0  0  0  0  0
    4.0420   -2.1919    0.0000 H   0  0  0  0  0  0  0  0  0  0  0  0
    7.7331    0.0350    0.0000 H   0  0  0  0  0  0  0  0  0  0  0  0
  1 11  1  0  0  0  0
  2 18  1  0  0  0  0
  3 19  1  0  0  0  0
  4  9  1  0  0  0  0
  4 23  1  0  0  0  0
  5 10  2  0  0  0  0
  6  1  1  0  0  0  0
  6  7  1  0  0  0  0
  6  8  1  0  0  0  0
  6 12  1  6  0  0  0
  7  2  1  0  0  0  0
  7  9  1  0  0  0  0
  7 13  1  6  0  0  0
  8  3  1  0  0  0  0
  8 10  1  0  0  0  0
  8 14  1  6  0  0  0
  9 15  1  0  0  0  0
  9 16  1  0  0  0  0
 10 17  1  0  0  0  0
 11 20  1  0  0  0  0
 11 21  1  0  0  0  0
 11 22  1  0  0  0  0
M  END
>  <PUBCHEM_COMPOUND_CID>
193736

>  <PUBCHEM_COMPOUND_CANONICALIZED>
1

>  <PUBCHEM_CACTVS_COMPLEXITY>
116

>  <PUBCHEM_CACTVS_HBOND_ACCEPTOR>
5

>  <PUBCHEM_CACTVS_HBOND_DONOR>
3

>  <PUBCHEM_CACTVS_ROTATABLE_BOND>
5

>  <PUBCHEM_CACTVS_SUBSKEYS>
AAADccBgOAAAAAAAAAAAAAAAAAAAAAAAAAAAAAAAAAAAAAAAAAAAGgAACAAACBSggAICAAAABgAIAAgQgAIAAAAAAAAAAAFAAAABEBYAAAAAQAAFIAADAADKBAAAAAAAAAAAAAAAAAAAAAAAAAAAAAAAAA==

>  <PUBCHEM_IUPAC_OPENEYE_NAME>
(2S,3R,4S)-2,4,5-trihydroxy-3-methoxy-pentanal

>  <PUBCHEM_IUPAC_CAS_NAME>
(2S,3R,4S)-2,4,5-trihydroxy-3-methoxypentanal

>  <PUBCHEM_IUPAC_NAME>
(2S,3R,4S)-2,4,5-trihydroxy-3-methoxypentanal

>  <PUBCHEM_IUPAC_SYSTEMATIC_NAME>
(2S,3R,4S)-3-methoxy-2,4,5-tris(oxidanyl)pentanal

>  <PUBCHEM_IUPAC_TRADITIONAL_NAME>
(2S,3R,4S)-2,4,5-trihydroxy-3-methoxy-valeraldehyde

>  <PUBCHEM_IUPAC_INCHI>
InChI=1S/C6H12O5/c1-11-6(4(9)2-7)5(10)3-8/h2,4-6,8-10H,3H2,1H3/t4-,5+,6+/m1/s1

>  <PUBCHEM_IUPAC_INCHIKEY>
JNAZNWGFTWHNTH-SRQIZXRXSA-N

>  <PUBCHEM_XLOGP3_AA>
-2.3

>  <PUBCHEM_EXACT_MASS>
164.068

>  <PUBCHEM_MOLECULAR_FORMULA>
C6H12O5

>  <PUBCHEM_MOLECULAR_WEIGHT>
164.157

>  <PUBCHEM_OPENEYE_CAN_SMILES>
COC(C(CO)O)C(C=O)O

>  <PUBCHEM_OPENEYE_ISO_SMILES>
CO[C@H]([C@H](CO)O)[C@@H](C=O)O

>  <PUBCHEM_CACTVS_TPSA>
87

>  <PUBCHEM_MONOISOTOPIC_WEIGHT>
164.068

>  <PUBCHEM_TOTAL_CHARGE>
0

>  <PUBCHEM_HEAVY_ATOM_COUNT>
11

>  <PUBCHEM_ATOM_DEF_STEREO_COUNT>
3

>  <PUBCHEM_ATOM_UDEF_STEREO_COUNT>
0

>  <PUBCHEM_BOND_DEF_STEREO_COUNT>
0

>  <PUBCHEM_BOND_UDEF_STEREO_COUNT>
0

>  <PUBCHEM_ISOTOPIC_ATOM_COUNT>
0

>  <PUBCHEM_COMPONENT_COUNT>
1

>  <PUBCHEM_CACTVS_TAUTO_COUNT>
4

>  <PUBCHEM_COORDINATE_TYPE>
1
5
255

>  <PUBCHEM_BONDANNOTATIONS>
6  1  5
7  2  5
8  3  5

$$$$
