194340
 OpenBabel06101807152D

 69 73  0  0  1  0  0  0  0  0999 V2000
    6.0010   -0.3450    0.0000 O   0  0  0  0  0  0  0  0  0  0  0  0
    4.2690   -0.3450    0.0000 O   0  0  0  0  0  0  0  0  0  0  0  0
    6.8671    2.1550    0.0000 O   0  0  0  0  0  0  0  0  0  0  0  0
    6.0010   -2.3450    0.0000 O   0  0  0  0  0  0  0  0  0  0  0  0
    4.2690   -3.3450    0.0000 O   0  0  0  0  0  0  0  0  0  0  0  0
    2.5369   -2.3450    0.0000 O   0  0  0  0  0  0  0  0  0  0  0  0
    4.2690    0.6550    0.0000 O   0  0  0  0  0  0  0  0  0  0  0  0
    4.2690    2.6550    0.0000 O   0  0  0  0  0  0  0  0  0  0  0  0
    8.5991    2.1550    0.0000 O   0  0  0  0  0  0  0  0  0  0  0  0
    6.8671   -0.8450    0.0000 O   0  0  0  0  0  0  0  0  0  0  0  0
   10.3591   -0.8797    0.0000 O   0  0  0  0  0  0  0  0  0  0  0  0
   10.3475    2.1896    0.0000 O   0  0  0  0  0  0  0  0  0  0  0  0
   14.7292   -0.3792    0.0000 O   0  0  0  0  0  0  0  0  0  0  0  0
   14.7215   -2.3792    0.0000 O   0  0  0  0  0  0  0  0  0  0  0  0
    6.0010    0.6550    0.0000 C   0  0  3  0  0  0  0  0  0  0  0  0
    5.1350   -0.8450    0.0000 C   0  0  3  0  0  0  0  0  0  0  0  0
    5.1350   -1.8450    0.0000 C   0  0  3  0  0  0  0  0  0  0  0  0
    4.2690   -2.3450    0.0000 C   0  0  3  0  0  0  0  0  0  0  0  0
    6.8671    1.1550    0.0000 C   0  0  3  0  0  0  0  0  0  0  0  0
    3.4030   -1.8450    0.0000 C   0  0  3  0  0  0  0  0  0  0  0  0
    3.4030   -0.8450    0.0000 C   0  0  3  0  0  0  0  0  0  0  0  0
    5.1350    1.1550    0.0000 C   0  0  3  0  0  0  0  0  0  0  0  0
    6.0010    2.6550    0.0000 C   0  0  3  0  0  0  0  0  0  0  0  0
    5.1350    2.1550    0.0000 C   0  0  0  0  0  0  0  0  0  0  0  0
    7.7331    0.6550    0.0000 C   0  0  0  0  0  0  0  0  0  0  0  0
    2.5369   -0.3450    0.0000 C   0  0  0  0  0  0  0  0  0  0  0  0
    6.0010    3.6550    0.0000 C   0  0  0  0  0  0  0  0  0  0  0  0
    8.5991    1.1550    0.0000 C   0  0  0  0  0  0  0  0  0  0  0  0
    7.7331   -0.3450    0.0000 C   0  0  0  0  0  0  0  0  0  0  0  0
    9.4651    0.6550    0.0000 C   0  0  0  0  0  0  0  0  0  0  0  0
    8.5991   -0.8450    0.0000 C   0  0  0  0  0  0  0  0  0  0  0  0
    9.4651   -0.3450    0.0000 C   0  0  0  0  0  0  0  0  0  0  0  0
   10.3591    1.1897    0.0000 C   0  0  0  0  0  0  0  0  0  0  0  0
   11.2651    0.6758    0.0000 C   0  0  0  0  0  0  0  0  0  0  0  0
   11.2651   -0.3658    0.0000 C   0  0  0  0  0  0  0  0  0  0  0  0
   12.1292   -0.8692    0.0000 C   0  0  0  0  0  0  0  0  0  0  0  0
   12.9972   -0.3725    0.0000 C   0  0  0  0  0  0  0  0  0  0  0  0
   12.1254   -1.8691    0.0000 C   0  0  0  0  0  0  0  0  0  0  0  0
   13.8613   -0.8758    0.0000 C   0  0  0  0  0  0  0  0  0  0  0  0
   12.9895   -2.3725    0.0000 C   0  0  0  0  0  0  0  0  0  0  0  0
   13.8574   -1.8758    0.0000 C   0  0  0  0  0  0  0  0  0  0  0  0
    6.7372    0.2300    0.0000 H   0  0  0  0  0  0  0  0  0  0  0  0
    5.1350    0.0050    0.0000 H   0  0  0  0  0  0  0  0  0  0  0  0
    5.1350   -2.6950    0.0000 H   0  0  0  0  0  0  0  0  0  0  0  0
    3.5329   -2.7700    0.0000 H   0  0  0  0  0  0  0  0  0  0  0  0
    7.6032    1.5800    0.0000 H   0  0  0  0  0  0  0  0  0  0  0  0
    2.6668   -1.4200    0.0000 H   0  0  0  0  0  0  0  0  0  0  0  0
    3.4030    0.0050    0.0000 H   0  0  0  0  0  0  0  0  0  0  0  0
    5.1350    0.3050    0.0000 H   0  0  0  0  0  0  0  0  0  0  0  0
    6.7372    3.0800    0.0000 H   0  0  0  0  0  0  0  0  0  0  0  0
    2.8469    0.1919    0.0000 H   0  0  0  0  0  0  0  0  0  0  0  0
    2.0000   -0.0350    0.0000 H   0  0  0  0  0  0  0  0  0  0  0  0
    2.2269   -0.8819    0.0000 H   0  0  0  0  0  0  0  0  0  0  0  0
    6.0010   -2.9650    0.0000 H   0  0  0  0  0  0  0  0  0  0  0  0
    6.6210    3.6550    0.0000 H   0  0  0  0  0  0  0  0  0  0  0  0
    6.0010    4.2750    0.0000 H   0  0  0  0  0  0  0  0  0  0  0  0
    5.3810    3.6550    0.0000 H   0  0  0  0  0  0  0  0  0  0  0  0
    3.7320   -3.6550    0.0000 H   0  0  0  0  0  0  0  0  0  0  0  0
    2.0000   -2.0350    0.0000 H   0  0  0  0  0  0  0  0  0  0  0  0
    3.7320    0.9650    0.0000 H   0  0  0  0  0  0  0  0  0  0  0  0
    8.5991   -1.4650    0.0000 H   0  0  0  0  0  0  0  0  0  0  0  0
    9.1360    2.4650    0.0000 H   0  0  0  0  0  0  0  0  0  0  0  0
    6.8671   -1.4650    0.0000 H   0  0  0  0  0  0  0  0  0  0  0  0
   11.8009    0.9879    0.0000 H   0  0  0  0  0  0  0  0  0  0  0  0
   12.9996    0.2475    0.0000 H   0  0  0  0  0  0  0  0  0  0  0  0
   11.5873   -2.1771    0.0000 H   0  0  0  0  0  0  0  0  0  0  0  0
   12.9871   -2.9925    0.0000 H   0  0  0  0  0  0  0  0  0  0  0  0
   15.2650   -0.6912    0.0000 H   0  0  0  0  0  0  0  0  0  0  0  0
   14.7191   -2.9992    0.0000 H   0  0  0  0  0  0  0  0  0  0  0  0
  1 15  1  0  0  0  0
  1 16  1  0  0  0  0
  2 16  1  0  0  0  0
  2 21  1  0  0  0  0
  3 19  1  0  0  0  0
  3 23  1  0  0  0  0
  4 17  1  0  0  0  0
  4 54  1  0  0  0  0
  5 18  1  0  0  0  0
  5 58  1  0  0  0  0
  6 20  1  0  0  0  0
  6 59  1  0  0  0  0
  7 22  1  0  0  0  0
  7 60  1  0  0  0  0
  8 24  2  0  0  0  0
  9 28  1  0  0  0  0
  9 62  1  0  0  0  0
 10 29  1  0  0  0  0
 10 63  1  0  0  0  0
 11 32  1  0  0  0  0
 11 35  1  0  0  0  0
 12 33  2  0  0  0  0
 13 39  1  0  0  0  0
 13 68  1  0  0  0  0
 14 41  1  0  0  0  0
 14 69  1  0  0  0  0
 15 19  1  0  0  0  0
 15 22  1  0  0  0  0
 15 42  1  0  0  0  0
 16 17  1  0  0  0  0
 16 43  1  0  0  0  0
 17 18  1  0  0  0  0
 17 44  1  0  0  0  0
 18 20  1  0  0  0  0
 18 45  1  0  0  0  0
 19 25  1  0  0  0  0
 19 46  1  0  0  0  0
 20 21  1  0  0  0  0
 20 47  1  0  0  0  0
 21 26  1  0  0  0  0
 21 48  1  0  0  0  0
 22 24  1  0  0  0  0
 22 49  1  0  0  0  0
 23 24  1  0  0  0  0
 23 27  1  0  0  0  0
 23 50  1  0  0  0  0
 25 28  1  0  0  0  0
 25 29  2  0  0  0  0
 26 51  1  0  0  0  0
 26 52  1  0  0  0  0
 26 53  1  0  0  0  0
 27 55  1  0  0  0  0
 27 56  1  0  0  0  0
 27 57  1  0  0  0  0
 28 30  2  0  0  0  0
 29 31  1  0  0  0  0
 30 32  1  0  0  0  0
 30 33  1  0  0  0  0
 31 32  2  0  0  0  0
 31 61  1  0  0  0  0
 33 34  1  0  0  0  0
 34 35  2  0  0  0  0
 34 64  1  0  0  0  0
 35 36  1  0  0  0  0
 36 37  2  0  0  0  0
 36 38  1  0  0  0  0
 37 39  1  0  0  0  0
 37 65  1  0  0  0  0
 38 40  2  0  0  0  0
 38 66  1  0  0  0  0
 39 41  2  0  0  0  0
 40 41  1  0  0  0  0
 40 67  1  0  0  0  0
M  END
>  <PUBCHEM_COMPOUND_CID>
194340

>  <PUBCHEM_COMPOUND_CANONICALIZED>
1

>  <PUBCHEM_CACTVS_COMPLEXITY>
1020

>  <PUBCHEM_CACTVS_HBOND_ACCEPTOR>
14

>  <PUBCHEM_CACTVS_HBOND_DONOR>
8

>  <PUBCHEM_CACTVS_ROTATABLE_BOND>
4

>  <PUBCHEM_CACTVS_SUBSKEYS>
AAADceB4PAAAAAAAAAAAAAAAAAAAAAAAAAA0aIECAAAAAACBQAAAGgAACAAADBSwmAMyDoAABgCIAqBSAAICCAAkIAAIiAFGiMgdNzaGNR6ieWGl4BUPuQfK7PzOIAADCAAIQABAAAYQABCAAAAAAAAAAA==

>  <PUBCHEM_IUPAC_OPENEYE_NAME>
2-(3,4-dihydroxyphenyl)-5,7-dihydroxy-6-[4-hydroxy-6-methyl-5-oxo-3-(3,4,5-trihydroxy-6-methyl-tetrahydropyran-2-yl)oxy-tetrahydropyran-2-yl]chromen-4-one

>  <PUBCHEM_IUPAC_CAS_NAME>
2-(3,4-dihydroxyphenyl)-5,7-dihydroxy-6-[4-hydroxy-6-methyl-5-oxo-3-[(3,4,5-trihydroxy-6-methyl-2-oxanyl)oxy]-2-oxanyl]-1-benzopyran-4-one

>  <PUBCHEM_IUPAC_NAME>
2-(3,4-dihydroxyphenyl)-5,7-dihydroxy-6-[4-hydroxy-6-methyl-5-oxo-3-(3,4,5-trihydroxy-6-methyloxan-2-yl)oxyoxan-2-yl]chromen-4-one

>  <PUBCHEM_IUPAC_SYSTEMATIC_NAME>
2-[3,4-bis(oxidanyl)phenyl]-6-[6-methyl-3-[6-methyl-3,4,5-tris(oxidanyl)oxan-2-yl]oxy-4-oxidanyl-5-oxidanylidene-oxan-2-yl]-5,7-bis(oxidanyl)chromen-4-one

>  <PUBCHEM_IUPAC_TRADITIONAL_NAME>
2-(3,4-dihydroxyphenyl)-5,7-dihydroxy-6-[4-hydroxy-5-keto-6-methyl-3-(3,4,5-trihydroxy-6-methyl-tetrahydropyran-2-yl)oxy-tetrahydropyran-2-yl]chromone

>  <PUBCHEM_IUPAC_INCHI>
InChI=1S/C27H28O14/c1-8-20(33)23(36)26(41-27-24(37)22(35)19(32)9(2)39-27)25(38-8)18-14(31)7-16-17(21(18)34)13(30)6-15(40-16)10-3-4-11(28)12(29)5-10/h3-9,19,22-29,31-32,34-37H,1-2H3

>  <PUBCHEM_IUPAC_INCHIKEY>
GKLSYIMLZDYQBJ-UHFFFAOYSA-N

>  <PUBCHEM_XLOGP3_AA>
-0.3

>  <PUBCHEM_EXACT_MASS>
576.148

>  <PUBCHEM_MOLECULAR_FORMULA>
C27H28O14

>  <PUBCHEM_MOLECULAR_WEIGHT>
576.507

>  <PUBCHEM_OPENEYE_CAN_SMILES>
CC1C(C(C(C(O1)OC2C(C(=O)C(OC2C3=C(C=C4C(=C3O)C(=O)C=C(O4)C5=CC(=C(C=C5)O)O)O)C)O)O)O)O

>  <PUBCHEM_OPENEYE_ISO_SMILES>
CC1C(C(C(C(O1)OC2C(C(=O)C(OC2C3=C(C=C4C(=C3O)C(=O)C=C(O4)C5=CC(=C(C=C5)O)O)O)C)O)O)O)O

>  <PUBCHEM_CACTVS_TPSA>
233

>  <PUBCHEM_MONOISOTOPIC_WEIGHT>
576.148

>  <PUBCHEM_TOTAL_CHARGE>
0

>  <PUBCHEM_HEAVY_ATOM_COUNT>
41

>  <PUBCHEM_ATOM_DEF_STEREO_COUNT>
0

>  <PUBCHEM_ATOM_UDEF_STEREO_COUNT>
9

>  <PUBCHEM_BOND_DEF_STEREO_COUNT>
0

>  <PUBCHEM_BOND_UDEF_STEREO_COUNT>
0

>  <PUBCHEM_ISOTOPIC_ATOM_COUNT>
0

>  <PUBCHEM_COMPONENT_COUNT>
1

>  <PUBCHEM_CACTVS_TAUTO_COUNT>
810

>  <PUBCHEM_COORDINATE_TYPE>
1
5
255

>  <PUBCHEM_BONDANNOTATIONS>
11  32  8
11  35  8
15  42  3
16  43  3
17  44  3
18  45  3
19  46  3
20  47  3
21  48  3
22  49  3
23  50  3
25  28  8
25  29  8
28  30  8
29  31  8
30  32  8
30  33  8
31  32  8
33  34  8
34  35  8
36  37  8
36  38  8
37  39  8
38  40  8
39  41  8
40  41  8

$$$$
