194485
 OpenBabel06101807152D

159168  0  0  1  0  0  0  0  0999 V2000
   14.3523    5.8824    0.0000 O   0  0  0  0  0  0  0  0  0  0  0  0
   12.5799    6.7772    0.0000 O   0  0  0  0  0  0  0  0  0  0  0  0
   15.6241    0.3003    0.0000 O   0  0  0  0  0  0  0  0  0  0  0  0
   12.9292   -2.3617    0.0000 O   0  0  0  0  0  0  0  0  0  0  0  0
   11.1972   -2.3617    0.0000 O   0  0  0  0  0  0  0  0  0  0  0  0
   12.9292   -4.3617    0.0000 O   0  0  0  0  0  0  0  0  0  0  0  0
   11.1972   -5.3617    0.0000 O   0  0  0  0  0  0  0  0  0  0  0  0
    9.4651   -4.3617    0.0000 O   0  0  0  0  0  0  0  0  0  0  0  0
    9.4651   -1.3617    0.0000 O   0  0  0  0  0  0  0  0  0  0  0  0
    8.5991   -2.8617    0.0000 O   0  0  0  0  0  0  0  0  0  0  0  0
    7.7331   -5.3617    0.0000 O   0  0  0  0  0  0  0  0  0  0  0  0
    6.0010   -4.3617    0.0000 O   0  0  0  0  0  0  0  0  0  0  0  0
    6.0010   -2.3617    0.0000 O   0  0  0  0  0  0  0  0  0  0  0  0
    6.4062   -6.4750    0.0000 O   0  0  0  0  0  0  0  0  0  0  0  0
    6.8671   -0.8617    0.0000 O   0  0  0  0  0  0  0  0  0  0  0  0
    5.1350   -2.8617    0.0000 O   0  0  0  0  0  0  0  0  0  0  0  0
    9.0187   -6.8937    0.0000 O   0  0  0  0  0  0  0  0  0  0  0  0
    4.2690   -5.3617    0.0000 O   0  0  0  0  0  0  0  0  0  0  0  0
    8.3347   -8.7732    0.0000 O   0  0  0  0  0  0  0  0  0  0  0  0
    6.3650   -9.1205    0.0000 O   0  0  0  0  0  0  0  0  0  0  0  0
    2.5369   -4.3617    0.0000 O   0  0  0  0  0  0  0  0  0  0  0  0
    2.5369   -2.3617    0.0000 O   0  0  0  0  0  0  0  0  0  0  0  0
    4.7374   -8.5280    0.0000 O   0  0  0  0  0  0  0  0  0  0  0  0
    3.4030   -0.8617    0.0000 O   0  0  0  0  0  0  0  0  0  0  0  0
   12.9585    3.8352    0.0000 C   0  0  3  0  0  0  0  0  0  0  0  0
   13.8264    3.3385    0.0000 C   0  0  3  0  0  0  0  0  0  0  0  0
   13.8303    2.3385    0.0000 C   0  0  3  0  0  0  0  0  0  0  0  0
   13.1640    4.8078    0.0000 C   0  0  3  0  0  0  0  0  0  0  0  0
   12.9662    1.8352    0.0000 C   0  0  3  0  0  0  0  0  0  0  0  0
   12.9542    0.7936    0.0000 C   0  0  3  0  0  0  0  0  0  0  0  0
   14.1523    4.9146    0.0000 C   0  0  3  0  0  0  0  0  0  0  0  0
   14.5609    4.0084    0.0000 C   0  0  0  0  0  0  0  0  0  0  0  0
   12.0944    3.3318    0.0000 C   0  0  0  0  0  0  0  0  0  0  0  0
   12.0983    2.3318    0.0000 C   0  0  0  0  0  0  0  0  0  0  0  0
   12.7617    5.7104    0.0000 C   0  0  3  0  0  0  0  0  0  0  0  0
   13.8542    0.2693    0.0000 C   0  0  3  0  0  0  0  0  0  0  0  0
   14.7422    1.8352    0.0000 C   0  0  0  0  0  0  0  0  0  0  0  0
   13.4946    6.3732    0.0000 C   0  0  3  0  0  0  0  0  0  0  0  0
   14.7543    0.7936    0.0000 C   0  0  3  0  0  0  0  0  0  0  0  0
   12.0906    4.3318    0.0000 C   0  0  0  0  0  0  0  0  0  0  0  0
   12.0043    0.2693    0.0000 C   0  0  0  0  0  0  0  0  0  0  0  0
   13.8668   -0.8156    0.0000 C   0  0  0  0  0  0  0  0  0  0  0  0
   12.0901    1.2970    0.0000 C   0  0  0  0  0  0  0  0  0  0  0  0
   11.9917   -0.8156    0.0000 C   0  0  0  0  0  0  0  0  0  0  0  0
   12.9292   -1.3617    0.0000 C   0  0  3  0  0  0  0  0  0  0  0  0
   11.7833    5.9171    0.0000 C   0  0  0  0  0  0  0  0  0  0  0  0
   14.3019    6.9634    0.0000 C   0  0  0  0  0  0  0  0  0  0  0  0
   14.1944    7.9576    0.0000 C   0  0  0  0  0  0  0  0  0  0  0  0
   12.4724    7.7714    0.0000 C   0  0  0  0  0  0  0  0  0  0  0  0
   13.2796    8.3616    0.0000 C   0  0  3  0  0  0  0  0  0  0  0  0
   13.1721    9.3558    0.0000 C   0  0  0  0  0  0  0  0  0  0  0  0
   12.0632   -2.8617    0.0000 C   0  0  3  0  0  0  0  0  0  0  0  0
   12.0632   -3.8617    0.0000 C   0  0  3  0  0  0  0  0  0  0  0  0
   11.1972   -4.3617    0.0000 C   0  0  3  0  0  0  0  0  0  0  0  0
   10.3312   -2.8617    0.0000 C   0  0  3  0  0  0  0  0  0  0  0  0
   10.3312   -3.8617    0.0000 C   0  0  3  0  0  0  0  0  0  0  0  0
    9.4651   -2.3617    0.0000 C   0  0  0  0  0  0  0  0  0  0  0  0
    8.5991   -3.8617    0.0000 C   0  0  3  0  0  0  0  0  0  0  0  0
    7.7331   -4.3617    0.0000 C   0  0  3  0  0  0  0  0  0  0  0  0
    6.8671   -3.8617    0.0000 C   0  0  3  0  0  0  0  0  0  0  0  0
    7.7331   -2.3617    0.0000 C   0  0  3  0  0  0  0  0  0  0  0  0
    6.8671   -2.8617    0.0000 C   0  0  3  0  0  0  0  0  0  0  0  0
    7.7331   -1.3617    0.0000 C   0  0  0  0  0  0  0  0  0  0  0  0
    7.3910   -6.3014    0.0000 C   0  0  3  0  0  0  0  0  0  0  0  0
    5.1350   -3.8617    0.0000 C   0  0  3  0  0  0  0  0  0  0  0  0
    8.0339   -7.0674    0.0000 C   0  0  3  0  0  0  0  0  0  0  0  0
    4.2690   -4.3617    0.0000 C   0  0  3  0  0  0  0  0  0  0  0  0
    7.6918   -8.0071    0.0000 C   0  0  3  0  0  0  0  0  0  0  0  0
    6.0642   -7.4147    0.0000 C   0  0  3  0  0  0  0  0  0  0  0  0
    6.7070   -8.1808    0.0000 C   0  0  3  0  0  0  0  0  0  0  0  0
    3.4030   -3.8617    0.0000 C   0  0  3  0  0  0  0  0  0  0  0  0
    4.2690   -2.3617    0.0000 C   0  0  3  0  0  0  0  0  0  0  0  0
    3.4030   -2.8617    0.0000 C   0  0  3  0  0  0  0  0  0  0  0  0
    5.0794   -7.5883    0.0000 C   0  0  0  0  0  0  0  0  0  0  0  0
    4.2690   -1.3617    0.0000 C   0  0  0  0  0  0  0  0  0  0  0  0
   14.6047    2.9968    0.0000 H   0  0  0  0  0  0  0  0  0  0  0  0
   14.5615    2.7720    0.0000 H   0  0  0  0  0  0  0  0  0  0  0  0
   12.3187    4.7182    0.0000 H   0  0  0  0  0  0  0  0  0  0  0  0
   13.7007    1.4074    0.0000 H   0  0  0  0  0  0  0  0  0  0  0  0
   14.9972    5.0078    0.0000 H   0  0  0  0  0  0  0  0  0  0  0  0
   14.9283    3.5090    0.0000 H   0  0  0  0  0  0  0  0  0  0  0  0
   15.0962    4.3213    0.0000 H   0  0  0  0  0  0  0  0  0  0  0  0
   11.8801    3.9136    0.0000 H   0  0  0  0  0  0  0  0  0  0  0  0
   11.4842    3.2218    0.0000 H   0  0  0  0  0  0  0  0  0  0  0  0
   11.4873    2.4372    0.0000 H   0  0  0  0  0  0  0  0  0  0  0  0
   11.8885    1.7484    0.0000 H   0  0  0  0  0  0  0  0  0  0  0  0
   12.2273    5.0494    0.0000 H   0  0  0  0  0  0  0  0  0  0  0  0
   14.5936   -0.1500    0.0000 H   0  0  0  0  0  0  0  0  0  0  0  0
   15.3543    1.7362    0.0000 H   0  0  0  0  0  0  0  0  0  0  0  0
   14.9445    2.4212    0.0000 H   0  0  0  0  0  0  0  0  0  0  0  0
   15.4863    1.2257    0.0000 H   0  0  0  0  0  0  0  0  0  0  0  0
   12.3985    4.8700    0.0000 H   0  0  0  0  0  0  0  0  0  0  0  0
   11.5524    4.6398    0.0000 H   0  0  0  0  0  0  0  0  0  0  0  0
   11.7826    3.7937    0.0000 H   0  0  0  0  0  0  0  0  0  0  0  0
   11.8020    0.8554    0.0000 H   0  0  0  0  0  0  0  0  0  0  0  0
   11.3922    0.1703    0.0000 H   0  0  0  0  0  0  0  0  0  0  0  0
   14.0826   -1.3968    0.0000 H   0  0  0  0  0  0  0  0  0  0  0  0
   14.4764   -0.7024    0.0000 H   0  0  0  0  0  0  0  0  0  0  0  0
   12.4021    1.8327    0.0000 H   0  0  0  0  0  0  0  0  0  0  0  0
   11.5543    1.6090    0.0000 H   0  0  0  0  0  0  0  0  0  0  0  0
   11.7780    0.7612    0.0000 H   0  0  0  0  0  0  0  0  0  0  0  0
   11.3821   -0.7024    0.0000 H   0  0  0  0  0  0  0  0  0  0  0  0
   11.7759   -1.3968    0.0000 H   0  0  0  0  0  0  0  0  0  0  0  0
   12.1923   -1.7853    0.0000 H   0  0  0  0  0  0  0  0  0  0  0  0
   11.9114    6.5237    0.0000 H   0  0  0  0  0  0  0  0  0  0  0  0
   11.1766    6.0452    0.0000 H   0  0  0  0  0  0  0  0  0  0  0  0
   11.6551    5.3104    0.0000 H   0  0  0  0  0  0  0  0  0  0  0  0
   14.5753    6.4069    0.0000 H   0  0  0  0  0  0  0  0  0  0  0  0
   14.8974    7.1360    0.0000 H   0  0  0  0  0  0  0  0  0  0  0  0
   14.8130    7.9162    0.0000 H   0  0  0  0  0  0  0  0  0  0  0  0
   14.3426    8.5596    0.0000 H   0  0  0  0  0  0  0  0  0  0  0  0
   16.1587    0.6144    0.0000 H   0  0  0  0  0  0  0  0  0  0  0  0
   12.1989    8.3278    0.0000 H   0  0  0  0  0  0  0  0  0  0  0  0
   11.8769    7.5987    0.0000 H   0  0  0  0  0  0  0  0  0  0  0  0
   13.9658    8.8633    0.0000 H   0  0  0  0  0  0  0  0  0  0  0  0
   13.7885    9.4224    0.0000 H   0  0  0  0  0  0  0  0  0  0  0  0
   13.1055    9.9722    0.0000 H   0  0  0  0  0  0  0  0  0  0  0  0
   12.5557    9.2891    0.0000 H   0  0  0  0  0  0  0  0  0  0  0  0
   12.0632   -2.0117    0.0000 H   0  0  0  0  0  0  0  0  0  0  0  0
   12.0632   -4.7117    0.0000 H   0  0  0  0  0  0  0  0  0  0  0  0
   10.4611   -4.7867    0.0000 H   0  0  0  0  0  0  0  0  0  0  0  0
   10.3312   -2.0117    0.0000 H   0  0  0  0  0  0  0  0  0  0  0  0
    9.5950   -3.4367    0.0000 H   0  0  0  0  0  0  0  0  0  0  0  0
   13.4662   -4.0517    0.0000 H   0  0  0  0  0  0  0  0  0  0  0  0
    8.8546   -2.2540    0.0000 H   0  0  0  0  0  0  0  0  0  0  0  0
    9.2531   -2.9443    0.0000 H   0  0  0  0  0  0  0  0  0  0  0  0
   11.7341   -5.6717    0.0000 H   0  0  0  0  0  0  0  0  0  0  0  0
    8.5991   -4.7117    0.0000 H   0  0  0  0  0  0  0  0  0  0  0  0
    8.9282   -1.0517    0.0000 H   0  0  0  0  0  0  0  0  0  0  0  0
    6.9970   -4.7867    0.0000 H   0  0  0  0  0  0  0  0  0  0  0  0
    6.1309   -3.4367    0.0000 H   0  0  0  0  0  0  0  0  0  0  0  0
    8.4692   -1.9367    0.0000 H   0  0  0  0  0  0  0  0  0  0  0  0
    6.8671   -2.0117    0.0000 H   0  0  0  0  0  0  0  0  0  0  0  0
    8.3437   -1.4694    0.0000 H   0  0  0  0  0  0  0  0  0  0  0  0
    7.9451   -0.7791    0.0000 H   0  0  0  0  0  0  0  0  0  0  0  0
    6.8447   -5.6502    0.0000 H   0  0  0  0  0  0  0  0  0  0  0  0
    6.0010   -1.7417    0.0000 H   0  0  0  0  0  0  0  0  0  0  0  0
    5.1350   -4.7117    0.0000 H   0  0  0  0  0  0  0  0  0  0  0  0
    8.5803   -7.7186    0.0000 H   0  0  0  0  0  0  0  0  0  0  0  0
    3.5329   -4.7867    0.0000 H   0  0  0  0  0  0  0  0  0  0  0  0
    7.4011   -8.8059    0.0000 H   0  0  0  0  0  0  0  0  0  0  0  0
    6.8671   -0.2417    0.0000 H   0  0  0  0  0  0  0  0  0  0  0  0
    5.5178   -6.7636    0.0000 H   0  0  0  0  0  0  0  0  0  0  0  0
    5.8699   -8.3284    0.0000 H   0  0  0  0  0  0  0  0  0  0  0  0
    2.6668   -3.4367    0.0000 H   0  0  0  0  0  0  0  0  0  0  0  0
    5.0051   -1.9367    0.0000 H   0  0  0  0  0  0  0  0  0  0  0  0
    3.4030   -2.0117    0.0000 H   0  0  0  0  0  0  0  0  0  0  0  0
    9.2307   -6.3112    0.0000 H   0  0  0  0  0  0  0  0  0  0  0  0
    5.0794   -6.9683    0.0000 H   0  0  0  0  0  0  0  0  0  0  0  0
    4.4688   -7.4806    0.0000 H   0  0  0  0  0  0  0  0  0  0  0  0
    3.7320   -5.6717    0.0000 H   0  0  0  0  0  0  0  0  0  0  0  0
    8.1226   -9.3558    0.0000 H   0  0  0  0  0  0  0  0  0  0  0  0
    4.8796   -1.4694    0.0000 H   0  0  0  0  0  0  0  0  0  0  0  0
    4.4810   -0.7791    0.0000 H   0  0  0  0  0  0  0  0  0  0  0  0
    5.7544   -9.2281    0.0000 H   0  0  0  0  0  0  0  0  0  0  0  0
    2.0000   -4.0517    0.0000 H   0  0  0  0  0  0  0  0  0  0  0  0
    2.0000   -2.6717    0.0000 H   0  0  0  0  0  0  0  0  0  0  0  0
    4.1268   -8.6357    0.0000 H   0  0  0  0  0  0  0  0  0  0  0  0
    3.4030   -0.2417    0.0000 H   0  0  0  0  0  0  0  0  0  0  0  0
  1 31  1  0  0  0  0
  1 38  1  0  0  0  0
  2 38  1  0  0  0  0
  2 49  1  0  0  0  0
  3 39  1  0  0  0  0
  3112  1  0  0  0  0
  4 45  1  0  0  0  0
  4 52  1  0  0  0  0
  5 52  1  0  0  0  0
  5 55  1  0  0  0  0
  6 53  1  0  0  0  0
  6124  1  0  0  0  0
  7 54  1  0  0  0  0
  7127  1  0  0  0  0
  8 56  1  0  0  0  0
  8 58  1  0  0  0  0
  9 57  1  0  0  0  0
  9129  1  0  0  0  0
 10 58  1  0  0  0  0
 10 61  1  0  0  0  0
 11 59  1  0  0  0  0
 11 64  1  0  0  0  0
 12 60  1  0  0  0  0
 12 65  1  0  0  0  0
 13 62  1  0  0  0  0
 13137  1  0  0  0  0
 14 64  1  0  0  0  0
 14 69  1  0  0  0  0
 15 63  1  0  0  0  0
 15142  1  0  0  0  0
 16 65  1  0  0  0  0
 16 72  1  0  0  0  0
 17 66  1  0  0  0  0
 17148  1  0  0  0  0
 18 67  1  0  0  0  0
 18151  1  0  0  0  0
 19 68  1  0  0  0  0
 19152  1  0  0  0  0
 20 70  1  0  0  0  0
 20155  1  0  0  0  0
 21 71  1  0  0  0  0
 21156  1  0  0  0  0
 22 73  1  0  0  0  0
 22157  1  0  0  0  0
 23 74  1  0  0  0  0
 23158  1  0  0  0  0
 24 75  1  0  0  0  0
 24159  1  0  0  0  0
 25 26  1  0  0  0  0
 25 28  1  0  0  0  0
 25 33  1  0  0  0  0
 25 40  1  0  0  0  0
 26 27  1  0  0  0  0
 26 32  1  0  0  0  0
 26 76  1  0  0  0  0
 27 29  1  0  0  0  0
 27 37  1  0  0  0  0
 27 77  1  0  0  0  0
 28 31  1  0  0  0  0
 28 35  1  0  0  0  0
 28 78  1  0  0  0  0
 29 30  1  0  0  0  0
 29 34  1  0  0  0  0
 29 79  1  0  0  0  0
 30 36  1  0  0  0  0
 30 41  1  0  0  0  0
 30 43  1  0  0  0  0
 31 32  1  0  0  0  0
 31 80  1  0  0  0  0
 32 81  1  0  0  0  0
 32 82  1  0  0  0  0
 33 34  1  0  0  0  0
 33 83  1  0  0  0  0
 33 84  1  0  0  0  0
 34 85  1  0  0  0  0
 34 86  1  0  0  0  0
 35 38  1  0  0  0  0
 35 46  1  0  0  0  0
 35 87  1  0  0  0  0
 36 39  1  0  0  0  0
 36 42  1  0  0  0  0
 36 88  1  0  0  0  0
 37 39  1  0  0  0  0
 37 89  1  0  0  0  0
 37 90  1  0  0  0  0
 38 47  1  0  0  0  0
 39 91  1  0  0  0  0
 40 92  1  0  0  0  0
 40 93  1  0  0  0  0
 40 94  1  0  0  0  0
 41 44  1  0  0  0  0
 41 95  1  0  0  0  0
 41 96  1  0  0  0  0
 42 45  1  0  0  0  0
 42 97  1  0  0  0  0
 42 98  1  0  0  0  0
 43 99  1  0  0  0  0
 43100  1  0  0  0  0
 43101  1  0  0  0  0
 44 45  1  0  0  0  0
 44102  1  0  0  0  0
 44103  1  0  0  0  0
 45104  1  0  0  0  0
 46105  1  0  0  0  0
 46106  1  0  0  0  0
 46107  1  0  0  0  0
 47 48  1  0  0  0  0
 47108  1  0  0  0  0
 47109  1  0  0  0  0
 48 50  1  0  0  0  0
 48110  1  0  0  0  0
 48111  1  0  0  0  0
 49 50  1  0  0  0  0
 49113  1  0  0  0  0
 49114  1  0  0  0  0
 50 51  1  0  0  0  0
 50115  1  0  0  0  0
 51116  1  0  0  0  0
 51117  1  0  0  0  0
 51118  1  0  0  0  0
 52 53  1  0  0  0  0
 52119  1  0  0  0  0
 53 54  1  0  0  0  0
 53120  1  0  0  0  0
 54 56  1  0  0  0  0
 54121  1  0  0  0  0
 55 56  1  0  0  0  0
 55 57  1  0  0  0  0
 55122  1  0  0  0  0
 56123  1  0  0  0  0
 57125  1  0  0  0  0
 57126  1  0  0  0  0
 58 59  1  0  0  0  0
 58128  1  0  0  0  0
 59 60  1  0  0  0  0
 59130  1  0  0  0  0
 60 62  1  0  0  0  0
 60131  1  0  0  0  0
 61 62  1  0  0  0  0
 61 63  1  0  0  0  0
 61132  1  0  0  0  0
 62133  1  0  0  0  0
 63134  1  0  0  0  0
 63135  1  0  0  0  0
 64 66  1  0  0  0  0
 64136  1  0  0  0  0
 65 67  1  0  0  0  0
 65138  1  0  0  0  0
 66 68  1  0  0  0  0
 66139  1  0  0  0  0
 67 71  1  0  0  0  0
 67140  1  0  0  0  0
 68 70  1  0  0  0  0
 68141  1  0  0  0  0
 69 70  1  0  0  0  0
 69 74  1  0  0  0  0
 69143  1  0  0  0  0
 70144  1  0  0  0  0
 71 73  1  0  0  0  0
 71145  1  0  0  0  0
 72 73  1  0  0  0  0
 72 75  1  0  0  0  0
 72146  1  0  0  0  0
 73147  1  0  0  0  0
 74149  1  0  0  0  0
 74150  1  0  0  0  0
 75153  1  0  0  0  0
 75154  1  0  0  0  0
M  END
>  <PUBCHEM_COMPOUND_CID>
194485

>  <PUBCHEM_COMPOUND_CANONICALIZED>
1

>  <PUBCHEM_CACTVS_COMPLEXITY>
1930

>  <PUBCHEM_CACTVS_HBOND_ACCEPTOR>
24

>  <PUBCHEM_CACTVS_HBOND_DONOR>
14

>  <PUBCHEM_CACTVS_ROTATABLE_BOND>
12

>  <PUBCHEM_CACTVS_SUBSKEYS>
AAADcfB8PgAAAAAAAAAAAAAAAAAAAaIAAAA0aNEiQAASAGDAAAAAGgAACAAADxSwgAMCCAAABgAAAAAAAAAAAAAAAAAAAAAAAAAREAIAAAAiQAAFAAAHAAHA4PwPgAAAAAAAAADAAAYAADAAAYAADAAAAA==

>  <PUBCHEM_IUPAC_INCHI>
InChI=1S/C51H84O24/c1-19-5-10-51(66-18-19)20(2)32-27(75-51)13-24-22-12-26(56)25-11-21(6-8-49(25,3)23(22)7-9-50(24,32)4)67-45-41(65)38(62)42(31(17-55)71-45)72-48-44(74-47-40(64)37(61)34(58)29(15-53)69-47)43(35(59)30(16-54)70-48)73-46-39(63)36(60)33(57)28(14-52)68-46/h19-48,52-65H,5-18H2,1-4H3

>  <PUBCHEM_IUPAC_INCHIKEY>
ZQEKBPUAGJKEQO-UHFFFAOYSA-N

>  <PUBCHEM_XLOGP3_AA>
-1.8

>  <PUBCHEM_EXACT_MASS>
1080.535

>  <PUBCHEM_MOLECULAR_FORMULA>
C51H84O24

>  <PUBCHEM_MOLECULAR_WEIGHT>
1081.209

>  <PUBCHEM_OPENEYE_CAN_SMILES>
CC1CCC2(C(C3C(O2)CC4C3(CCC5C4CC(C6C5(CCC(C6)OC7C(C(C(C(O7)CO)OC8C(C(C(C(O8)CO)O)OC9C(C(C(C(O9)CO)O)O)O)OC2C(C(C(C(O2)CO)O)O)O)O)O)C)O)C)C)OC1

>  <PUBCHEM_OPENEYE_ISO_SMILES>
CC1CCC2(C(C3C(O2)CC4C3(CCC5C4CC(C6C5(CCC(C6)OC7C(C(C(C(O7)CO)OC8C(C(C(C(O8)CO)O)OC9C(C(C(C(O9)CO)O)O)O)OC2C(C(C(C(O2)CO)O)O)O)O)O)C)O)C)C)OC1

>  <PUBCHEM_CACTVS_TPSA>
376

>  <PUBCHEM_MONOISOTOPIC_WEIGHT>
1080.535

>  <PUBCHEM_TOTAL_CHARGE>
0

>  <PUBCHEM_HEAVY_ATOM_COUNT>
75

>  <PUBCHEM_ATOM_DEF_STEREO_COUNT>
0

>  <PUBCHEM_ATOM_UDEF_STEREO_COUNT>
33

>  <PUBCHEM_BOND_DEF_STEREO_COUNT>
0

>  <PUBCHEM_BOND_UDEF_STEREO_COUNT>
0

>  <PUBCHEM_ISOTOPIC_ATOM_COUNT>
0

>  <PUBCHEM_COMPONENT_COUNT>
1

>  <PUBCHEM_CACTVS_TAUTO_COUNT>
1

>  <PUBCHEM_COORDINATE_TYPE>
1
5
255

>  <PUBCHEM_BONDANNOTATIONS>
25  40  3
26  76  3
27  77  3
28  78  3
29  79  3
30  43  3
31  80  3
35  87  3
36  88  3
38  47  3
39  91  3
45  104  3
50  115  3
52  119  3
53  120  3
54  121  3
55  122  3
56  123  3
58  128  3
59  130  3
60  131  3
61  132  3
62  133  3
64  136  3
65  138  3
66  139  3
67  140  3
68  141  3
69  143  3
70  144  3
71  145  3
72  146  3
73  147  3

$$$$
