196509
 OpenBabel06101807152D

 26 25  0  0  0  0  0  0  0  0999 V2000
    4.2690    0.6900    0.0000 N   0  0  0  0  0  0  0  0  0  0  0  0
    8.5991    0.1900    0.0000 N   0  0  0  0  0  0  0  0  0  0  0  0
    2.5369    0.6900    0.0000 N   0  0  0  0  0  0  0  0  0  0  0  0
    3.4030   -0.8100    0.0000 N   0  0  0  0  0  0  0  0  0  0  0  0
    6.0010    0.6900    0.0000 C   0  0  0  0  0  0  0  0  0  0  0  0
    6.8671    0.1900    0.0000 C   0  0  0  0  0  0  0  0  0  0  0  0
    5.1350    0.1900    0.0000 C   0  0  0  0  0  0  0  0  0  0  0  0
    7.7331    0.6900    0.0000 C   0  0  0  0  0  0  0  0  0  0  0  0
    3.4030    0.1900    0.0000 C   0  0  0  0  0  0  0  0  0  0  0  0
    2.5369   -1.3100    0.0000 C   0  0  0  0  0  0  0  0  0  0  0  0
    6.3996    1.1650    0.0000 H   0  0  0  0  0  0  0  0  0  0  0  0
    5.6025    1.1650    0.0000 H   0  0  0  0  0  0  0  0  0  0  0  0
    6.4685   -0.2849    0.0000 H   0  0  0  0  0  0  0  0  0  0  0  0
    7.2656   -0.2849    0.0000 H   0  0  0  0  0  0  0  0  0  0  0  0
    4.7365   -0.2849    0.0000 H   0  0  0  0  0  0  0  0  0  0  0  0
    5.5335   -0.2849    0.0000 H   0  0  0  0  0  0  0  0  0  0  0  0
    8.1316    1.1650    0.0000 H   0  0  0  0  0  0  0  0  0  0  0  0
    7.3346    1.1650    0.0000 H   0  0  0  0  0  0  0  0  0  0  0  0
    4.2690    1.3100    0.0000 H   0  0  0  0  0  0  0  0  0  0  0  0
    9.1360    0.5000    0.0000 H   0  0  0  0  0  0  0  0  0  0  0  0
    8.5991   -0.4300    0.0000 H   0  0  0  0  0  0  0  0  0  0  0  0
    2.0000    0.3800    0.0000 H   0  0  0  0  0  0  0  0  0  0  0  0
    2.5369    1.3100    0.0000 H   0  0  0  0  0  0  0  0  0  0  0  0
    2.2269   -0.7731    0.0000 H   0  0  0  0  0  0  0  0  0  0  0  0
    2.0000   -1.6200    0.0000 H   0  0  0  0  0  0  0  0  0  0  0  0
    2.8469   -1.8469    0.0000 H   0  0  0  0  0  0  0  0  0  0  0  0
  1  7  1  0  0  0  0
  1  9  1  0  0  0  0
  1 19  1  0  0  0  0
  2  8  1  0  0  0  0
  2 20  1  0  0  0  0
  2 21  1  0  0  0  0
  3  9  1  0  0  0  0
  3 22  1  0  0  0  0
  3 23  1  0  0  0  0
  4  9  2  0  0  0  0
  4 10  1  0  0  0  0
  5  6  1  0  0  0  0
  5  7  1  0  0  0  0
  5 11  1  0  0  0  0
  5 12  1  0  0  0  0
  6  8  1  0  0  0  0
  6 13  1  0  0  0  0
  6 14  1  0  0  0  0
  7 15  1  0  0  0  0
  7 16  1  0  0  0  0
  8 17  1  0  0  0  0
  8 18  1  0  0  0  0
 10 24  1  0  0  0  0
 10 25  1  0  0  0  0
 10 26  1  0  0  0  0
M  END
>  <PUBCHEM_COMPOUND_CID>
196509

>  <PUBCHEM_COMPOUND_CANONICALIZED>
1

>  <PUBCHEM_CACTVS_COMPLEXITY>
99.9

>  <PUBCHEM_CACTVS_HBOND_ACCEPTOR>
2

>  <PUBCHEM_CACTVS_HBOND_DONOR>
3

>  <PUBCHEM_CACTVS_ROTATABLE_BOND>
5

>  <PUBCHEM_CACTVS_SUBSKEYS>
AAADceBjgAAAAAAAAAAAAAAAAAAAAAAAAAAAAAAAAAAAAAAAAAAAHAAQAAAACADBAAQDAALAAAAgAAAAJAAAAAEAAAABAIAIAACAAAAAiAAEAAAAEAIAAAAAAAAAAAAAAAAAAAAAAAAAAAAAAAAAAAAAAA==

>  <PUBCHEM_IUPAC_OPENEYE_NAME>
1-(4-aminobutyl)-2-methyl-guanidine

>  <PUBCHEM_IUPAC_CAS_NAME>
1-(4-aminobutyl)-2-methylguanidine

>  <PUBCHEM_IUPAC_NAME>
1-(4-aminobutyl)-2-methylguanidine

>  <PUBCHEM_IUPAC_SYSTEMATIC_NAME>
1-(4-azanylbutyl)-2-methyl-guanidine

>  <PUBCHEM_IUPAC_TRADITIONAL_NAME>
1-(4-aminobutyl)-2-methyl-guanidine

>  <PUBCHEM_IUPAC_INCHI>
InChI=1S/C6H16N4/c1-9-6(8)10-5-3-2-4-7/h2-5,7H2,1H3,(H3,8,9,10)

>  <PUBCHEM_IUPAC_INCHIKEY>
CEZLGLLDSAKBNX-UHFFFAOYSA-N

>  <PUBCHEM_XLOGP3_AA>
-1.1

>  <PUBCHEM_EXACT_MASS>
144.137

>  <PUBCHEM_MOLECULAR_FORMULA>
C6H16N4

>  <PUBCHEM_MOLECULAR_WEIGHT>
144.222

>  <PUBCHEM_OPENEYE_CAN_SMILES>
CN=C(N)NCCCCN

>  <PUBCHEM_OPENEYE_ISO_SMILES>
CN=C(N)NCCCCN

>  <PUBCHEM_CACTVS_TPSA>
76.4

>  <PUBCHEM_MONOISOTOPIC_WEIGHT>
144.137

>  <PUBCHEM_TOTAL_CHARGE>
0

>  <PUBCHEM_HEAVY_ATOM_COUNT>
10

>  <PUBCHEM_ATOM_DEF_STEREO_COUNT>
0

>  <PUBCHEM_ATOM_UDEF_STEREO_COUNT>
0

>  <PUBCHEM_BOND_DEF_STEREO_COUNT>
0

>  <PUBCHEM_BOND_UDEF_STEREO_COUNT>
0

>  <PUBCHEM_ISOTOPIC_ATOM_COUNT>
0

>  <PUBCHEM_COMPONENT_COUNT>
1

>  <PUBCHEM_CACTVS_TAUTO_COUNT>
3

>  <PUBCHEM_COORDINATE_TYPE>
1
5
255

$$$$
