196885
 OpenBabel06101807152D

 46 49  0  0  1  0  0  0  0  0999 V2000
    2.8660    0.0302    0.0000 O   0  0  0  0  0  0  0  0  0  0  0  0
    2.8660   -1.9698    0.0000 O   0  0  0  0  0  0  0  0  0  0  0  0
    2.7416    3.1672    0.0000 O   0  0  0  0  0  0  0  0  0  0  0  0
    4.5449    4.2270    0.0000 O   0  0  0  0  0  0  0  0  0  0  0  0
    5.4800   -3.5390    0.0000 N   0  0  0  0  0  0  0  0  0  0  0  0
    5.4641   -1.4698    0.0000 C   0  0  0  0  0  0  0  0  0  0  0  0
    4.5981   -1.9698    0.0000 C   0  0  0  0  0  0  0  0  0  0  0  0
    6.3741   -1.9766    0.0000 C   0  0  0  0  0  0  0  0  0  0  0  0
    4.5820   -3.0113    0.0000 C   0  0  0  0  0  0  0  0  0  0  0  0
    6.3821   -3.0182    0.0000 C   0  0  0  0  0  0  0  0  0  0  0  0
    5.4641   -0.4698    0.0000 C   0  0  0  0  0  0  0  0  0  0  0  0
    4.5981    0.0302    0.0000 C   0  0  0  0  0  0  0  0  0  0  0  0
    3.7320   -1.4698    0.0000 C   0  0  0  0  0  0  0  0  0  0  0  0
    3.7320   -0.4698    0.0000 C   0  0  0  0  0  0  0  0  0  0  0  0
    4.5820    1.0717    0.0000 C   0  0  0  0  0  0  0  0  0  0  0  0
    6.3741    0.0371    0.0000 C   0  0  0  0  0  0  0  0  0  0  0  0
    5.4800    1.5995    0.0000 C   0  0  0  0  0  0  0  0  0  0  0  0
    5.4762   -4.5390    0.0000 C   0  0  0  0  0  0  0  0  0  0  0  0
    6.3821    1.0787    0.0000 C   0  0  0  0  0  0  0  0  0  0  0  0
    3.6301    1.5924    0.0000 C   0  0  0  0  0  0  0  0  0  0  0  0
    5.4884    2.6845    0.0000 C   0  0  0  0  0  0  0  0  0  0  0  0
    3.6134    2.6772    0.0000 C   0  0  0  0  0  0  0  0  0  0  0  0
    4.5488    3.2270    0.0000 C   0  0  0  0  0  0  0  0  0  0  0  0
    2.0000   -0.4698    0.0000 C   0  0  0  0  0  0  0  0  0  0  0  0
    2.7300    4.1671    0.0000 C   0  0  0  0  0  0  0  0  0  0  0  0
    6.9858   -2.0780    0.0000 H   0  0  0  0  0  0  0  0  0  0  0  0
    6.5786   -1.3913    0.0000 H   0  0  0  0  0  0  0  0  0  0  0  0
    3.9729   -2.8958    0.0000 H   0  0  0  0  0  0  0  0  0  0  0  0
    4.3640   -3.5917    0.0000 H   0  0  0  0  0  0  0  0  0  0  0  0
    6.5957   -3.6003    0.0000 H   0  0  0  0  0  0  0  0  0  0  0  0
    6.9922   -2.9074    0.0000 H   0  0  0  0  0  0  0  0  0  0  0  0
    6.9074   -0.2791    0.0000 H   0  0  0  0  0  0  0  0  0  0  0  0
    4.8562   -4.5366    0.0000 H   0  0  0  0  0  0  0  0  0  0  0  0
    5.4738   -5.1590    0.0000 H   0  0  0  0  0  0  0  0  0  0  0  0
    6.0962   -4.5414    0.0000 H   0  0  0  0  0  0  0  0  0  0  0  0
    6.9203    1.3866    0.0000 H   0  0  0  0  0  0  0  0  0  0  0  0
    3.0992    1.2721    0.0000 H   0  0  0  0  0  0  0  0  0  0  0  0
    6.0265    2.9924    0.0000 H   0  0  0  0  0  0  0  0  0  0  0  0
    2.8660   -2.5898    0.0000 H   0  0  0  0  0  0  0  0  0  0  0  0
    1.6900    0.0672    0.0000 H   0  0  0  0  0  0  0  0  0  0  0  0
    1.4631   -0.7798    0.0000 H   0  0  0  0  0  0  0  0  0  0  0  0
    2.3100   -1.0067    0.0000 H   0  0  0  0  0  0  0  0  0  0  0  0
    5.0807    4.5390    0.0000 H   0  0  0  0  0  0  0  0  0  0  0  0
    3.3500    4.1743    0.0000 H   0  0  0  0  0  0  0  0  0  0  0  0
    2.7229    4.7871    0.0000 H   0  0  0  0  0  0  0  0  0  0  0  0
    2.1101    4.1600    0.0000 H   0  0  0  0  0  0  0  0  0  0  0  0
  1 14  1  0  0  0  0
  1 24  1  0  0  0  0
  2 13  1  0  0  0  0
  2 39  1  0  0  0  0
  3 22  1  0  0  0  0
  3 25  1  0  0  0  0
  4 23  1  0  0  0  0
  4 43  1  0  0  0  0
  5  9  1  0  0  0  0
  5 10  1  0  0  0  0
  5 18  1  0  0  0  0
  6  7  1  0  0  0  0
  6  8  1  0  0  0  0
  6 11  2  0  0  0  0
  7  9  1  0  0  0  0
  7 13  2  0  0  0  0
  8 10  1  0  0  0  0
  8 26  1  0  0  0  0
  8 27  1  0  0  0  0
  9 28  1  0  0  0  0
  9 29  1  0  0  0  0
 10 30  1  0  0  0  0
 10 31  1  0  0  0  0
 11 12  1  0  0  0  0
 11 16  1  0  0  0  0
 12 14  2  0  0  0  0
 12 15  1  0  0  0  0
 13 14  1  0  0  0  0
 15 17  1  0  0  0  0
 15 20  2  0  0  0  0
 16 19  2  0  0  0  0
 16 32  1  0  0  0  0
 17 19  1  0  0  0  0
 17 21  2  0  0  0  0
 18 33  1  0  0  0  0
 18 34  1  0  0  0  0
 18 35  1  0  0  0  0
 19 36  1  0  0  0  0
 20 22  1  0  0  0  0
 20 37  1  0  0  0  0
 21 23  1  0  0  0  0
 21 38  1  0  0  0  0
 22 23  2  0  0  0  0
 24 40  1  0  0  0  0
 24 41  1  0  0  0  0
 24 42  1  0  0  0  0
 25 44  1  0  0  0  0
 25 45  1  0  0  0  0
 25 46  1  0  0  0  0
M  END
>  <PUBCHEM_COMPOUND_CID>
196885

>  <PUBCHEM_COMPOUND_CANONICALIZED>
1

>  <PUBCHEM_CACTVS_COMPLEXITY>
475

>  <PUBCHEM_CACTVS_HBOND_ACCEPTOR>
5

>  <PUBCHEM_CACTVS_HBOND_DONOR>
2

>  <PUBCHEM_CACTVS_ROTATABLE_BOND>
2

>  <PUBCHEM_CACTVS_SUBSKEYS>
AAADceB6OAAAAAAAAAAAAAAAAAAAAAAAAAA8YMEAAAAAAADxVAAAHgAACAAADATBmAYyBsMABgCAAiBCAACCCAAgIAAIiAAOjIgNJiKGsRuEcCtmwBGLuAew8P4O4AADAAAYQADAAAYAADCAAAAAAAAAAA==

>  <PUBCHEM_IUPAC_OPENEYE_NAME>
9,11-dimethoxy-2-methyl-3,4-dihydro-1H-naphtho[2,1-f]isoquinoline-8,12-diol

>  <PUBCHEM_IUPAC_CAS_NAME>
9,11-dimethoxy-2-methyl-3,4-dihydro-1H-naphtho[2,1-f]isoquinoline-8,12-diol

>  <PUBCHEM_IUPAC_NAME>
9,11-dimethoxy-2-methyl-3,4-dihydro-1H-naphtho[2,1-f]isoquinoline-8,12-diol

>  <PUBCHEM_IUPAC_SYSTEMATIC_NAME>
9,11-dimethoxy-2-methyl-3,4-dihydro-1H-naphtho[2,1-f]isoquinoline-8,12-diol

>  <PUBCHEM_IUPAC_TRADITIONAL_NAME>
9,11-dimethoxy-2-methyl-3,4-dihydro-1H-naphth[2,1-f]isoquinoline-8,12-diol

>  <PUBCHEM_IUPAC_INCHI>
InChI=1S/C20H21NO4/c1-21-7-6-12-13-5-4-11-8-16(22)17(24-2)9-14(11)18(13)20(25-3)19(23)15(12)10-21/h4-5,8-9,22-23H,6-7,10H2,1-3H3

>  <PUBCHEM_IUPAC_INCHIKEY>
QOWFEPGZJDCIKG-UHFFFAOYSA-N

>  <PUBCHEM_XLOGP3_AA>
3.5

>  <PUBCHEM_EXACT_MASS>
339.147

>  <PUBCHEM_MOLECULAR_FORMULA>
C20H21NO4

>  <PUBCHEM_MOLECULAR_WEIGHT>
339.391

>  <PUBCHEM_OPENEYE_CAN_SMILES>
CN1CCC2=C(C1)C(=C(C3=C2C=CC4=CC(=C(C=C43)OC)O)OC)O

>  <PUBCHEM_OPENEYE_ISO_SMILES>
CN1CCC2=C(C1)C(=C(C3=C2C=CC4=CC(=C(C=C43)OC)O)OC)O

>  <PUBCHEM_CACTVS_TPSA>
62.2

>  <PUBCHEM_MONOISOTOPIC_WEIGHT>
339.147

>  <PUBCHEM_TOTAL_CHARGE>
0

>  <PUBCHEM_HEAVY_ATOM_COUNT>
25

>  <PUBCHEM_ATOM_DEF_STEREO_COUNT>
0

>  <PUBCHEM_ATOM_UDEF_STEREO_COUNT>
0

>  <PUBCHEM_BOND_DEF_STEREO_COUNT>
0

>  <PUBCHEM_BOND_UDEF_STEREO_COUNT>
0

>  <PUBCHEM_ISOTOPIC_ATOM_COUNT>
0

>  <PUBCHEM_COMPONENT_COUNT>
1

>  <PUBCHEM_CACTVS_TAUTO_COUNT>
76

>  <PUBCHEM_COORDINATE_TYPE>
1
5
255

>  <PUBCHEM_BONDANNOTATIONS>
11  12  8
11  16  8
12  14  8
12  15  8
13  14  8
15  17  8
15  20  8
16  19  8
17  19  8
17  21  8
20  22  8
21  23  8
22  23  8
6  11  8
6  7  8
7  13  8

$$$$
