21192043
 OpenBabel06101807152D

  4  1  0  0  0  0  0  0  0  0999 V2000
    0.0000    0.0000    0.0000 K   0  3  0  0  0 15  0  0  0  0  0  0
    0.4515    2.5000    0.0000 K   0  3  0  0  0 15  0  0  0  0  0  0
    0.8660    0.5000    0.0000 O   0  5  0  0  0  0  0  0  0  0  0  0
    1.4030    0.1900    0.0000 H   0  0  0  0  0  0  0  0  0  0  0  0
  3  4  1  0  0  0  0
M  CHG  3   1   1   2   1   3  -1
M  END
>  <PUBCHEM_COMPOUND_CID>
21192043

>  <PUBCHEM_COMPOUND_CANONICALIZED>
1

>  <PUBCHEM_CACTVS_COMPLEXITY>
0

>  <PUBCHEM_CACTVS_HBOND_ACCEPTOR>
1

>  <PUBCHEM_CACTVS_HBOND_DONOR>
1

>  <PUBCHEM_CACTVS_ROTATABLE_BOND>
0

>  <PUBCHEM_CACTVS_SUBSKEYS>
AAADcQAAIAAAYAAAAAAAAAAAAAAAAAAAAAAAAAAAAAAAAAAAAAAAAAAACAAAAAAAAAAAAAAAAAAAAAAAAAAAAAAAAAAAAAAAAAAAAAAAAAAAAAAAAAAAAAAAAAAAAAAAAAAAAAAAAAAAAAAAAAAAAAAAAA==

>  <PUBCHEM_IUPAC_OPENEYE_NAME>
dipotassium;hydroxide

>  <PUBCHEM_IUPAC_CAS_NAME>
dipotassium;hydroxide

>  <PUBCHEM_IUPAC_NAME>
dipotassium;hydroxide

>  <PUBCHEM_IUPAC_SYSTEMATIC_NAME>
dipotassium;hydroxide

>  <PUBCHEM_IUPAC_TRADITIONAL_NAME>
dipotassium;hydroxide

>  <PUBCHEM_IUPAC_INCHI>
InChI=1S/2K.H2O/h;;1H2/q2*+1;/p-1

>  <PUBCHEM_IUPAC_INCHIKEY>
FZFYOUJTOSBFPQ-UHFFFAOYSA-M

>  <PUBCHEM_EXACT_MASS>
94.93

>  <PUBCHEM_MOLECULAR_FORMULA>
HK2O+

>  <PUBCHEM_MOLECULAR_WEIGHT>
95.204

>  <PUBCHEM_OPENEYE_CAN_SMILES>
[OH-].[K+].[K+]

>  <PUBCHEM_OPENEYE_ISO_SMILES>
[OH-].[K+].[K+]

>  <PUBCHEM_CACTVS_TPSA>
1

>  <PUBCHEM_MONOISOTOPIC_WEIGHT>
94.93

>  <PUBCHEM_TOTAL_CHARGE>
1

>  <PUBCHEM_HEAVY_ATOM_COUNT>
3

>  <PUBCHEM_ATOM_DEF_STEREO_COUNT>
0

>  <PUBCHEM_ATOM_UDEF_STEREO_COUNT>
0

>  <PUBCHEM_BOND_DEF_STEREO_COUNT>
0

>  <PUBCHEM_BOND_UDEF_STEREO_COUNT>
0

>  <PUBCHEM_ISOTOPIC_ATOM_COUNT>
0

>  <PUBCHEM_COMPONENT_COUNT>
3

>  <PUBCHEM_CACTVS_TAUTO_COUNT>
1

>  <PUBCHEM_COORDINATE_TYPE>
1
5
255

$$$$
