21576544
 OpenBabel06101807152D

 41 43  0  0  0  0  0  0  0  0999 V2000
    6.4144    1.8592    0.0000 O   0  0  0  0  0  0  0  0  0  0  0  0
    4.6660    1.8246    0.0000 O   0  0  0  0  0  0  0  0  0  0  0  0
    4.6660   -2.1754    0.0000 O   0  0  0  0  0  0  0  0  0  0  0  0
    5.5321    0.3246    0.0000 C   0  0  0  0  0  0  0  0  0  0  0  0
    7.3321    0.3454    0.0000 C   0  0  0  0  0  0  0  0  0  0  0  0
    5.5321   -0.6754    0.0000 C   0  0  0  0  0  0  0  0  0  0  0  0
    8.1962    0.8488    0.0000 C   0  0  0  0  0  0  0  0  0  0  0  0
    6.4260    0.8593    0.0000 C   0  0  0  0  0  0  0  0  0  0  0  0
    3.8000    0.3246    0.0000 C   0  0  0  0  0  0  0  0  0  0  0  0
    3.8000   -0.6754    0.0000 C   0  0  0  0  0  0  0  0  0  0  0  0
    9.0641    0.3521    0.0000 C   0  0  0  0  0  0  0  0  0  0  0  0
    4.6660    0.8246    0.0000 C   0  0  0  0  0  0  0  0  0  0  0  0
    7.3321   -0.6962    0.0000 C   0  0  0  0  0  0  0  0  0  0  0  0
    4.6660   -1.1754    0.0000 C   0  0  0  0  0  0  0  0  0  0  0  0
    6.4260   -1.2100    0.0000 C   0  0  0  0  0  0  0  0  0  0  0  0
    9.9282    0.8554    0.0000 C   0  0  0  0  0  0  0  0  0  0  0  0
    2.9061    0.8593    0.0000 C   0  0  0  0  0  0  0  0  0  0  0  0
    2.9061   -1.2100    0.0000 C   0  0  0  0  0  0  0  0  0  0  0  0
   10.7961    0.3588    0.0000 C   0  0  0  0  0  0  0  0  0  0  0  0
    2.0000    0.3454    0.0000 C   0  0  0  0  0  0  0  0  0  0  0  0
    2.0000   -0.6962    0.0000 C   0  0  0  0  0  0  0  0  0  0  0  0
   11.6602    0.8621    0.0000 C   0  0  0  0  0  0  0  0  0  0  0  0
   10.8000   -0.6412    0.0000 C   0  0  0  0  0  0  0  0  0  0  0  0
    8.5929    1.3252    0.0000 H   0  0  0  0  0  0  0  0  0  0  0  0
    7.7958    1.3222    0.0000 H   0  0  0  0  0  0  0  0  0  0  0  0
    8.6674   -0.1244    0.0000 H   0  0  0  0  0  0  0  0  0  0  0  0
    9.4645   -0.1213    0.0000 H   0  0  0  0  0  0  0  0  0  0  0  0
    7.8678   -1.0083    0.0000 H   0  0  0  0  0  0  0  0  0  0  0  0
    6.4188   -1.8300    0.0000 H   0  0  0  0  0  0  0  0  0  0  0  0
    9.9258    1.4754    0.0000 H   0  0  0  0  0  0  0  0  0  0  0  0
    2.9132    1.4792    0.0000 H   0  0  0  0  0  0  0  0  0  0  0  0
    2.9132   -1.8300    0.0000 H   0  0  0  0  0  0  0  0  0  0  0  0
    1.4643    0.6575    0.0000 H   0  0  0  0  0  0  0  0  0  0  0  0
    1.4643   -1.0083    0.0000 H   0  0  0  0  0  0  0  0  0  0  0  0
    6.9478    2.1754    0.0000 H   0  0  0  0  0  0  0  0  0  0  0  0
   11.9723    0.3264    0.0000 H   0  0  0  0  0  0  0  0  0  0  0  0
   10.1800   -0.6436    0.0000 H   0  0  0  0  0  0  0  0  0  0  0  0
   10.8024   -1.2612    0.0000 H   0  0  0  0  0  0  0  0  0  0  0  0
   11.4200   -0.6388    0.0000 H   0  0  0  0  0  0  0  0  0  0  0  0
   12.1960    1.1742    0.0000 H   0  0  0  0  0  0  0  0  0  0  0  0
   11.3482    1.3978    0.0000 H   0  0  0  0  0  0  0  0  0  0  0  0
  1  8  1  0  0  0  0
  1 35  1  0  0  0  0
  2 12  2  0  0  0  0
  3 14  2  0  0  0  0
  4  6  2  0  0  0  0
  4  8  1  0  0  0  0
  4 12  1  0  0  0  0
  5  7  1  0  0  0  0
  5  8  2  0  0  0  0
  5 13  1  0  0  0  0
  6 14  1  0  0  0  0
  6 15  1  0  0  0  0
  7 11  1  0  0  0  0
  7 24  1  0  0  0  0
  7 25  1  0  0  0  0
  9 10  1  0  0  0  0
  9 12  1  0  0  0  0
  9 17  2  0  0  0  0
 10 14  1  0  0  0  0
 10 18  2  0  0  0  0
 11 16  1  0  0  0  0
 11 26  1  0  0  0  0
 11 27  1  0  0  0  0
 13 15  2  0  0  0  0
 13 28  1  0  0  0  0
 15 29  1  0  0  0  0
 16 19  2  0  0  0  0
 16 30  1  0  0  0  0
 17 20  1  0  0  0  0
 17 31  1  0  0  0  0
 18 21  1  0  0  0  0
 18 32  1  0  0  0  0
 19 22  1  0  0  0  0
 19 23  1  0  0  0  0
 20 21  2  0  0  0  0
 20 33  1  0  0  0  0
 21 34  1  0  0  0  0
 22 36  1  0  0  0  0
 22 40  1  0  0  0  0
 22 41  1  0  0  0  0
 23 37  1  0  0  0  0
 23 38  1  0  0  0  0
 23 39  1  0  0  0  0
M  END
>  <PUBCHEM_COMPOUND_CID>
21576544

>  <PUBCHEM_COMPOUND_CANONICALIZED>
1

>  <PUBCHEM_CACTVS_COMPLEXITY>
503

>  <PUBCHEM_CACTVS_HBOND_ACCEPTOR>
3

>  <PUBCHEM_CACTVS_HBOND_DONOR>
1

>  <PUBCHEM_CACTVS_ROTATABLE_BOND>
3

>  <PUBCHEM_CACTVS_SUBSKEYS>
AAADceB4MAAAAAAAAAAAAAAAAAAAAAAAAAAwYMAAAAAAAADBQAAAGgAACAAADASAmAAyBoAAAgCIAqBSAAACAAAkIAAIiAEECMgIJjaCFRKAcUAk4BEImYeLyPCOwAADAAAYAACAAAYAADAAAAAAAAAAAA==

>  <PUBCHEM_IUPAC_OPENEYE_NAME>
1-hydroxy-2-(4-methylpent-3-enyl)anthracene-9,10-dione

>  <PUBCHEM_IUPAC_CAS_NAME>
1-hydroxy-2-(4-methylpent-3-enyl)anthracene-9,10-dione

>  <PUBCHEM_IUPAC_NAME>
1-hydroxy-2-(4-methylpent-3-enyl)anthracene-9,10-dione

>  <PUBCHEM_IUPAC_SYSTEMATIC_NAME>
2-(4-methylpent-3-enyl)-1-oxidanyl-anthracene-9,10-dione

>  <PUBCHEM_IUPAC_TRADITIONAL_NAME>
1-hydroxy-2-(4-methylpent-3-enyl)-9,10-anthraquinone

>  <PUBCHEM_IUPAC_INCHI>
InChI=1S/C20H18O3/c1-12(2)6-5-7-13-10-11-16-17(18(13)21)20(23)15-9-4-3-8-14(15)19(16)22/h3-4,6,8-11,21H,5,7H2,1-2H3

>  <PUBCHEM_IUPAC_INCHIKEY>
JUALUQSCKLUXDY-UHFFFAOYSA-N

>  <PUBCHEM_XLOGP3_AA>
5.3

>  <PUBCHEM_EXACT_MASS>
306.126

>  <PUBCHEM_MOLECULAR_FORMULA>
C20H18O3

>  <PUBCHEM_MOLECULAR_WEIGHT>
306.361

>  <PUBCHEM_OPENEYE_CAN_SMILES>
CC(=CCCC1=C(C2=C(C=C1)C(=O)C3=CC=CC=C3C2=O)O)C

>  <PUBCHEM_OPENEYE_ISO_SMILES>
CC(=CCCC1=C(C2=C(C=C1)C(=O)C3=CC=CC=C3C2=O)O)C

>  <PUBCHEM_CACTVS_TPSA>
54.4

>  <PUBCHEM_MONOISOTOPIC_WEIGHT>
306.126

>  <PUBCHEM_TOTAL_CHARGE>
0

>  <PUBCHEM_HEAVY_ATOM_COUNT>
23

>  <PUBCHEM_ATOM_DEF_STEREO_COUNT>
0

>  <PUBCHEM_ATOM_UDEF_STEREO_COUNT>
0

>  <PUBCHEM_BOND_DEF_STEREO_COUNT>
0

>  <PUBCHEM_BOND_UDEF_STEREO_COUNT>
0

>  <PUBCHEM_ISOTOPIC_ATOM_COUNT>
0

>  <PUBCHEM_COMPONENT_COUNT>
1

>  <PUBCHEM_CACTVS_TAUTO_COUNT>
53

>  <PUBCHEM_COORDINATE_TYPE>
1
5
255

>  <PUBCHEM_BONDANNOTATIONS>
10  18  8
13  15  8
17  20  8
18  21  8
20  21  8
4  6  8
4  8  8
5  13  8
5  8  8
6  15  8
9  10  8
9  17  8

$$$$
