21574503
 OpenBabel06101807152D

 58 63  0  0  0  0  0  0  0  0999 V2000
    6.0682   -0.2704    0.0000 O   0  0  0  0  0  0  0  0  0  0  0  0
   14.7285   -0.2704    0.0000 O   0  0  0  0  0  0  0  0  0  0  0  0
   10.3984   -1.7704    0.0000 O   0  0  0  0  0  0  0  0  0  0  0  0
    4.3198    2.7642    0.0000 O   0  0  0  0  0  0  0  0  0  0  0  0
    8.6663   -2.7704    0.0000 O   0  0  0  0  0  0  0  0  0  0  0  0
   16.4769    2.7642    0.0000 O   0  0  0  0  0  0  0  0  0  0  0  0
    6.0682    2.7296    0.0000 O   0  0  0  0  0  0  0  0  0  0  0  0
   14.7285    2.7296    0.0000 O   0  0  0  0  0  0  0  0  0  0  0  0
    2.5381   -0.2945    0.0000 O   0  0  0  0  0  0  0  0  0  0  0  0
   18.2586   -0.2945    0.0000 O   0  0  0  0  0  0  0  0  0  0  0  0
    6.9343    0.2296    0.0000 C   0  0  0  0  0  0  0  0  0  0  0  0
    7.8003   -0.2704    0.0000 C   0  0  0  0  0  0  0  0  0  0  0  0
    5.2022    1.2296    0.0000 C   0  0  0  0  0  0  0  0  0  0  0  0
    5.2022    0.2296    0.0000 C   0  0  0  0  0  0  0  0  0  0  0  0
   15.5945    1.2296    0.0000 C   0  0  0  0  0  0  0  0  0  0  0  0
   13.8625    0.2296    0.0000 C   0  0  0  0  0  0  0  0  0  0  0  0
   12.9965   -0.2704    0.0000 C   0  0  0  0  0  0  0  0  0  0  0  0
   15.5945    0.2296    0.0000 C   0  0  0  0  0  0  0  0  0  0  0  0
    6.9343    1.2296    0.0000 C   0  0  0  0  0  0  0  0  0  0  0  0
    6.0682    1.7296    0.0000 C   0  0  0  0  0  0  0  0  0  0  0  0
   14.7285    1.7296    0.0000 C   0  0  0  0  0  0  0  0  0  0  0  0
    9.5323   -1.2704    0.0000 C   0  0  0  0  0  0  0  0  0  0  0  0
   13.8625    1.2296    0.0000 C   0  0  0  0  0  0  0  0  0  0  0  0
    7.8003   -1.2704    0.0000 C   0  0  0  0  0  0  0  0  0  0  0  0
    8.6663    0.2296    0.0000 C   0  0  0  0  0  0  0  0  0  0  0  0
    4.3083    1.7643    0.0000 C   0  0  0  0  0  0  0  0  0  0  0  0
   11.2644   -1.2704    0.0000 C   0  0  0  0  0  0  0  0  0  0  0  0
    8.6663   -1.7704    0.0000 C   0  0  0  0  0  0  0  0  0  0  0  0
   16.4885    1.7643    0.0000 C   0  0  0  0  0  0  0  0  0  0  0  0
   12.1304    0.2296    0.0000 C   0  0  0  0  0  0  0  0  0  0  0  0
   12.9965   -1.2704    0.0000 C   0  0  0  0  0  0  0  0  0  0  0  0
    4.3083   -0.3051    0.0000 C   0  0  0  0  0  0  0  0  0  0  0  0
    9.5323   -0.2704    0.0000 C   0  0  0  0  0  0  0  0  0  0  0  0
   16.4885   -0.3051    0.0000 C   0  0  0  0  0  0  0  0  0  0  0  0
   11.2644   -0.2704    0.0000 C   0  0  0  0  0  0  0  0  0  0  0  0
   12.1304   -1.7704    0.0000 C   0  0  0  0  0  0  0  0  0  0  0  0
    3.4022    0.2088    0.0000 C   0  0  0  0  0  0  0  0  0  0  0  0
    3.4022    1.2504    0.0000 C   0  0  0  0  0  0  0  0  0  0  0  0
   17.3945    0.2088    0.0000 C   0  0  0  0  0  0  0  0  0  0  0  0
   17.3945    1.2504    0.0000 C   0  0  0  0  0  0  0  0  0  0  0  0
    7.4712    1.5396    0.0000 H   0  0  0  0  0  0  0  0  0  0  0  0
   13.3255    1.5396    0.0000 H   0  0  0  0  0  0  0  0  0  0  0  0
    7.2634   -1.5804    0.0000 H   0  0  0  0  0  0  0  0  0  0  0  0
    8.6663    0.8496    0.0000 H   0  0  0  0  0  0  0  0  0  0  0  0
   12.1304    0.8496    0.0000 H   0  0  0  0  0  0  0  0  0  0  0  0
   13.5334   -1.5804    0.0000 H   0  0  0  0  0  0  0  0  0  0  0  0
    4.3154   -0.9250    0.0000 H   0  0  0  0  0  0  0  0  0  0  0  0
   10.0693    0.0396    0.0000 H   0  0  0  0  0  0  0  0  0  0  0  0
   16.4813   -0.9250    0.0000 H   0  0  0  0  0  0  0  0  0  0  0  0
   10.7275    0.0396    0.0000 H   0  0  0  0  0  0  0  0  0  0  0  0
   12.1304   -2.3904    0.0000 H   0  0  0  0  0  0  0  0  0  0  0  0
    2.8665    1.5625    0.0000 H   0  0  0  0  0  0  0  0  0  0  0  0
   17.9303    1.5625    0.0000 H   0  0  0  0  0  0  0  0  0  0  0  0
    3.7865    3.0804    0.0000 H   0  0  0  0  0  0  0  0  0  0  0  0
   17.0102    3.0804    0.0000 H   0  0  0  0  0  0  0  0  0  0  0  0
    8.1294   -3.0804    0.0000 H   0  0  0  0  0  0  0  0  0  0  0  0
    2.0000    0.0134    0.0000 H   0  0  0  0  0  0  0  0  0  0  0  0
   18.7968    0.0134    0.0000 H   0  0  0  0  0  0  0  0  0  0  0  0
  1 11  1  0  0  0  0
  1 14  1  0  0  0  0
  2 16  1  0  0  0  0
  2 18  1  0  0  0  0
  3 22  1  0  0  0  0
  3 27  1  0  0  0  0
  4 26  1  0  0  0  0
  4 54  1  0  0  0  0
  5 28  1  0  0  0  0
  5 56  1  0  0  0  0
  6 29  1  0  0  0  0
  6 55  1  0  0  0  0
  7 20  2  0  0  0  0
  8 21  2  0  0  0  0
  9 37  1  0  0  0  0
  9 57  1  0  0  0  0
 10 39  1  0  0  0  0
 10 58  1  0  0  0  0
 11 12  1  0  0  0  0
 11 19  2  0  0  0  0
 12 24  2  0  0  0  0
 12 25  1  0  0  0  0
 13 14  1  0  0  0  0
 13 20  1  0  0  0  0
 13 26  2  0  0  0  0
 14 32  2  0  0  0  0
 15 18  1  0  0  0  0
 15 21  1  0  0  0  0
 15 29  2  0  0  0  0
 16 17  1  0  0  0  0
 16 23  2  0  0  0  0
 17 30  2  0  0  0  0
 17 31  1  0  0  0  0
 18 34  2  0  0  0  0
 19 20  1  0  0  0  0
 19 41  1  0  0  0  0
 21 23  1  0  0  0  0
 22 28  2  0  0  0  0
 22 33  1  0  0  0  0
 23 42  1  0  0  0  0
 24 28  1  0  0  0  0
 24 43  1  0  0  0  0
 25 33  2  0  0  0  0
 25 44  1  0  0  0  0
 26 38  1  0  0  0  0
 27 35  2  0  0  0  0
 27 36  1  0  0  0  0
 29 40  1  0  0  0  0
 30 35  1  0  0  0  0
 30 45  1  0  0  0  0
 31 36  2  0  0  0  0
 31 46  1  0  0  0  0
 32 37  1  0  0  0  0
 32 47  1  0  0  0  0
 33 48  1  0  0  0  0
 34 39  1  0  0  0  0
 34 49  1  0  0  0  0
 35 50  1  0  0  0  0
 36 51  1  0  0  0  0
 37 38  2  0  0  0  0
 38 52  1  0  0  0  0
 39 40  2  0  0  0  0
 40 53  1  0  0  0  0
M  END
>  <PUBCHEM_COMPOUND_CID>
21574503

>  <PUBCHEM_COMPOUND_CANONICALIZED>
1

>  <PUBCHEM_CACTVS_COMPLEXITY>
1030

>  <PUBCHEM_CACTVS_HBOND_ACCEPTOR>
10

>  <PUBCHEM_CACTVS_HBOND_DONOR>
5

>  <PUBCHEM_CACTVS_ROTATABLE_BOND>
4

>  <PUBCHEM_CACTVS_SUBSKEYS>
AAADceB4PAAAAAAAAAAAAAAAAAAAAAAAAAAwYMGCAAAAAACBVAAAGgAACAAADASAmAAwBoAABgCIAqBSAAACCAAkIAAIiAEGiMgNJzaGNRqCeWOl4BULuQfI7LzOIAABCAAIQABAAAIQABCAAAAAAAAAAA==

>  <PUBCHEM_IUPAC_OPENEYE_NAME>
2-[4-[4-(5,7-dihydroxy-4-oxo-chromen-2-yl)-2-hydroxy-phenoxy]phenyl]-5,7-dihydroxy-chromen-4-one

>  <PUBCHEM_IUPAC_CAS_NAME>
2-[4-[4-(5,7-dihydroxy-4-oxo-1-benzopyran-2-yl)-2-hydroxyphenoxy]phenyl]-5,7-dihydroxy-1-benzopyran-4-one

>  <PUBCHEM_IUPAC_NAME>
2-[4-[4-(5,7-dihydroxy-4-oxochromen-2-yl)-2-hydroxyphenoxy]phenyl]-5,7-dihydroxychromen-4-one

>  <PUBCHEM_IUPAC_SYSTEMATIC_NAME>
2-[4-[4-[5,7-bis(oxidanyl)-4-oxidanylidene-chromen-2-yl]-2-oxidanyl-phenoxy]phenyl]-5,7-bis(oxidanyl)chromen-4-one

>  <PUBCHEM_IUPAC_TRADITIONAL_NAME>
2-[4-[4-(5,7-dihydroxy-4-keto-chromen-2-yl)-2-hydroxy-phenoxy]phenyl]-5,7-dihydroxy-chromone

>  <PUBCHEM_IUPAC_INCHI>
InChI=1S/C30H18O10/c31-16-8-20(34)29-22(36)12-25(39-27(29)10-16)14-1-4-18(5-2-14)38-24-6-3-15(7-19(24)33)26-13-23(37)30-21(35)9-17(32)11-28(30)40-26/h1-13,31-35H

>  <PUBCHEM_IUPAC_INCHIKEY>
MNTSOBLYWJLVEK-UHFFFAOYSA-N

>  <PUBCHEM_XLOGP3_AA>
5.3

>  <PUBCHEM_EXACT_MASS>
538.09

>  <PUBCHEM_MOLECULAR_FORMULA>
C30H18O10

>  <PUBCHEM_MOLECULAR_WEIGHT>
538.464

>  <PUBCHEM_OPENEYE_CAN_SMILES>
C1=CC(=CC=C1C2=CC(=O)C3=C(C=C(C=C3O2)O)O)OC4=C(C=C(C=C4)C5=CC(=O)C6=C(C=C(C=C6O5)O)O)O

>  <PUBCHEM_OPENEYE_ISO_SMILES>
C1=CC(=CC=C1C2=CC(=O)C3=C(C=C(C=C3O2)O)O)OC4=C(C=C(C=C4)C5=CC(=O)C6=C(C=C(C=C6O5)O)O)O

>  <PUBCHEM_CACTVS_TPSA>
163

>  <PUBCHEM_MONOISOTOPIC_WEIGHT>
538.09

>  <PUBCHEM_TOTAL_CHARGE>
0

>  <PUBCHEM_HEAVY_ATOM_COUNT>
40

>  <PUBCHEM_ATOM_DEF_STEREO_COUNT>
0

>  <PUBCHEM_ATOM_UDEF_STEREO_COUNT>
0

>  <PUBCHEM_BOND_DEF_STEREO_COUNT>
0

>  <PUBCHEM_BOND_UDEF_STEREO_COUNT>
0

>  <PUBCHEM_ISOTOPIC_ATOM_COUNT>
0

>  <PUBCHEM_COMPONENT_COUNT>
1

>  <PUBCHEM_CACTVS_TAUTO_COUNT>
432

>  <PUBCHEM_COORDINATE_TYPE>
1
5
255

>  <PUBCHEM_BONDANNOTATIONS>
1  11  8
1  14  8
11  19  8
12  24  8
12  25  8
13  14  8
13  20  8
13  26  8
14  32  8
15  18  8
15  21  8
15  29  8
16  23  8
17  30  8
17  31  8
18  34  8
19  20  8
2  16  8
2  18  8
21  23  8
22  28  8
22  33  8
24  28  8
25  33  8
26  38  8
27  35  8
27  36  8
29  40  8
30  35  8
31  36  8
32  37  8
34  39  8
37  38  8
39  40  8

$$$$
