21579161
 OpenBabel06101807152D

 57 60  0  0  1  0  0  0  0  0999 V2000
    4.8936   -0.5894    0.0000 O   0  0  0  0  0  0  0  0  0  0  0  0
    2.3100    0.2154    0.0000 O   0  0  0  0  0  0  0  0  0  0  0  0
    6.6898    2.2569    0.0000 O   0  0  0  0  0  0  0  0  0  0  0  0
    8.4379   -0.7846    0.0000 O   0  0  0  0  0  0  0  0  0  0  0  0
    7.5719   -2.2846    0.0000 O   0  0  0  0  0  0  0  0  0  0  0  0
    7.5840    3.7846    0.0000 O   0  0  0  0  0  0  0  0  0  0  0  0
    4.3100    0.2154    0.0000 C   0  0  3  0  0  0  0  0  0  0  0  0
    4.8936    1.0201    0.0000 C   0  0  0  0  0  0  0  0  0  0  0  0
    3.3100    0.2154    0.0000 C   0  0  0  0  0  0  0  0  0  0  0  0
    5.8398    0.7154    0.0000 C   0  0  0  0  0  0  0  0  0  0  0  0
    5.8398   -0.2846    0.0000 C   0  0  0  0  0  0  0  0  0  0  0  0
    6.7058   -0.7846    0.0000 C   0  0  0  0  0  0  0  0  0  0  0  0
    6.7058    1.2154    0.0000 C   0  0  0  0  0  0  0  0  0  0  0  0
    3.3100   -0.7846    0.0000 C   0  0  0  0  0  0  0  0  0  0  0  0
    3.3100    1.2154    0.0000 C   0  0  0  0  0  0  0  0  0  0  0  0
    7.5719    0.7154    0.0000 C   0  0  0  0  0  0  0  0  0  0  0  0
    7.5719   -0.2846    0.0000 C   0  0  0  0  0  0  0  0  0  0  0  0
    6.7058   -1.7846    0.0000 C   0  0  0  0  0  0  0  0  0  0  0  0
    5.8398   -2.2846    0.0000 C   0  0  3  0  0  0  0  0  0  0  0  0
    8.4819    1.2222    0.0000 C   0  0  0  0  0  0  0  0  0  0  0  0
    5.8398   -3.2846    0.0000 C   0  0  0  0  0  0  0  0  0  0  0  0
    8.4899    2.2638    0.0000 C   0  0  0  0  0  0  0  0  0  0  0  0
    4.9738   -1.7846    0.0000 C   0  0  0  0  0  0  0  0  0  0  0  0
    7.5878    2.7846    0.0000 C   0  0  0  0  0  0  0  0  0  0  0  0
    9.3421    0.7122    0.0000 C   0  0  0  0  0  0  0  0  0  0  0  0
    4.9738   -3.7846    0.0000 C   0  0  0  0  0  0  0  0  0  0  0  0
    9.3305   -0.2877    0.0000 C   0  0  0  0  0  0  0  0  0  0  0  0
   10.2138    1.2022    0.0000 C   0  0  0  0  0  0  0  0  0  0  0  0
   10.1907   -0.7977    0.0000 C   0  0  0  0  0  0  0  0  0  0  0  0
   11.0740    0.6922    0.0000 C   0  0  0  0  0  0  0  0  0  0  0  0
   11.0624   -0.3077    0.0000 C   0  0  0  0  0  0  0  0  0  0  0  0
    4.0283   -0.3369    0.0000 H   0  0  0  0  0  0  0  0  0  0  0  0
    5.1446    1.5870    0.0000 H   0  0  0  0  0  0  0  0  0  0  0  0
    4.3562    1.3293    0.0000 H   0  0  0  0  0  0  0  0  0  0  0  0
    2.6900   -0.7846    0.0000 H   0  0  0  0  0  0  0  0  0  0  0  0
    3.3100   -1.4046    0.0000 H   0  0  0  0  0  0  0  0  0  0  0  0
    3.9300   -0.7846    0.0000 H   0  0  0  0  0  0  0  0  0  0  0  0
    3.9300    1.2154    0.0000 H   0  0  0  0  0  0  0  0  0  0  0  0
    3.3100    1.8354    0.0000 H   0  0  0  0  0  0  0  0  0  0  0  0
    2.6900    1.2154    0.0000 H   0  0  0  0  0  0  0  0  0  0  0  0
    5.8398   -1.6646    0.0000 H   0  0  0  0  0  0  0  0  0  0  0  0
    2.0000    0.7523    0.0000 H   0  0  0  0  0  0  0  0  0  0  0  0
    6.0519   -3.8672    0.0000 H   0  0  0  0  0  0  0  0  0  0  0  0
    6.4504   -3.1770    0.0000 H   0  0  0  0  0  0  0  0  0  0  0  0
    9.0280    2.5718    0.0000 H   0  0  0  0  0  0  0  0  0  0  0  0
    5.2838   -1.2477    0.0000 H   0  0  0  0  0  0  0  0  0  0  0  0
    4.4369   -1.4746    0.0000 H   0  0  0  0  0  0  0  0  0  0  0  0
    4.6638   -2.3216    0.0000 H   0  0  0  0  0  0  0  0  0  0  0  0
    8.4379   -1.4046    0.0000 H   0  0  0  0  0  0  0  0  0  0  0  0
    4.6638   -3.2477    0.0000 H   0  0  0  0  0  0  0  0  0  0  0  0
    4.4369   -4.0946    0.0000 H   0  0  0  0  0  0  0  0  0  0  0  0
    5.2838   -4.3216    0.0000 H   0  0  0  0  0  0  0  0  0  0  0  0
    8.7900   -0.5915    0.0000 H   0  0  0  0  0  0  0  0  0  0  0  0
   10.2210    1.8222    0.0000 H   0  0  0  0  0  0  0  0  0  0  0  0
   10.1835   -1.4176    0.0000 H   0  0  0  0  0  0  0  0  0  0  0  0
   11.6145    0.9960    0.0000 H   0  0  0  0  0  0  0  0  0  0  0  0
   11.5958   -0.6239    0.0000 H   0  0  0  0  0  0  0  0  0  0  0  0
  1  7  1  0  0  0  0
  1 11  1  0  0  0  0
  2  9  1  0  0  0  0
  2 42  1  0  0  0  0
  3 13  1  0  0  0  0
  3 24  1  0  0  0  0
  4 17  1  0  0  0  0
  4 49  1  0  0  0  0
  5 18  2  0  0  0  0
  6 24  2  0  0  0  0
  7  8  1  0  0  0  0
  7  9  1  0  0  0  0
  7 32  1  0  0  0  0
  8 10  1  0  0  0  0
  8 33  1  0  0  0  0
  8 34  1  0  0  0  0
  9 14  1  0  0  0  0
  9 15  1  0  0  0  0
 10 11  1  0  0  0  0
 10 13  2  0  0  0  0
 11 12  2  0  0  0  0
 12 17  1  0  0  0  0
 12 18  1  0  0  0  0
 13 16  1  0  0  0  0
 14 35  1  0  0  0  0
 14 36  1  0  0  0  0
 14 37  1  0  0  0  0
 15 38  1  0  0  0  0
 15 39  1  0  0  0  0
 15 40  1  0  0  0  0
 16 17  2  0  0  0  0
 16 20  1  0  0  0  0
 18 19  1  0  0  0  0
 19 21  1  0  0  0  0
 19 23  1  0  0  0  0
 19 41  1  0  0  0  0
 20 22  2  0  0  0  0
 20 25  1  0  0  0  0
 21 26  1  0  0  0  0
 21 43  1  0  0  0  0
 21 44  1  0  0  0  0
 22 24  1  0  0  0  0
 22 45  1  0  0  0  0
 23 46  1  0  0  0  0
 23 47  1  0  0  0  0
 23 48  1  0  0  0  0
 25 27  2  0  0  0  0
 25 28  1  0  0  0  0
 26 50  1  0  0  0  0
 26 51  1  0  0  0  0
 26 52  1  0  0  0  0
 27 29  1  0  0  0  0
 27 53  1  0  0  0  0
 28 30  2  0  0  0  0
 28 54  1  0  0  0  0
 29 31  2  0  0  0  0
 29 55  1  0  0  0  0
 30 31  1  0  0  0  0
 30 56  1  0  0  0  0
 31 57  1  0  0  0  0
M  END
>  <PUBCHEM_COMPOUND_CID>
21579161

>  <PUBCHEM_COMPOUND_CANONICALIZED>
1

>  <PUBCHEM_CACTVS_COMPLEXITY>
736

>  <PUBCHEM_CACTVS_HBOND_ACCEPTOR>
6

>  <PUBCHEM_CACTVS_HBOND_DONOR>
2

>  <PUBCHEM_CACTVS_ROTATABLE_BOND>
5

>  <PUBCHEM_CACTVS_SUBSKEYS>
AAADceB4OAAAAAAAAAAAAAAAAAAAASAAAAAwYIAAAAAAAEiBQAAAGgAACAAADVSgmAIyDoAABgCIAqDSCAACCAAkIAAIiAEECMgNJzaGNRqCe2Cl4BULuQfI7PzOIAACCAAIAABAAAQQABAAAAAAAAAAAA==

>  <PUBCHEM_IUPAC_OPENEYE_NAME>
5-hydroxy-8-(1-hydroxy-1-methyl-ethyl)-6-(2-methylbutanoyl)-4-phenyl-8,9-dihydrofuro[2,3-h]chromen-2-one

>  <PUBCHEM_IUPAC_CAS_NAME>
5-hydroxy-8-(2-hydroxypropan-2-yl)-6-(2-methyl-1-oxobutyl)-4-phenyl-8,9-dihydrofuro[2,3-h][1]benzopyran-2-one

>  <PUBCHEM_IUPAC_NAME>
5-hydroxy-8-(2-hydroxypropan-2-yl)-6-(2-methylbutanoyl)-4-phenyl-8,9-dihydrofuro[2,3-h]chromen-2-one

>  <PUBCHEM_IUPAC_SYSTEMATIC_NAME>
6-(2-methylbutanoyl)-5-oxidanyl-8-(2-oxidanylpropan-2-yl)-4-phenyl-8,9-dihydrofuro[2,3-h]chromen-2-one

>  <PUBCHEM_IUPAC_TRADITIONAL_NAME>
5-hydroxy-8-(1-hydroxy-1-methyl-ethyl)-6-(2-methylbutanoyl)-4-phenyl-8,9-dihydrofuro[2,3-h]chromen-2-one

>  <PUBCHEM_IUPAC_INCHI>
InChI=1S/C25H26O6/c1-5-13(2)21(27)20-22(28)19-15(14-9-7-6-8-10-14)12-18(26)31-23(19)16-11-17(25(3,4)29)30-24(16)20/h6-10,12-13,17,28-29H,5,11H2,1-4H3

>  <PUBCHEM_IUPAC_INCHIKEY>
AVIZABGQXBMRCJ-UHFFFAOYSA-N

>  <PUBCHEM_XLOGP3_AA>
4.4

>  <PUBCHEM_EXACT_MASS>
422.173

>  <PUBCHEM_MOLECULAR_FORMULA>
C25H26O6

>  <PUBCHEM_MOLECULAR_WEIGHT>
422.477

>  <PUBCHEM_OPENEYE_CAN_SMILES>
CCC(C)C(=O)C1=C(C2=C(C3=C1OC(C3)C(C)(C)O)OC(=O)C=C2C4=CC=CC=C4)O

>  <PUBCHEM_OPENEYE_ISO_SMILES>
CCC(C)C(=O)C1=C(C2=C(C3=C1OC(C3)C(C)(C)O)OC(=O)C=C2C4=CC=CC=C4)O

>  <PUBCHEM_CACTVS_TPSA>
93.1

>  <PUBCHEM_MONOISOTOPIC_WEIGHT>
422.173

>  <PUBCHEM_TOTAL_CHARGE>
0

>  <PUBCHEM_HEAVY_ATOM_COUNT>
31

>  <PUBCHEM_ATOM_DEF_STEREO_COUNT>
0

>  <PUBCHEM_ATOM_UDEF_STEREO_COUNT>
2

>  <PUBCHEM_BOND_DEF_STEREO_COUNT>
0

>  <PUBCHEM_BOND_UDEF_STEREO_COUNT>
0

>  <PUBCHEM_ISOTOPIC_ATOM_COUNT>
0

>  <PUBCHEM_COMPONENT_COUNT>
1

>  <PUBCHEM_CACTVS_TAUTO_COUNT>
13

>  <PUBCHEM_COORDINATE_TYPE>
1
5
255

>  <PUBCHEM_BONDANNOTATIONS>
10  11  8
10  13  8
11  12  8
12  17  8
13  16  8
16  17  8
16  20  8
19  23  3
20  22  8
22  24  8
25  27  8
25  28  8
27  29  8
28  30  8
29  31  8
3  13  8
3  24  8
30  31  8
7  9  3

$$$$
