21637682
 OpenBabel06101807152D

 72 74  0  0  0  0  0  0  0  0999 V2000
   11.5542   -1.8797    0.0000 O   0  0  0  0  0  0  0  0  0  0  0  0
    9.7942   -2.8450    0.0000 O   0  0  0  0  0  0  0  0  0  0  0  0
    6.3301   -1.8450    0.0000 O   0  0  0  0  0  0  0  0  0  0  0  0
    2.8660   -1.8450    0.0000 O   0  0  0  0  0  0  0  0  0  0  0  0
    8.9282   -0.3450    0.0000 C   0  0  0  0  0  0  0  0  0  0  0  0
    8.0622    0.1550    0.0000 C   0  0  0  0  0  0  0  0  0  0  0  0
    9.7942    0.1550    0.0000 C   0  0  0  0  0  0  0  0  0  0  0  0
    7.1962   -0.3450    0.0000 C   0  0  0  0  0  0  0  0  0  0  0  0
   12.4603   -1.3658    0.0000 C   0  0  0  0  0  0  0  0  0  0  0  0
   10.6603   -0.3450    0.0000 C   0  0  0  0  0  0  0  0  0  0  0  0
    6.3301    0.1550    0.0000 C   0  0  0  0  0  0  0  0  0  0  0  0
    2.8660    0.1550    0.0000 C   0  0  0  0  0  0  0  0  0  0  0  0
   10.6603   -1.3450    0.0000 C   0  0  0  0  0  0  0  0  0  0  0  0
    5.4641   -0.3450    0.0000 C   0  0  0  0  0  0  0  0  0  0  0  0
    3.7320   -0.3450    0.0000 C   0  0  0  0  0  0  0  0  0  0  0  0
    9.7942    1.1550    0.0000 C   0  0  0  0  0  0  0  0  0  0  0  0
    8.9282   -1.3450    0.0000 C   0  0  0  0  0  0  0  0  0  0  0  0
   12.4603   -0.3242    0.0000 C   0  0  0  0  0  0  0  0  0  0  0  0
   11.5542    0.1897    0.0000 C   0  0  0  0  0  0  0  0  0  0  0  0
    9.7942   -1.8450    0.0000 C   0  0  0  0  0  0  0  0  0  0  0  0
    4.5981    0.1550    0.0000 C   0  0  0  0  0  0  0  0  0  0  0  0
   13.4603   -1.3697    0.0000 C   0  0  0  0  0  0  0  0  0  0  0  0
   12.9569   -2.2338    0.0000 C   0  0  0  0  0  0  0  0  0  0  0  0
    3.3660    1.0210    0.0000 C   0  0  0  0  0  0  0  0  0  0  0  0
    2.3660   -0.7110    0.0000 C   0  0  0  0  0  0  0  0  0  0  0  0
    5.4641   -1.3450    0.0000 C   0  0  0  0  0  0  0  0  0  0  0  0
    3.7320   -1.3450    0.0000 C   0  0  0  0  0  0  0  0  0  0  0  0
    2.0000    0.6550    0.0000 C   0  0  0  0  0  0  0  0  0  0  0  0
    4.5981   -1.8450    0.0000 C   0  0  0  0  0  0  0  0  0  0  0  0
    8.9282    1.6550    0.0000 C   0  0  0  0  0  0  0  0  0  0  0  0
    8.9282    2.6550    0.0000 C   0  0  0  0  0  0  0  0  0  0  0  0
    2.0000    1.6550    0.0000 C   0  0  0  0  0  0  0  0  0  0  0  0
    8.0622    3.1550    0.0000 C   0  0  0  0  0  0  0  0  0  0  0  0
    9.7942    3.1550    0.0000 C   0  0  0  0  0  0  0  0  0  0  0  0
    8.4607    0.6299    0.0000 H   0  0  0  0  0  0  0  0  0  0  0  0
    7.6636    0.6299    0.0000 H   0  0  0  0  0  0  0  0  0  0  0  0
    6.7976   -0.8199    0.0000 H   0  0  0  0  0  0  0  0  0  0  0  0
    7.5947   -0.8199    0.0000 H   0  0  0  0  0  0  0  0  0  0  0  0
    6.7287    0.6299    0.0000 H   0  0  0  0  0  0  0  0  0  0  0  0
    5.9316    0.6299    0.0000 H   0  0  0  0  0  0  0  0  0  0  0  0
   10.4048    1.0473    0.0000 H   0  0  0  0  0  0  0  0  0  0  0  0
   10.0063    1.7376    0.0000 H   0  0  0  0  0  0  0  0  0  0  0  0
    8.3913   -1.6550    0.0000 H   0  0  0  0  0  0  0  0  0  0  0  0
   12.9960   -0.0121    0.0000 H   0  0  0  0  0  0  0  0  0  0  0  0
   11.5470    0.8096    0.0000 H   0  0  0  0  0  0  0  0  0  0  0  0
    4.5981    0.7750    0.0000 H   0  0  0  0  0  0  0  0  0  0  0  0
   12.4188   -2.5417    0.0000 H   0  0  0  0  0  0  0  0  0  0  0  0
   13.2648   -2.7719    0.0000 H   0  0  0  0  0  0  0  0  0  0  0  0
   13.4950   -1.9258    0.0000 H   0  0  0  0  0  0  0  0  0  0  0  0
   13.4579   -1.9897    0.0000 H   0  0  0  0  0  0  0  0  0  0  0  0
   14.0803   -1.3721    0.0000 H   0  0  0  0  0  0  0  0  0  0  0  0
   13.4626   -0.7497    0.0000 H   0  0  0  0  0  0  0  0  0  0  0  0
    1.8291   -0.4010    0.0000 H   0  0  0  0  0  0  0  0  0  0  0  0
    2.0560   -1.2480    0.0000 H   0  0  0  0  0  0  0  0  0  0  0  0
    2.9030   -1.0210    0.0000 H   0  0  0  0  0  0  0  0  0  0  0  0
    3.9030    0.7110    0.0000 H   0  0  0  0  0  0  0  0  0  0  0  0
    3.6760    1.5580    0.0000 H   0  0  0  0  0  0  0  0  0  0  0  0
    2.8291    1.3310    0.0000 H   0  0  0  0  0  0  0  0  0  0  0  0
    1.4631    0.3450    0.0000 H   0  0  0  0  0  0  0  0  0  0  0  0
    4.5981   -2.4650    0.0000 H   0  0  0  0  0  0  0  0  0  0  0  0
    8.3913    1.3450    0.0000 H   0  0  0  0  0  0  0  0  0  0  0  0
    9.2573   -3.1550    0.0000 H   0  0  0  0  0  0  0  0  0  0  0  0
    2.5369    1.9650    0.0000 H   0  0  0  0  0  0  0  0  0  0  0  0
    1.4631    1.9650    0.0000 H   0  0  0  0  0  0  0  0  0  0  0  0
    6.3301   -2.4650    0.0000 H   0  0  0  0  0  0  0  0  0  0  0  0
    2.8660   -2.4650    0.0000 H   0  0  0  0  0  0  0  0  0  0  0  0
   10.1042    2.6181    0.0000 H   0  0  0  0  0  0  0  0  0  0  0  0
    8.3722    3.6919    0.0000 H   0  0  0  0  0  0  0  0  0  0  0  0
    7.5252    3.4650    0.0000 H   0  0  0  0  0  0  0  0  0  0  0  0
    7.7522    2.6181    0.0000 H   0  0  0  0  0  0  0  0  0  0  0  0
   10.3312    3.4650    0.0000 H   0  0  0  0  0  0  0  0  0  0  0  0
    9.4842    3.6919    0.0000 H   0  0  0  0  0  0  0  0  0  0  0  0
  1  9  1  0  0  0  0
  1 13  1  0  0  0  0
  2 20  1  0  0  0  0
  2 62  1  0  0  0  0
  3 26  1  0  0  0  0
  3 65  1  0  0  0  0
  4 27  1  0  0  0  0
  4 66  1  0  0  0  0
  5  6  1  0  0  0  0
  5  7  1  0  0  0  0
  5 17  2  0  0  0  0
  6  8  1  0  0  0  0
  6 35  1  0  0  0  0
  6 36  1  0  0  0  0
  7 10  2  0  0  0  0
  7 16  1  0  0  0  0
  8 11  1  0  0  0  0
  8 37  1  0  0  0  0
  8 38  1  0  0  0  0
  9 18  1  0  0  0  0
  9 22  1  0  0  0  0
  9 23  1  0  0  0  0
 10 13  1  0  0  0  0
 10 19  1  0  0  0  0
 11 14  1  0  0  0  0
 11 39  1  0  0  0  0
 11 40  1  0  0  0  0
 12 15  1  0  0  0  0
 12 24  1  0  0  0  0
 12 25  1  0  0  0  0
 12 28  1  0  0  0  0
 13 20  2  0  0  0  0
 14 21  2  0  0  0  0
 14 26  1  0  0  0  0
 15 21  1  0  0  0  0
 15 27  2  0  0  0  0
 16 30  1  0  0  0  0
 16 41  1  0  0  0  0
 16 42  1  0  0  0  0
 17 20  1  0  0  0  0
 17 43  1  0  0  0  0
 18 19  2  0  0  0  0
 18 44  1  0  0  0  0
 19 45  1  0  0  0  0
 21 46  1  0  0  0  0
 22 50  1  0  0  0  0
 22 51  1  0  0  0  0
 22 52  1  0  0  0  0
 23 47  1  0  0  0  0
 23 48  1  0  0  0  0
 23 49  1  0  0  0  0
 24 56  1  0  0  0  0
 24 57  1  0  0  0  0
 24 58  1  0  0  0  0
 25 53  1  0  0  0  0
 25 54  1  0  0  0  0
 25 55  1  0  0  0  0
 26 29  2  0  0  0  0
 27 29  1  0  0  0  0
 28 32  2  0  0  0  0
 28 59  1  0  0  0  0
 29 60  1  0  0  0  0
 30 31  2  0  0  0  0
 30 61  1  0  0  0  0
 31 33  1  0  0  0  0
 31 34  1  0  0  0  0
 32 63  1  0  0  0  0
 32 64  1  0  0  0  0
 33 68  1  0  0  0  0
 33 69  1  0  0  0  0
 33 70  1  0  0  0  0
 34 67  1  0  0  0  0
 34 71  1  0  0  0  0
 34 72  1  0  0  0  0
M  END
>  <PUBCHEM_COMPOUND_CID>
21637682

>  <PUBCHEM_COMPOUND_CANONICALIZED>
1

>  <PUBCHEM_CACTVS_COMPLEXITY>
747

>  <PUBCHEM_CACTVS_HBOND_ACCEPTOR>
4

>  <PUBCHEM_CACTVS_HBOND_DONOR>
3

>  <PUBCHEM_CACTVS_ROTATABLE_BOND>
8

>  <PUBCHEM_CACTVS_SUBSKEYS>
AAADcfB4OAAAAAAAAAAAAAAAAAAAAAAAAAAwYIAAAAAAAACBQAAAGgAACAAADkSAmAAyBoAABgCAAiBCAAACCAAgIAAIiAAGiIgNJyKGMRqCeCOlwBULuAeA4PQPoAADCAAYQABAAAYQADCAAAAAAAAAAA==

>  <PUBCHEM_IUPAC_OPENEYE_NAME>
4-(1,1-dimethylallyl)-6-[3-[8-hydroxy-2,2-dimethyl-5-(3-methylbut-2-enyl)chromen-6-yl]propyl]benzene-1,3-diol

>  <PUBCHEM_IUPAC_CAS_NAME>
4-[3-[8-hydroxy-2,2-dimethyl-5-(3-methylbut-2-enyl)-1-benzopyran-6-yl]propyl]-6-(2-methylbut-3-en-2-yl)benzene-1,3-diol

>  <PUBCHEM_IUPAC_NAME>
4-[3-[8-hydroxy-2,2-dimethyl-5-(3-methylbut-2-enyl)chromen-6-yl]propyl]-6-(2-methylbut-3-en-2-yl)benzene-1,3-diol

>  <PUBCHEM_IUPAC_SYSTEMATIC_NAME>
4-[3-[2,2-dimethyl-5-(3-methylbut-2-enyl)-8-oxidanyl-chromen-6-yl]propyl]-6-(2-methylbut-3-en-2-yl)benzene-1,3-diol

>  <PUBCHEM_IUPAC_TRADITIONAL_NAME>
4-(1,1-dimethylallyl)-6-[3-[8-hydroxy-2,2-dimethyl-5-(3-methylbut-2-enyl)chromen-6-yl]propyl]resorcinol

>  <PUBCHEM_IUPAC_INCHI>
InChI=1S/C30H38O4/c1-8-29(4,5)24-16-21(25(31)18-26(24)32)11-9-10-20-17-27(33)28-23(14-15-30(6,7)34-28)22(20)13-12-19(2)3/h8,12,14-18,31-33H,1,9-11,13H2,2-7H3

>  <PUBCHEM_IUPAC_INCHIKEY>
WDJNJKJPBQVUPY-UHFFFAOYSA-N

>  <PUBCHEM_XLOGP3_AA>
8.4

>  <PUBCHEM_EXACT_MASS>
462.277

>  <PUBCHEM_MOLECULAR_FORMULA>
C30H38O4

>  <PUBCHEM_MOLECULAR_WEIGHT>
462.63

>  <PUBCHEM_OPENEYE_CAN_SMILES>
CC(=CCC1=C2C=CC(OC2=C(C=C1CCCC3=CC(=C(C=C3O)O)C(C)(C)C=C)O)(C)C)C

>  <PUBCHEM_OPENEYE_ISO_SMILES>
CC(=CCC1=C2C=CC(OC2=C(C=C1CCCC3=CC(=C(C=C3O)O)C(C)(C)C=C)O)(C)C)C

>  <PUBCHEM_CACTVS_TPSA>
69.9

>  <PUBCHEM_MONOISOTOPIC_WEIGHT>
462.277

>  <PUBCHEM_TOTAL_CHARGE>
0

>  <PUBCHEM_HEAVY_ATOM_COUNT>
34

>  <PUBCHEM_ATOM_DEF_STEREO_COUNT>
0

>  <PUBCHEM_ATOM_UDEF_STEREO_COUNT>
0

>  <PUBCHEM_BOND_DEF_STEREO_COUNT>
0

>  <PUBCHEM_BOND_UDEF_STEREO_COUNT>
0

>  <PUBCHEM_ISOTOPIC_ATOM_COUNT>
0

>  <PUBCHEM_COMPONENT_COUNT>
1

>  <PUBCHEM_CACTVS_TAUTO_COUNT>
81

>  <PUBCHEM_COORDINATE_TYPE>
1
5
255

>  <PUBCHEM_BONDANNOTATIONS>
10  13  8
13  20  8
14  21  8
14  26  8
15  21  8
15  27  8
17  20  8
26  29  8
27  29  8
5  17  8
5  7  8
7  10  8

$$$$
