21637732
 OpenBabel06101807152D

 64 65  0  0  0  0  0  0  0  0999 V2000
    8.9282    2.4050    0.0000 O   0  0  0  0  0  0  0  0  0  0  0  0
    8.9282    0.4050    0.0000 O   0  0  0  0  0  0  0  0  0  0  0  0
    2.8660   -2.0950    0.0000 O   0  0  0  0  0  0  0  0  0  0  0  0
    4.5981   -5.0950    0.0000 O   0  0  0  0  0  0  0  0  0  0  0  0
    6.3301    0.9050    0.0000 C   0  0  0  0  0  0  0  0  0  0  0  0
    5.4641    0.4050    0.0000 C   0  0  0  0  0  0  0  0  0  0  0  0
    6.3301    1.9050    0.0000 C   0  0  0  0  0  0  0  0  0  0  0  0
    5.4641   -0.5950    0.0000 C   0  0  0  0  0  0  0  0  0  0  0  0
    7.1962    2.4050    0.0000 C   0  0  0  0  0  0  0  0  0  0  0  0
    4.5981   -1.0950    0.0000 C   0  0  0  0  0  0  0  0  0  0  0  0
    5.4641    2.4050    0.0000 C   0  0  0  0  0  0  0  0  0  0  0  0
    7.1962    0.4050    0.0000 C   0  0  0  0  0  0  0  0  0  0  0  0
    7.1962    3.4050    0.0000 C   0  0  0  0  0  0  0  0  0  0  0  0
    8.0622    1.9050    0.0000 C   0  0  0  0  0  0  0  0  0  0  0  0
    8.0622    0.9050    0.0000 C   0  0  0  0  0  0  0  0  0  0  0  0
    4.5981   -2.0950    0.0000 C   0  0  0  0  0  0  0  0  0  0  0  0
    4.5981    1.9050    0.0000 C   0  0  0  0  0  0  0  0  0  0  0  0
    8.0622    3.9050    0.0000 C   0  0  0  0  0  0  0  0  0  0  0  0
    3.7320   -2.5950    0.0000 C   0  0  0  0  0  0  0  0  0  0  0  0
    5.4641   -2.5950    0.0000 C   0  0  0  0  0  0  0  0  0  0  0  0
    3.7320    2.4050    0.0000 C   0  0  0  0  0  0  0  0  0  0  0  0
    8.0622    4.9050    0.0000 C   0  0  0  0  0  0  0  0  0  0  0  0
    3.7320   -3.5950    0.0000 C   0  0  0  0  0  0  0  0  0  0  0  0
    5.4641   -3.5950    0.0000 C   0  0  0  0  0  0  0  0  0  0  0  0
    4.5981   -4.0950    0.0000 C   0  0  0  0  0  0  0  0  0  0  0  0
    2.8660    1.9050    0.0000 C   0  0  0  0  0  0  0  0  0  0  0  0
    3.7320    3.4050    0.0000 C   0  0  0  0  0  0  0  0  0  0  0  0
    8.9282    5.4050    0.0000 C   0  0  0  0  0  0  0  0  0  0  0  0
    7.1962    5.4050    0.0000 C   0  0  0  0  0  0  0  0  0  0  0  0
    2.0000   -2.5950    0.0000 C   0  0  0  0  0  0  0  0  0  0  0  0
    5.2520    0.9876    0.0000 H   0  0  0  0  0  0  0  0  0  0  0  0
    4.8535    0.2973    0.0000 H   0  0  0  0  0  0  0  0  0  0  0  0
    5.6762   -1.1776    0.0000 H   0  0  0  0  0  0  0  0  0  0  0  0
    6.0747   -0.4873    0.0000 H   0  0  0  0  0  0  0  0  0  0  0  0
    4.3860   -0.5124    0.0000 H   0  0  0  0  0  0  0  0  0  0  0  0
    3.9875   -1.2027    0.0000 H   0  0  0  0  0  0  0  0  0  0  0  0
    5.8626    2.8800    0.0000 H   0  0  0  0  0  0  0  0  0  0  0  0
    5.0656    2.8800    0.0000 H   0  0  0  0  0  0  0  0  0  0  0  0
    7.1962   -0.2150    0.0000 H   0  0  0  0  0  0  0  0  0  0  0  0
    6.9841    3.9876    0.0000 H   0  0  0  0  0  0  0  0  0  0  0  0
    6.5856    3.2973    0.0000 H   0  0  0  0  0  0  0  0  0  0  0  0
    4.5981    1.2850    0.0000 H   0  0  0  0  0  0  0  0  0  0  0  0
    8.5991    3.5950    0.0000 H   0  0  0  0  0  0  0  0  0  0  0  0
    6.0010   -2.2850    0.0000 H   0  0  0  0  0  0  0  0  0  0  0  0
    9.4651    2.0950    0.0000 H   0  0  0  0  0  0  0  0  0  0  0  0
    3.1951   -3.9050    0.0000 H   0  0  0  0  0  0  0  0  0  0  0  0
    6.0010   -3.9050    0.0000 H   0  0  0  0  0  0  0  0  0  0  0  0
    8.9282   -0.2150    0.0000 H   0  0  0  0  0  0  0  0  0  0  0  0
    2.5560    2.4419    0.0000 H   0  0  0  0  0  0  0  0  0  0  0  0
    4.3520    3.4050    0.0000 H   0  0  0  0  0  0  0  0  0  0  0  0
    3.7320    4.0250    0.0000 H   0  0  0  0  0  0  0  0  0  0  0  0
    3.1120    3.4050    0.0000 H   0  0  0  0  0  0  0  0  0  0  0  0
    2.3291    1.5950    0.0000 H   0  0  0  0  0  0  0  0  0  0  0  0
    3.1760    1.3681    0.0000 H   0  0  0  0  0  0  0  0  0  0  0  0
    7.5062    5.9419    0.0000 H   0  0  0  0  0  0  0  0  0  0  0  0
    6.6592    5.7150    0.0000 H   0  0  0  0  0  0  0  0  0  0  0  0
    6.8862    4.8681    0.0000 H   0  0  0  0  0  0  0  0  0  0  0  0
    9.2382    4.8681    0.0000 H   0  0  0  0  0  0  0  0  0  0  0  0
    9.4651    5.7150    0.0000 H   0  0  0  0  0  0  0  0  0  0  0  0
    8.6182    5.9419    0.0000 H   0  0  0  0  0  0  0  0  0  0  0  0
    1.6900   -2.0581    0.0000 H   0  0  0  0  0  0  0  0  0  0  0  0
    1.4631   -2.9050    0.0000 H   0  0  0  0  0  0  0  0  0  0  0  0
    2.3100   -3.1319    0.0000 H   0  0  0  0  0  0  0  0  0  0  0  0
    5.1350   -5.4050    0.0000 H   0  0  0  0  0  0  0  0  0  0  0  0
  1 14  1  0  0  0  0
  1 45  1  0  0  0  0
  2 15  1  0  0  0  0
  2 48  1  0  0  0  0
  3 19  1  0  0  0  0
  3 30  1  0  0  0  0
  4 25  1  0  0  0  0
  4 64  1  0  0  0  0
  5  6  1  0  0  0  0
  5  7  1  0  0  0  0
  5 12  2  0  0  0  0
  6  8  1  0  0  0  0
  6 31  1  0  0  0  0
  6 32  1  0  0  0  0
  7  9  2  0  0  0  0
  7 11  1  0  0  0  0
  8 10  1  0  0  0  0
  8 33  1  0  0  0  0
  8 34  1  0  0  0  0
  9 13  1  0  0  0  0
  9 14  1  0  0  0  0
 10 16  1  0  0  0  0
 10 35  1  0  0  0  0
 10 36  1  0  0  0  0
 11 17  1  0  0  0  0
 11 37  1  0  0  0  0
 11 38  1  0  0  0  0
 12 15  1  0  0  0  0
 12 39  1  0  0  0  0
 13 18  1  0  0  0  0
 13 40  1  0  0  0  0
 13 41  1  0  0  0  0
 14 15  2  0  0  0  0
 16 19  2  0  0  0  0
 16 20  1  0  0  0  0
 17 21  2  0  0  0  0
 17 42  1  0  0  0  0
 18 22  2  0  0  0  0
 18 43  1  0  0  0  0
 19 23  1  0  0  0  0
 20 24  2  0  0  0  0
 20 44  1  0  0  0  0
 21 26  1  0  0  0  0
 21 27  1  0  0  0  0
 22 28  1  0  0  0  0
 22 29  1  0  0  0  0
 23 25  2  0  0  0  0
 23 46  1  0  0  0  0
 24 25  1  0  0  0  0
 24 47  1  0  0  0  0
 26 49  1  0  0  0  0
 26 53  1  0  0  0  0
 26 54  1  0  0  0  0
 27 50  1  0  0  0  0
 27 51  1  0  0  0  0
 27 52  1  0  0  0  0
 28 58  1  0  0  0  0
 28 59  1  0  0  0  0
 28 60  1  0  0  0  0
 29 55  1  0  0  0  0
 29 56  1  0  0  0  0
 29 57  1  0  0  0  0
 30 61  1  0  0  0  0
 30 62  1  0  0  0  0
 30 63  1  0  0  0  0
M  END
>  <PUBCHEM_COMPOUND_CID>
21637732

>  <PUBCHEM_COMPOUND_CANONICALIZED>
1

>  <PUBCHEM_CACTVS_COMPLEXITY>
561

>  <PUBCHEM_CACTVS_HBOND_ACCEPTOR>
4

>  <PUBCHEM_CACTVS_HBOND_DONOR>
3

>  <PUBCHEM_CACTVS_ROTATABLE_BOND>
9

>  <PUBCHEM_CACTVS_SUBSKEYS>
AAADcfB4OAAAAAAAAAAAAAAAAAAAAAAAAAAwYAAAAAAAAAABQAAAGgAACAAADASAmAIyBoAABgCAAiBCAAACCAAgIAAIiAAGiIgNJyKGMRqAcCElwBUJuAeA4PwOoAADCAAYQABAAAYQADCAAAAAAAAAAA==

>  <PUBCHEM_IUPAC_OPENEYE_NAME>
5-[3-(4-hydroxy-2-methoxy-phenyl)propyl]-3,4-bis(3-methylbut-2-enyl)benzene-1,2-diol

>  <PUBCHEM_IUPAC_CAS_NAME>
5-[3-(4-hydroxy-2-methoxyphenyl)propyl]-3,4-bis(3-methylbut-2-enyl)benzene-1,2-diol

>  <PUBCHEM_IUPAC_NAME>
5-[3-(4-hydroxy-2-methoxyphenyl)propyl]-3,4-bis(3-methylbut-2-enyl)benzene-1,2-diol

>  <PUBCHEM_IUPAC_SYSTEMATIC_NAME>
5-[3-(2-methoxy-4-oxidanyl-phenyl)propyl]-3,4-bis(3-methylbut-2-enyl)benzene-1,2-diol

>  <PUBCHEM_IUPAC_TRADITIONAL_NAME>
5-[3-(4-hydroxy-2-methoxy-phenyl)propyl]-3,4-bis(3-methylbut-2-enyl)pyrocatechol

>  <PUBCHEM_IUPAC_INCHI>
InChI=1S/C26H34O4/c1-17(2)9-13-22-20(15-24(28)26(29)23(22)14-10-18(3)4)8-6-7-19-11-12-21(27)16-25(19)30-5/h9-12,15-16,27-29H,6-8,13-14H2,1-5H3

>  <PUBCHEM_IUPAC_INCHIKEY>
BUWRWZUUCOLPSX-UHFFFAOYSA-N

>  <PUBCHEM_XLOGP3_AA>
7.4

>  <PUBCHEM_EXACT_MASS>
410.246

>  <PUBCHEM_MOLECULAR_FORMULA>
C26H34O4

>  <PUBCHEM_MOLECULAR_WEIGHT>
410.554

>  <PUBCHEM_OPENEYE_CAN_SMILES>
CC(=CCC1=C(C(=C(C=C1CCCC2=C(C=C(C=C2)O)OC)O)O)CC=C(C)C)C

>  <PUBCHEM_OPENEYE_ISO_SMILES>
CC(=CCC1=C(C(=C(C=C1CCCC2=C(C=C(C=C2)O)OC)O)O)CC=C(C)C)C

>  <PUBCHEM_CACTVS_TPSA>
69.9

>  <PUBCHEM_MONOISOTOPIC_WEIGHT>
410.246

>  <PUBCHEM_TOTAL_CHARGE>
0

>  <PUBCHEM_HEAVY_ATOM_COUNT>
30

>  <PUBCHEM_ATOM_DEF_STEREO_COUNT>
0

>  <PUBCHEM_ATOM_UDEF_STEREO_COUNT>
0

>  <PUBCHEM_BOND_DEF_STEREO_COUNT>
0

>  <PUBCHEM_BOND_UDEF_STEREO_COUNT>
0

>  <PUBCHEM_ISOTOPIC_ATOM_COUNT>
0

>  <PUBCHEM_COMPONENT_COUNT>
1

>  <PUBCHEM_CACTVS_TAUTO_COUNT>
998

>  <PUBCHEM_COORDINATE_TYPE>
1
5
255

>  <PUBCHEM_BONDANNOTATIONS>
12  15  8
14  15  8
16  19  8
16  20  8
19  23  8
20  24  8
23  25  8
24  25  8
5  12  8
5  7  8
7  9  8
9  14  8

$$$$
