21722022
 OpenBabel06101807152D

 59 62  0  0  1  0  0  0  0  0999 V2000
    5.1350   -2.8813    0.0000 O   0  0  0  0  0  0  0  0  0  0  0  0
    6.8671   -2.8813    0.0000 O   0  0  0  0  0  0  0  0  0  0  0  0
    5.1350   -5.8813    0.0000 O   0  0  0  0  0  0  0  0  0  0  0  0
    3.4030   -4.8813    0.0000 O   0  0  0  0  0  0  0  0  0  0  0  0
    6.8671   -4.8813    0.0000 O   0  0  0  0  0  0  0  0  0  0  0  0
    2.5369   -3.3813    0.0000 O   0  0  0  0  0  0  0  0  0  0  0  0
    3.4030   -1.8813    0.0000 O   0  0  0  0  0  0  0  0  0  0  0  0
    7.7331    1.6187    0.0000 O   0  0  0  0  0  0  0  0  0  0  0  0
    5.1350   -1.8813    0.0000 O   0  0  0  0  0  0  0  0  0  0  0  0
    5.1350    1.1187    0.0000 O   0  0  0  0  0  0  0  0  0  0  0  0
    7.7452    5.6880    0.0000 O   0  0  0  0  0  0  0  0  0  0  0  0
    5.9793    4.6502    0.0000 O   0  0  0  0  0  0  0  0  0  0  0  0
    5.1350    3.1187    0.0000 O   0  0  0  0  0  0  0  0  0  0  0  0
    9.5191    4.6638    0.0000 O   0  0  0  0  0  0  0  0  0  0  0  0
    5.1350   -4.8813    0.0000 C   0  0  1  0  0  0  0  0  0  0  0  0
    4.2690   -4.3813    0.0000 C   0  0  1  0  0  0  0  0  0  0  0  0
    6.0010   -4.3813    0.0000 C   0  0  2  0  0  0  0  0  0  0  0  0
    4.2690   -3.3813    0.0000 C   0  0  1  0  0  0  0  0  0  0  0  0
    6.0010   -3.3813    0.0000 C   0  0  1  0  0  0  0  0  0  0  0  0
    3.4030   -2.8813    0.0000 C   0  0  0  0  0  0  0  0  0  0  0  0
    6.8671   -1.8813    0.0000 C   0  0  0  0  0  0  0  0  0  0  0  0
    6.0010   -1.3813    0.0000 C   0  0  0  0  0  0  0  0  0  0  0  0
    7.7331   -1.3813    0.0000 C   0  0  0  0  0  0  0  0  0  0  0  0
    6.8671    0.1187    0.0000 C   0  0  0  0  0  0  0  0  0  0  0  0
    6.0010   -0.3813    0.0000 C   0  0  0  0  0  0  0  0  0  0  0  0
    7.7331   -0.3813    0.0000 C   0  0  0  0  0  0  0  0  0  0  0  0
    6.8671    1.1187    0.0000 C   0  0  0  0  0  0  0  0  0  0  0  0
    6.0010    1.6187    0.0000 C   0  0  0  0  0  0  0  0  0  0  0  0
    6.8671    3.1187    0.0000 C   0  0  0  0  0  0  0  0  0  0  0  0
    7.7331    2.6187    0.0000 C   0  0  0  0  0  0  0  0  0  0  0  0
    6.0010    2.6187    0.0000 C   0  0  0  0  0  0  0  0  0  0  0  0
    6.8510    4.1602    0.0000 C   0  0  0  0  0  0  0  0  0  0  0  0
    8.6431    3.1256    0.0000 C   0  0  0  0  0  0  0  0  0  0  0  0
    7.7490    4.6880    0.0000 C   0  0  0  0  0  0  0  0  0  0  0  0
    8.6511    4.1672    0.0000 C   0  0  0  0  0  0  0  0  0  0  0  0
    4.2690    1.6187    0.0000 C   0  0  0  0  0  0  0  0  0  0  0  0
    8.6093    6.1913    0.0000 C   0  0  0  0  0  0  0  0  0  0  0  0
    5.6720   -5.1913    0.0000 H   0  0  0  0  0  0  0  0  0  0  0  0
    4.2690   -5.0013    0.0000 H   0  0  0  0  0  0  0  0  0  0  0  0
    6.5380   -4.0713    0.0000 H   0  0  0  0  0  0  0  0  0  0  0  0
    4.2690   -2.7613    0.0000 H   0  0  0  0  0  0  0  0  0  0  0  0
    6.0010   -2.7613    0.0000 H   0  0  0  0  0  0  0  0  0  0  0  0
    5.6720   -6.1913    0.0000 H   0  0  0  0  0  0  0  0  0  0  0  0
    3.4030   -5.5013    0.0000 H   0  0  0  0  0  0  0  0  0  0  0  0
    7.4040   -4.5713    0.0000 H   0  0  0  0  0  0  0  0  0  0  0  0
    8.2700   -1.6913    0.0000 H   0  0  0  0  0  0  0  0  0  0  0  0
    2.0000   -3.0713    0.0000 H   0  0  0  0  0  0  0  0  0  0  0  0
    5.4641   -0.0713    0.0000 H   0  0  0  0  0  0  0  0  0  0  0  0
    8.2700   -0.0713    0.0000 H   0  0  0  0  0  0  0  0  0  0  0  0
    4.5981   -1.5713    0.0000 H   0  0  0  0  0  0  0  0  0  0  0  0
    9.1764    2.8094    0.0000 H   0  0  0  0  0  0  0  0  0  0  0  0
    5.9721    5.2701    0.0000 H   0  0  0  0  0  0  0  0  0  0  0  0
    4.5790    2.1556    0.0000 H   0  0  0  0  0  0  0  0  0  0  0  0
    3.7320    1.9287    0.0000 H   0  0  0  0  0  0  0  0  0  0  0  0
    3.9590    1.0818    0.0000 H   0  0  0  0  0  0  0  0  0  0  0  0
   10.0548    4.3517    0.0000 H   0  0  0  0  0  0  0  0  0  0  0  0
    8.9213    5.6556    0.0000 H   0  0  0  0  0  0  0  0  0  0  0  0
    9.1450    6.5034    0.0000 H   0  0  0  0  0  0  0  0  0  0  0  0
    8.2972    6.7270    0.0000 H   0  0  0  0  0  0  0  0  0  0  0  0
  1 18  1  0  0  0  0
  1 19  1  0  0  0  0
  2 21  1  0  0  0  0
  3 43  1  0  0  0  0
  4 44  1  0  0  0  0
  5 45  1  0  0  0  0
  6 20  1  0  0  0  0
  6 47  1  0  0  0  0
  7 20  2  0  0  0  0
  8 27  1  0  0  0  0
  8 30  1  0  0  0  0
  9 22  1  0  0  0  0
  9 50  1  0  0  0  0
 10 28  1  0  0  0  0
 10 36  1  0  0  0  0
 11 34  1  0  0  0  0
 11 37  1  0  0  0  0
 12 32  1  0  0  0  0
 12 52  1  0  0  0  0
 13 31  2  0  0  0  0
 14 35  1  0  0  0  0
 14 56  1  0  0  0  0
 15  3  1  0  0  0  0
 15 16  1  6  0  0  0
 15 38  1  0  0  0  0
 16  4  1  0  0  0  0
 16 18  1  1  0  0  0
 16 39  1  0  0  0  0
 17  5  1  0  0  0  0
 17 15  1  1  0  0  0
 17 40  1  0  0  0  0
 18 20  1  0  0  0  0
 18 41  1  6  0  0  0
 19  2  1  0  0  0  0
 19 17  1  6  0  0  0
 19 42  1  0  0  0  0
 21 22  2  0  0  0  0
 21 23  1  0  0  0  0
 22 25  1  0  0  0  0
 23 26  2  0  0  0  0
 23 46  1  0  0  0  0
 24 25  2  0  0  0  0
 24 26  1  0  0  0  0
 24 27  1  0  0  0  0
 25 48  1  0  0  0  0
 26 49  1  0  0  0  0
 27 28  2  0  0  0  0
 28 31  1  0  0  0  0
 29 30  2  0  0  0  0
 29 31  1  0  0  0  0
 29 32  1  0  0  0  0
 30 33  1  0  0  0  0
 32 34  2  0  0  0  0
 33 35  2  0  0  0  0
 33 51  1  0  0  0  0
 34 35  1  0  0  0  0
 36 53  1  0  0  0  0
 36 54  1  0  0  0  0
 36 55  1  0  0  0  0
 37 57  1  0  0  0  0
 37 58  1  0  0  0  0
 37 59  1  0  0  0  0
M  END
>  <PUBCHEM_COMPOUND_CID>
21722022

>  <PUBCHEM_COMPOUND_CANONICALIZED>
1

>  <PUBCHEM_CACTVS_COMPLEXITY>
893

>  <PUBCHEM_CACTVS_HBOND_ACCEPTOR>
14

>  <PUBCHEM_CACTVS_HBOND_DONOR>
7

>  <PUBCHEM_CACTVS_ROTATABLE_BOND>
6

>  <PUBCHEM_CACTVS_SUBSKEYS>
AAADceB4PAAAAAAAAAAAAAAAAAAAAAAAAAA0YIEAAAAAAACBQAAAGgAACAAADBSwmAMyDoAABgCIAqDSCAICCAAkIAAIiAFGiMgdNzaGNR6ieWOl4BUPuQfK7LzOIQABCAAIQABCAAIQABCAAAAAAAAAAA==

>  <PUBCHEM_IUPAC_OPENEYE_NAME>
(2S,3S,4S,5R,6S)-6-[4-(5,7-dihydroxy-3,6-dimethoxy-4-oxo-chromen-2-yl)-2-hydroxy-phenoxy]-3,4,5-trihydroxy-tetrahydropyran-2-carboxylic acid

>  <PUBCHEM_IUPAC_CAS_NAME>
(2S,3S,4S,5R,6S)-6-[4-(5,7-dihydroxy-3,6-dimethoxy-4-oxo-1-benzopyran-2-yl)-2-hydroxyphenoxy]-3,4,5-trihydroxy-2-oxanecarboxylic acid

>  <PUBCHEM_IUPAC_NAME>
(2S,3S,4S,5R,6S)-6-[4-(5,7-dihydroxy-3,6-dimethoxy-4-oxochromen-2-yl)-2-hydroxyphenoxy]-3,4,5-trihydroxyoxane-2-carboxylic acid

>  <PUBCHEM_IUPAC_SYSTEMATIC_NAME>
(2S,3S,4S,5R,6S)-6-[4-[3,6-dimethoxy-5,7-bis(oxidanyl)-4-oxidanylidene-chromen-2-yl]-2-oxidanyl-phenoxy]-3,4,5-tris(oxidanyl)oxane-2-carboxylic acid

>  <PUBCHEM_IUPAC_TRADITIONAL_NAME>
(2S,3S,4S,5R,6S)-6-[4-(5,7-dihydroxy-4-keto-3,6-dimethoxy-chromen-2-yl)-2-hydroxy-phenoxy]-3,4,5-trihydroxy-tetrahydropyran-2-carboxylic acid

>  <PUBCHEM_IUPAC_INCHI>
InChI=1S/C23H22O14/c1-33-19-9(25)6-11-12(13(19)26)14(27)20(34-2)18(35-11)7-3-4-10(8(24)5-7)36-23-17(30)15(28)16(29)21(37-23)22(31)32/h3-6,15-17,21,23-26,28-30H,1-2H3,(H,31,32)/t15-,16-,17+,21-,23+/m0/s1

>  <PUBCHEM_IUPAC_INCHIKEY>
YIDAQAJEKNRLJS-QJAHINBCSA-N

>  <PUBCHEM_XLOGP3_AA>
0.9

>  <PUBCHEM_EXACT_MASS>
522.101

>  <PUBCHEM_MOLECULAR_FORMULA>
C23H22O14

>  <PUBCHEM_MOLECULAR_WEIGHT>
522.415

>  <PUBCHEM_OPENEYE_CAN_SMILES>
COC1=C(C=C2C(=C1O)C(=O)C(=C(O2)C3=CC(=C(C=C3)OC4C(C(C(C(O4)C(=O)O)O)O)O)O)OC)O

>  <PUBCHEM_OPENEYE_ISO_SMILES>
COC1=C(C=C2C(=C1O)C(=O)C(=C(O2)C3=CC(=C(C=C3)O[C@H]4[C@@H]([C@H]([C@@H]([C@H](O4)C(=O)O)O)O)O)O)OC)O

>  <PUBCHEM_CACTVS_TPSA>
222

>  <PUBCHEM_MONOISOTOPIC_WEIGHT>
522.101

>  <PUBCHEM_TOTAL_CHARGE>
0

>  <PUBCHEM_HEAVY_ATOM_COUNT>
37

>  <PUBCHEM_ATOM_DEF_STEREO_COUNT>
5

>  <PUBCHEM_ATOM_UDEF_STEREO_COUNT>
0

>  <PUBCHEM_BOND_DEF_STEREO_COUNT>
0

>  <PUBCHEM_BOND_UDEF_STEREO_COUNT>
0

>  <PUBCHEM_ISOTOPIC_ATOM_COUNT>
0

>  <PUBCHEM_COMPONENT_COUNT>
1

>  <PUBCHEM_CACTVS_TAUTO_COUNT>
36

>  <PUBCHEM_COORDINATE_TYPE>
1
5
255

>  <PUBCHEM_BONDANNOTATIONS>
18  20  5
19  2  5
21  22  8
21  23  8
22  25  8
23  26  8
24  25  8
24  26  8
27  28  8
28  31  8
29  30  8
29  31  8
29  32  8
15  3  5
30  33  8
32  34  8
33  35  8
34  35  8
16  4  6
17  5  6
8  27  8
8  30  8

$$$$
