22290169
 OpenBabel06101807152D

 32 31  0  0  0  0  0  0  0  0999 V2000
    1.4398    0.8660    0.0000 P   0  0  0  0  0  0  0  0  0  0  0  0
    3.1718    0.8660    0.0000 P   0  0  0  0  0  0  0  0  0  0  0  0
    0.6106    7.8890    0.0000 O   0  0  0  0  0  0  0  0  0  0  0  0
    2.3058    1.3660    0.0000 O   0  0  0  0  0  0  0  0  0  0  0  0
    4.0379    0.3660    0.0000 O   0  0  0  0  0  0  0  0  0  0  0  0
    3.6718    1.7320    0.0000 O   0  0  0  0  0  0  0  0  0  0  0  0
    0.5738    0.3660    0.0000 O   0  0  0  0  0  0  0  0  0  0  0  0
    0.9398    1.7320    0.0000 O   0  0  0  0  0  0  0  0  0  0  0  0
    1.9398    0.0000    0.0000 O   0  0  0  0  0  0  0  0  0  0  0  0
    2.6718    0.0000    0.0000 O   0  0  0  0  0  0  0  0  0  0  0  0
    2.3426    4.8890    0.0000 N   0  0  0  0  0  0  0  0  0  0  0  0
    3.2087    6.3890    0.0000 N   0  0  0  0  0  0  0  0  0  0  0  0
    0.6106    4.8890    0.0000 N   0  0  0  0  0  0  0  0  0  0  0  0
    1.4766    6.3890    0.0000 C   0  0  0  0  0  0  0  0  0  0  0  0
    1.4766    5.3890    0.0000 C   0  0  0  0  0  0  0  0  0  0  0  0
    0.6106    6.8890    0.0000 C   0  0  0  0  0  0  0  0  0  0  0  0
    2.3426    6.8890    0.0000 C   0  0  0  0  0  0  0  0  0  0  0  0
    3.2087    5.3890    0.0000 C   0  0  0  0  0  0  0  0  0  0  0  0
    4.0747    4.8890    0.0000 C   0  0  0  0  0  0  0  0  0  0  0  0
    0.0000    6.9966    0.0000 H   0  0  0  0  0  0  0  0  0  0  0  0
    0.3985    6.3064    0.0000 H   0  0  0  0  0  0  0  0  0  0  0  0
    2.3426    7.5090    0.0000 H   0  0  0  0  0  0  0  0  0  0  0  0
    3.7647    4.3520    0.0000 H   0  0  0  0  0  0  0  0  0  0  0  0
    4.6116    4.5790    0.0000 H   0  0  0  0  0  0  0  0  0  0  0  0
    4.3847    5.4259    0.0000 H   0  0  0  0  0  0  0  0  0  0  0  0
    0.6106    4.2690    0.0000 H   0  0  0  0  0  0  0  0  0  0  0  0
    0.0736    5.1990    0.0000 H   0  0  0  0  0  0  0  0  0  0  0  0
    0.0736    8.1990    0.0000 H   0  0  0  0  0  0  0  0  0  0  0  0
    1.2498    2.2690    0.0000 H   0  0  0  0  0  0  0  0  0  0  0  0
    0.0368    0.6760    0.0000 H   0  0  0  0  0  0  0  0  0  0  0  0
    3.3618    2.2690    0.0000 H   0  0  0  0  0  0  0  0  0  0  0  0
    4.5748    0.6760    0.0000 H   0  0  0  0  0  0  0  0  0  0  0  0
  1  4  1  0  0  0  0
  1  7  1  0  0  0  0
  1  8  1  0  0  0  0
  1  9  2  0  0  0  0
  2  4  1  0  0  0  0
  2  5  1  0  0  0  0
  2  6  1  0  0  0  0
  2 10  2  0  0  0  0
  3 16  1  0  0  0  0
  3 28  1  0  0  0  0
  5 32  1  0  0  0  0
  6 31  1  0  0  0  0
  7 30  1  0  0  0  0
  8 29  1  0  0  0  0
 11 15  2  0  0  0  0
 11 18  1  0  0  0  0
 12 17  1  0  0  0  0
 12 18  2  0  0  0  0
 13 15  1  0  0  0  0
 13 26  1  0  0  0  0
 13 27  1  0  0  0  0
 14 15  1  0  0  0  0
 14 16  1  0  0  0  0
 14 17  2  0  0  0  0
 16 20  1  0  0  0  0
 16 21  1  0  0  0  0
 17 22  1  0  0  0  0
 18 19  1  0  0  0  0
 19 23  1  0  0  0  0
 19 24  1  0  0  0  0
 19 25  1  0  0  0  0
M  END
>  <PUBCHEM_COMPOUND_CID>
22290169

>  <PUBCHEM_COMPOUND_CANONICALIZED>
1

>  <PUBCHEM_CACTVS_COMPLEXITY>
257

>  <PUBCHEM_CACTVS_HBOND_ACCEPTOR>
11

>  <PUBCHEM_CACTVS_HBOND_DONOR>
6

>  <PUBCHEM_CACTVS_ROTATABLE_BOND>
3

>  <PUBCHEM_CACTVS_SUBSKEYS>
AAADccBjPAMAAAAAAAAAAAAAAAAAAAAAAAAsAAAAAAAAAAABgAAAHgAQCCAADADhmwYvsJZIEhCgQhJnZICAgCkRAKABUCA4TBCAHIBASUAERAgKAALAECAAAAAAAAAAAAAAAAAAAAAAAAAAAAAAAAAAAA==

>  <PUBCHEM_IUPAC_OPENEYE_NAME>
(4-amino-2-methyl-pyrimidin-5-yl)methanol;phosphono dihydrogen phosphate

>  <PUBCHEM_IUPAC_CAS_NAME>
(4-amino-2-methyl-5-pyrimidinyl)methanol;phosphono dihydrogen phosphate

>  <PUBCHEM_IUPAC_NAME>
(4-amino-2-methylpyrimidin-5-yl)methanol;phosphono dihydrogen phosphate

>  <PUBCHEM_IUPAC_SYSTEMATIC_NAME>
(4-azanyl-2-methyl-pyrimidin-5-yl)methanol;phosphono dihydrogen phosphate

>  <PUBCHEM_IUPAC_TRADITIONAL_NAME>
(4-amino-2-methyl-pyrimidin-5-yl)methanol;phosphono dihydrogen phosphate

>  <PUBCHEM_IUPAC_INCHI>
InChI=1S/C6H9N3O.H4O7P2/c1-4-8-2-5(3-10)6(7)9-4;1-8(2,3)7-9(4,5)6/h2,10H,3H2,1H3,(H2,7,8,9);(H2,1,2,3)(H2,4,5,6)

>  <PUBCHEM_IUPAC_INCHIKEY>
PCFPIDTUHTVMCO-UHFFFAOYSA-N

>  <PUBCHEM_EXACT_MASS>
317.018

>  <PUBCHEM_MOLECULAR_FORMULA>
C6H13N3O8P2

>  <PUBCHEM_MOLECULAR_WEIGHT>
317.131

>  <PUBCHEM_OPENEYE_CAN_SMILES>
CC1=NC=C(C(=N1)N)CO.OP(=O)(O)OP(=O)(O)O

>  <PUBCHEM_OPENEYE_ISO_SMILES>
CC1=NC=C(C(=N1)N)CO.OP(=O)(O)OP(=O)(O)O

>  <PUBCHEM_CACTVS_TPSA>
196

>  <PUBCHEM_MONOISOTOPIC_WEIGHT>
317.018

>  <PUBCHEM_TOTAL_CHARGE>
0

>  <PUBCHEM_HEAVY_ATOM_COUNT>
19

>  <PUBCHEM_ATOM_DEF_STEREO_COUNT>
0

>  <PUBCHEM_ATOM_UDEF_STEREO_COUNT>
0

>  <PUBCHEM_BOND_DEF_STEREO_COUNT>
0

>  <PUBCHEM_BOND_UDEF_STEREO_COUNT>
0

>  <PUBCHEM_ISOTOPIC_ATOM_COUNT>
0

>  <PUBCHEM_COMPONENT_COUNT>
2

>  <PUBCHEM_CACTVS_TAUTO_COUNT>
3

>  <PUBCHEM_COORDINATE_TYPE>
1
5
255

>  <PUBCHEM_BONDANNOTATIONS>
11  15  8
11  18  8
12  17  8
12  18  8
14  15  8
14  17  8

$$$$
