22478
 OpenBabel06101807152D

 26 25  0  0  0  0  0  0  0  0999 V2000
    3.4030   -0.3450    0.0000 O   0  0  0  0  0  0  0  0  0  0  0  0
    6.8671   -0.3450    0.0000 O   0  0  0  0  0  0  0  0  0  0  0  0
    4.2690    1.1550    0.0000 N   0  0  0  0  0  0  0  0  0  0  0  0
    5.1350   -0.3450    0.0000 N   0  0  0  0  0  0  0  0  0  0  0  0
    2.5369    1.1550    0.0000 N   0  0  0  0  0  0  0  0  0  0  0  0
    6.0010   -1.8450    0.0000 N   0  0  0  0  0  0  0  0  0  0  0  0
    6.0010    1.1550    0.0000 C   0  0  0  0  0  0  0  0  0  0  0  0
    5.1350    0.6550    0.0000 C   0  0  0  0  0  0  0  0  0  0  0  0
    6.8671    0.6550    0.0000 C   0  0  0  0  0  0  0  0  0  0  0  0
    6.0010    2.1550    0.0000 C   0  0  0  0  0  0  0  0  0  0  0  0
    3.4030    0.6550    0.0000 C   0  0  0  0  0  0  0  0  0  0  0  0
    6.0010   -0.8450    0.0000 C   0  0  0  0  0  0  0  0  0  0  0  0
    6.5380    1.4650    0.0000 H   0  0  0  0  0  0  0  0  0  0  0  0
    5.1350    1.2750    0.0000 H   0  0  0  0  0  0  0  0  0  0  0  0
    6.5571    0.1181    0.0000 H   0  0  0  0  0  0  0  0  0  0  0  0
    7.4040    0.3450    0.0000 H   0  0  0  0  0  0  0  0  0  0  0  0
    7.1771    1.1919    0.0000 H   0  0  0  0  0  0  0  0  0  0  0  0
    6.6210    2.1550    0.0000 H   0  0  0  0  0  0  0  0  0  0  0  0
    6.0010    2.7750    0.0000 H   0  0  0  0  0  0  0  0  0  0  0  0
    5.3810    2.1550    0.0000 H   0  0  0  0  0  0  0  0  0  0  0  0
    4.5981   -0.6550    0.0000 H   0  0  0  0  0  0  0  0  0  0  0  0
    4.2690    1.7750    0.0000 H   0  0  0  0  0  0  0  0  0  0  0  0
    2.0000    0.8450    0.0000 H   0  0  0  0  0  0  0  0  0  0  0  0
    2.5369    1.7750    0.0000 H   0  0  0  0  0  0  0  0  0  0  0  0
    6.5380   -2.1550    0.0000 H   0  0  0  0  0  0  0  0  0  0  0  0
    5.4641   -2.1550    0.0000 H   0  0  0  0  0  0  0  0  0  0  0  0
  1 11  2  0  0  0  0
  2 12  2  0  0  0  0
  3  8  1  0  0  0  0
  3 11  1  0  0  0  0
  3 22  1  0  0  0  0
  4  8  1  0  0  0  0
  4 12  1  0  0  0  0
  4 21  1  0  0  0  0
  5 11  1  0  0  0  0
  5 23  1  0  0  0  0
  5 24  1  0  0  0  0
  6 12  1  0  0  0  0
  6 25  1  0  0  0  0
  6 26  1  0  0  0  0
  7  8  1  0  0  0  0
  7  9  1  0  0  0  0
  7 10  1  0  0  0  0
  7 13  1  0  0  0  0
  8 14  1  0  0  0  0
  9 15  1  0  0  0  0
  9 16  1  0  0  0  0
  9 17  1  0  0  0  0
 10 18  1  0  0  0  0
 10 19  1  0  0  0  0
 10 20  1  0  0  0  0
M  END
>  <PUBCHEM_COMPOUND_CID>
22478

>  <PUBCHEM_COMPOUND_CANONICALIZED>
1

>  <PUBCHEM_CACTVS_COMPLEXITY>
164

>  <PUBCHEM_CACTVS_HBOND_ACCEPTOR>
2

>  <PUBCHEM_CACTVS_HBOND_DONOR>
4

>  <PUBCHEM_CACTVS_ROTATABLE_BOND>
3

>  <PUBCHEM_CACTVS_SUBSKEYS>
AAADccBjsAAAAAAAAAAAAAAAAAAAAAAAAAAAAAAAAAAAAAAAAAAAHgAQAAAADQDBAAQDAALAAAAIAAAAEAAAAAAAAAAAAIAIAACAAAAAAAAEAAAIFwIAAAAAAAAAAAAAAAAAAAAAAAAAAAAAAAAAAAAAAA==

>  <PUBCHEM_IUPAC_OPENEYE_NAME>
(2-methyl-1-ureido-propyl)urea

>  <PUBCHEM_IUPAC_CAS_NAME>
[1-(carbamoylamino)-2-methylpropyl]urea

>  <PUBCHEM_IUPAC_NAME>
[1-(carbamoylamino)-2-methylpropyl]urea

>  <PUBCHEM_IUPAC_SYSTEMATIC_NAME>
1-[1-(aminocarbonylamino)-2-methyl-propyl]urea

>  <PUBCHEM_IUPAC_TRADITIONAL_NAME>
(2-methyl-1-ureido-propyl)urea

>  <PUBCHEM_IUPAC_INCHI>
InChI=1S/C6H14N4O2/c1-3(2)4(9-5(7)11)10-6(8)12/h3-4H,1-2H3,(H3,7,9,11)(H3,8,10,12)

>  <PUBCHEM_IUPAC_INCHIKEY>
QFHMNFAUXJAINK-UHFFFAOYSA-N

>  <PUBCHEM_XLOGP3_AA>
-0.8

>  <PUBCHEM_EXACT_MASS>
174.112

>  <PUBCHEM_MOLECULAR_FORMULA>
C6H14N4O2

>  <PUBCHEM_MOLECULAR_WEIGHT>
174.204

>  <PUBCHEM_OPENEYE_CAN_SMILES>
CC(C)C(NC(=O)N)NC(=O)N

>  <PUBCHEM_OPENEYE_ISO_SMILES>
CC(C)C(NC(=O)N)NC(=O)N

>  <PUBCHEM_CACTVS_TPSA>
110

>  <PUBCHEM_MONOISOTOPIC_WEIGHT>
174.112

>  <PUBCHEM_TOTAL_CHARGE>
0

>  <PUBCHEM_HEAVY_ATOM_COUNT>
12

>  <PUBCHEM_ATOM_DEF_STEREO_COUNT>
0

>  <PUBCHEM_ATOM_UDEF_STEREO_COUNT>
0

>  <PUBCHEM_BOND_DEF_STEREO_COUNT>
0

>  <PUBCHEM_BOND_UDEF_STEREO_COUNT>
0

>  <PUBCHEM_ISOTOPIC_ATOM_COUNT>
0

>  <PUBCHEM_COMPONENT_COUNT>
1

>  <PUBCHEM_CACTVS_TAUTO_COUNT>
6

>  <PUBCHEM_COORDINATE_TYPE>
1
5
255

$$$$
