22833653
 OpenBabel06101807152D

106115  0  0  1  0  0  0  0  0999 V2000
    9.2254    0.1970    0.0000 O   0  0  0  0  0  0  0  0  0  0  0  0
    7.8233   -1.9232    0.0000 O   0  0  0  0  0  0  0  0  0  0  0  0
    8.2209    5.9504    0.0000 O   0  0  0  0  0  0  0  0  0  0  0  0
    7.3390    2.3811    0.0000 O   0  0  0  0  0  0  0  0  0  0  0  0
    9.7524   -2.4510    0.0000 O   0  0  0  0  0  0  0  0  0  0  0  0
    7.1183   -1.3178    0.0000 O   0  0  0  0  0  0  0  0  0  0  0  0
    5.4251    0.6489    0.0000 O   0  0  0  0  0  0  0  0  0  0  0  0
   10.8356    2.4811    0.0000 O   0  0  0  0  0  0  0  0  0  0  0  0
    9.1461    1.4466    0.0000 O   0  0  0  0  0  0  0  0  0  0  0  0
    4.7752    5.9801    0.0000 O   0  0  0  0  0  0  0  0  0  0  0  0
    6.5041    6.9473    0.0000 O   0  0  0  0  0  0  0  0  0  0  0  0
    9.9530    5.9504    0.0000 O   0  0  0  0  0  0  0  0  0  0  0  0
    5.5689    2.4052    0.0000 O   0  0  0  0  0  0  0  0  0  0  0  0
   10.7851    0.4264    0.0000 O   0  0  0  0  0  0  0  0  0  0  0  0
   11.2127    4.4496    0.0000 O   0  0  0  0  0  0  0  0  0  0  0  0
    4.4905    5.2489    0.0000 O   0  0  0  0  0  0  0  0  0  0  0  0
   11.1740   -1.0442    0.0000 O   0  0  0  0  0  0  0  0  0  0  0  0
    8.7879   -2.1871    0.0000 O   0  0  0  0  0  0  0  0  0  0  0  0
   12.9068    3.4388    0.0000 O   0  0  0  0  0  0  0  0  0  0  0  0
    3.9627    1.2377    0.0000 O   0  0  0  0  0  0  0  0  0  0  0  0
   12.9028    1.4659    0.0000 O   0  0  0  0  0  0  0  0  0  0  0  0
    2.6065    4.6636    0.0000 O   0  0  0  0  0  0  0  0  0  0  0  0
    8.3308   -3.8578    0.0000 O   0  0  0  0  0  0  0  0  0  0  0  0
    2.1478    2.7448    0.0000 O   0  0  0  0  0  0  0  0  0  0  0  0
    6.1234   -2.3334    0.0000 O   0  0  0  0  0  0  0  0  0  0  0  0
    8.1144   -6.5316    0.0000 O   0  0  0  0  0  0  0  0  0  0  0  0
    4.6564   -3.7629    0.0000 O   0  0  0  0  0  0  0  0  0  0  0  0
    5.1761   -5.7442    0.0000 O   0  0  0  0  0  0  0  0  0  0  0  0
   10.0859   -7.0874    0.0000 O   0  0  0  0  0  0  0  0  0  0  0  0
   11.5418   -5.6466    0.0000 O   0  0  0  0  0  0  0  0  0  0  0  0
    8.2804   -0.2526    0.0000 C   0  0  3  0  0  0  0  0  0  0  0  0
    8.5341   -1.2198    0.0000 C   0  0  3  0  0  0  0  0  0  0  0  0
    7.2363   -0.3248    0.0000 C   0  0  3  0  0  0  0  0  0  0  0  0
    8.2209    3.9504    0.0000 C   0  0  0  0  0  0  0  0  0  0  0  0
    7.3549    4.4504    0.0000 C   0  0  0  0  0  0  0  0  0  0  0  0
    9.4987   -1.4837    0.0000 C   0  0  3  0  0  0  0  0  0  0  0  0
    9.0870    4.4504    0.0000 C   0  0  0  0  0  0  0  0  0  0  0  0
    6.4449    3.9435    0.0000 C   0  0  0  0  0  0  0  0  0  0  0  0
    9.9464    3.9556    0.0000 C   0  0  0  0  0  0  0  0  0  0  0  0
    8.2370    2.9088    0.0000 C   0  0  0  0  0  0  0  0  0  0  0  0
    5.6056    4.4717    0.0000 C   0  0  0  0  0  0  0  0  0  0  0  0
    7.3549    5.4504    0.0000 C   0  0  0  0  0  0  0  0  0  0  0  0
    6.2384   -0.0097    0.0000 C   0  0  0  0  0  0  0  0  0  0  0  0
   10.3276    2.9810    0.0000 C   0  0  0  0  0  0  0  0  0  0  0  0
    9.9598    2.9640    0.0000 C   0  0  0  0  0  0  0  0  0  0  0  0
    5.0065    3.6137    0.0000 C   0  0  0  0  0  0  0  0  0  0  0  0
    9.1141    2.4461    0.0000 C   0  0  0  0  0  0  0  0  0  0  0  0
   10.3255    1.9344    0.0000 C   0  0  0  0  0  0  0  0  0  0  0  0
    5.6312    5.4631    0.0000 C   0  0  0  0  0  0  0  0  0  0  0  0
    6.4967    5.9473    0.0000 C   0  0  0  0  0  0  0  0  0  0  0  0
    9.0870    5.4504    0.0000 C   0  0  0  0  0  0  0  0  0  0  0  0
    6.4369    2.9019    0.0000 C   0  0  0  0  0  0  0  0  0  0  0  0
    9.9402    0.9614    0.0000 C   0  0  0  0  0  0  0  0  0  0  0  0
    4.7632    2.5958    0.0000 C   0  0  0  0  0  0  0  0  0  0  0  0
   11.1922    3.4498    0.0000 C   0  0  0  0  0  0  0  0  0  0  0  0
   10.2095   -0.7803    0.0000 C   0  0  0  0  0  0  0  0  0  0  0  0
    8.0771   -2.8905    0.0000 C   0  0  0  0  0  0  0  0  0  0  0  0
    4.2760    4.2722    0.0000 C   0  0  0  0  0  0  0  0  0  0  0  0
   11.1880    1.4620    0.0000 C   0  0  0  0  0  0  0  0  0  0  0  0
    4.9095    1.5596    0.0000 C   0  0  0  0  0  0  0  0  0  0  0  0
    7.3663   -3.5939    0.0000 C   0  0  0  0  0  0  0  0  0  0  0  0
    7.6200   -4.5611    0.0000 C   0  0  0  0  0  0  0  0  0  0  0  0
   12.0367    2.9459    0.0000 C   0  0  0  0  0  0  0  0  0  0  0  0
    8.5846   -4.8250    0.0000 C   0  0  0  0  0  0  0  0  0  0  0  0
    9.0416   -3.1544    0.0000 C   0  0  0  0  0  0  0  0  0  0  0  0
    9.2954   -4.1216    0.0000 C   0  0  0  0  0  0  0  0  0  0  0  0
    3.8138    2.3388    0.0000 C   0  0  0  0  0  0  0  0  0  0  0  0
   12.0347    1.9624    0.0000 C   0  0  0  0  0  0  0  0  0  0  0  0
    3.3368    3.9804    0.0000 C   0  0  0  0  0  0  0  0  0  0  0  0
    3.1081    3.0238    0.0000 C   0  0  0  0  0  0  0  0  0  0  0  0
    6.3659   -3.3036    0.0000 C   0  0  0  0  0  0  0  0  0  0  0  0
    6.8910   -5.3051    0.0000 C   0  0  0  0  0  0  0  0  0  0  0  0
    8.8333   -5.8365    0.0000 C   0  0  0  0  0  0  0  0  0  0  0  0
   10.3042   -4.3810    0.0000 C   0  0  0  0  0  0  0  0  0  0  0  0
    5.6199   -4.0305    0.0000 C   0  0  0  0  0  0  0  0  0  0  0  0
    5.8842   -5.0380    0.0000 C   0  0  0  0  0  0  0  0  0  0  0  0
    9.8359   -6.1191    0.0000 C   0  0  0  0  0  0  0  0  0  0  0  0
   10.5763   -5.3864    0.0000 C   0  0  0  0  0  0  0  0  0  0  0  0
    8.8426   -0.5139    0.0000 H   0  0  0  0  0  0  0  0  0  0  0  0
    8.9748   -0.7837    0.0000 H   0  0  0  0  0  0  0  0  0  0  0  0
    6.7155   -0.6611    0.0000 H   0  0  0  0  0  0  0  0  0  0  0  0
   10.0967   -1.6473    0.0000 H   0  0  0  0  0  0  0  0  0  0  0  0
    5.6917   -0.3023    0.0000 H   0  0  0  0  0  0  0  0  0  0  0  0
    6.5319    0.5363    0.0000 H   0  0  0  0  0  0  0  0  0  0  0  0
   10.0522   -0.1806    0.0000 H   0  0  0  0  0  0  0  0  0  0  0  0
    6.5485   -1.5622    0.0000 H   0  0  0  0  0  0  0  0  0  0  0  0
   11.1982    0.8421    0.0000 H   0  0  0  0  0  0  0  0  0  0  0  0
    3.6586    1.7386    0.0000 H   0  0  0  0  0  0  0  0  0  0  0  0
   11.3663    2.8016    0.0000 H   0  0  0  0  0  0  0  0  0  0  0  0
    8.6193    1.1196    0.0000 H   0  0  0  0  0  0  0  0  0  0  0  0
    4.7874    6.6000    0.0000 H   0  0  0  0  0  0  0  0  0  0  0  0
    7.0433    7.2533    0.0000 H   0  0  0  0  0  0  0  0  0  0  0  0
    7.0552   -5.9030    0.0000 H   0  0  0  0  0  0  0  0  0  0  0  0
   10.7398   -3.9398    0.0000 H   0  0  0  0  0  0  0  0  0  0  0  0
   11.7558    4.7486    0.0000 H   0  0  0  0  0  0  0  0  0  0  0  0
    4.0326    5.6669    0.0000 H   0  0  0  0  0  0  0  0  0  0  0  0
   13.4412    3.1244    0.0000 H   0  0  0  0  0  0  0  0  0  0  0  0
   12.9053    0.8459    0.0000 H   0  0  0  0  0  0  0  0  0  0  0  0
    2.0133    4.4832    0.0000 H   0  0  0  0  0  0  0  0  0  0  0  0
    2.0000    2.1427    0.0000 H   0  0  0  0  0  0  0  0  0  0  0  0
    5.5273   -2.1629    0.0000 H   0  0  0  0  0  0  0  0  0  0  0  0
    8.2648   -7.1331    0.0000 H   0  0  0  0  0  0  0  0  0  0  0  0
    4.2140   -4.1973    0.0000 H   0  0  0  0  0  0  0  0  0  0  0  0
    5.3357   -6.3432    0.0000 H   0  0  0  0  0  0  0  0  0  0  0  0
   10.6833   -7.2533    0.0000 H   0  0  0  0  0  0  0  0  0  0  0  0
   11.9809   -5.2088    0.0000 H   0  0  0  0  0  0  0  0  0  0  0  0
  1 31  1  0  0  0  0
  1 53  1  0  0  0  0
  2 32  1  0  0  0  0
  2 57  1  0  0  0  0
  3 42  1  0  0  0  0
  3 51  1  0  0  0  0
  4 40  1  0  0  0  0
  4 52  1  0  0  0  0
  5 36  1  0  0  0  0
  5 65  1  0  0  0  0
  6 33  1  0  0  0  0
  6 86  1  0  0  0  0
  7 43  1  0  0  0  0
  7 60  1  0  0  0  0
  8 45  1  0  0  0  0
  8 89  1  0  0  0  0
  9 47  1  0  0  0  0
  9 90  1  0  0  0  0
 10 49  1  0  0  0  0
 10 91  1  0  0  0  0
 11 50  1  0  0  0  0
 11 92  1  0  0  0  0
 12 51  2  0  0  0  0
 13 52  2  0  0  0  0
 14 53  2  0  0  0  0
 15 55  1  0  0  0  0
 15 95  1  0  0  0  0
 16 58  1  0  0  0  0
 16 96  1  0  0  0  0
 17 56  2  0  0  0  0
 18 57  2  0  0  0  0
 19 63  1  0  0  0  0
 19 97  1  0  0  0  0
 20 60  2  0  0  0  0
 21 68  1  0  0  0  0
 21 98  1  0  0  0  0
 22 69  1  0  0  0  0
 22 99  1  0  0  0  0
 23 65  2  0  0  0  0
 24 70  1  0  0  0  0
 24100  1  0  0  0  0
 25 71  1  0  0  0  0
 25101  1  0  0  0  0
 26 73  1  0  0  0  0
 26102  1  0  0  0  0
 27 75  1  0  0  0  0
 27103  1  0  0  0  0
 28 76  1  0  0  0  0
 28104  1  0  0  0  0
 29 77  1  0  0  0  0
 29105  1  0  0  0  0
 30 78  1  0  0  0  0
 30106  1  0  0  0  0
 31 32  1  0  0  0  0
 31 33  1  0  0  0  0
 31 79  1  0  0  0  0
 32 36  1  0  0  0  0
 32 80  1  0  0  0  0
 33 43  1  0  0  0  0
 33 81  1  0  0  0  0
 34 35  1  0  0  0  0
 34 37  2  0  0  0  0
 34 40  1  0  0  0  0
 35 38  2  0  0  0  0
 35 42  1  0  0  0  0
 36 56  1  0  0  0  0
 36 82  1  0  0  0  0
 37 39  1  0  0  0  0
 37 51  1  0  0  0  0
 38 41  1  0  0  0  0
 38 52  1  0  0  0  0
 39 44  1  0  0  0  0
 39 45  2  0  0  0  0
 40 47  2  0  0  0  0
 41 46  1  0  0  0  0
 41 49  2  0  0  0  0
 42 50  2  0  0  0  0
 43 83  1  0  0  0  0
 43 84  1  0  0  0  0
 44 48  1  0  0  0  0
 44 55  2  0  0  0  0
 45 47  1  0  0  0  0
 46 54  1  0  0  0  0
 46 58  2  0  0  0  0
 48 53  1  0  0  0  0
 48 59  2  0  0  0  0
 49 50  1  0  0  0  0
 54 60  1  0  0  0  0
 54 67  2  0  0  0  0
 55 63  1  0  0  0  0
 56 85  1  0  0  0  0
 57 61  1  0  0  0  0
 58 69  1  0  0  0  0
 59 68  1  0  0  0  0
 59 87  1  0  0  0  0
 61 62  1  0  0  0  0
 61 71  2  0  0  0  0
 62 64  1  0  0  0  0
 62 72  2  0  0  0  0
 63 68  2  0  0  0  0
 64 66  1  0  0  0  0
 64 73  2  0  0  0  0
 65 66  1  0  0  0  0
 66 74  2  0  0  0  0
 67 70  1  0  0  0  0
 67 88  1  0  0  0  0
 69 70  2  0  0  0  0
 71 75  1  0  0  0  0
 72 76  1  0  0  0  0
 72 93  1  0  0  0  0
 73 77  1  0  0  0  0
 74 78  1  0  0  0  0
 74 94  1  0  0  0  0
 75 76  2  0  0  0  0
 77 78  2  0  0  0  0
M  END
>  <PUBCHEM_COMPOUND_CID>
22833653

>  <PUBCHEM_COMPOUND_CANONICALIZED>
0

>  <PUBCHEM_CACTVS_COMPLEXITY>
2360

>  <PUBCHEM_CACTVS_HBOND_ACCEPTOR>
30

>  <PUBCHEM_CACTVS_HBOND_DONOR>
17

>  <PUBCHEM_CACTVS_ROTATABLE_BOND>
2

>  <PUBCHEM_CACTVS_SUBSKEYS>
AAADceB8PgAAAAAAAAAAAAAAAAAAAAAAAAA0aMGDAAAAAACRVAAAGgAACAAADBSgmAIwDoAABgCIAijSiAICCAAkIAAAiAFGiMgNNzaGNB6Ce2Ol4BULuYfK7PzOoAADCAAYQABAAAYQADCAAAAAAAAAAA==

>  <PUBCHEM_IUPAC_INCHI>
InChI=1S/C48H28O30/c49-5-16-40(76-46(70)20-7(1-11(50)30(58)34(20)62)17-8(44(68)74-16)2-12(51)27(55)31(17)59)39-15(54)6-73-43(67)9-3-13(52)28(56)32(60)18(9)21-25-23-24-26(48(72)78-41(23)37(65)35(21)63)22(36(64)38(66)42(24)77-47(25)71)19-10(45(69)75-39)4-14(53)29(57)33(19)61/h1-5,15-16,39-40,50-66H,6H2

>  <PUBCHEM_IUPAC_INCHIKEY>
BFMMRDUWGRKGNX-UHFFFAOYSA-N

>  <PUBCHEM_XLOGP3_AA>
2

>  <PUBCHEM_EXACT_MASS>
1084.067

>  <PUBCHEM_MOLECULAR_FORMULA>
C48H28O30

>  <PUBCHEM_MOLECULAR_WEIGHT>
1084.722

>  <PUBCHEM_OPENEYE_CAN_SMILES>
C1C(C(OC(=O)C2=CC(=C(C(=C2C3=C(C(=C4C5=C3C(=O)OC6=C(C(=C(C7=C(C(=C(C=C7C(=O)O1)O)O)O)C(=C56)C(=O)O4)O)O)O)O)O)O)O)C8C(OC(=O)C9=CC(=C(C(=C9C1=CC(=C(C(=C1C(=O)O8)O)O)O)O)O)O)C=O)O

>  <PUBCHEM_OPENEYE_ISO_SMILES>
C1C(C(OC(=O)C2=CC(=C(C(=C2C3=C(C(=C4C5=C3C(=O)OC6=C(C(=C(C7=C(C(=C(C=C7C(=O)O1)O)O)O)C(=C56)C(=O)O4)O)O)O)O)O)O)O)C8C(OC(=O)C9=CC(=C(C(=C9C1=CC(=C(C(=C1C(=O)O8)O)O)O)O)O)O)C=O)O

>  <PUBCHEM_CACTVS_TPSA>
519

>  <PUBCHEM_MONOISOTOPIC_WEIGHT>
1084.067

>  <PUBCHEM_TOTAL_CHARGE>
0

>  <PUBCHEM_HEAVY_ATOM_COUNT>
78

>  <PUBCHEM_ATOM_DEF_STEREO_COUNT>
0

>  <PUBCHEM_ATOM_UDEF_STEREO_COUNT>
4

>  <PUBCHEM_BOND_DEF_STEREO_COUNT>
0

>  <PUBCHEM_BOND_UDEF_STEREO_COUNT>
0

>  <PUBCHEM_ISOTOPIC_ATOM_COUNT>
0

>  <PUBCHEM_COMPONENT_COUNT>
1

>  <PUBCHEM_CACTVS_TAUTO_COUNT>
938

>  <PUBCHEM_COORDINATE_TYPE>
1
5
255

>  <PUBCHEM_BONDANNOTATIONS>
31  1  3
32  2  3
3  42  8
3  51  8
34  35  8
34  37  8
34  40  8
35  38  8
35  42  8
36  56  3
37  39  8
37  51  8
38  41  8
38  52  8
39  45  8
4  40  8
4  52  8
40  47  8
41  49  8
42  50  8
44  48  8
44  55  8
45  47  8
46  54  8
46  58  8
48  59  8
49  50  8
54  67  8
55  63  8
58  69  8
59  68  8
33  6  3
61  62  8
61  71  8
62  72  8
63  68  8
64  66  8
64  73  8
66  74  8
67  70  8
69  70  8
71  75  8
72  76  8
73  77  8
74  78  8
75  76  8
77  78  8

$$$$
