23252256
 OpenBabel06101807152D

 56 58  0  0  1  0  0  0  0  0999 V2000
    5.5932    0.9991    0.0000 O   0  0  0  0  0  0  0  0  0  0  0  0
    5.8337    3.2012    0.0000 O   0  0  0  0  0  0  0  0  0  0  0  0
    3.7226    0.7462    0.0000 O   0  0  0  0  0  0  0  0  0  0  0  0
    7.5762   -1.7960    0.0000 O   0  0  0  0  0  0  0  0  0  0  0  0
    9.2995   -1.6216    0.0000 O   0  0  0  0  0  0  0  0  0  0  0  0
    6.3337    1.6623    0.0000 C   0  0  2  0  0  0  0  0  0  0  0  0
    7.1427    2.2501    0.0000 C   0  0  1  0  0  0  0  0  0  0  0  0
    5.5246    2.2501    0.0000 C   0  0  1  0  0  0  0  0  0  0  0  0
    6.4266    0.6248    0.0000 C   0  0  0  0  0  0  0  0  0  0  0  0
    8.1007    1.8412    0.0000 C   0  0  0  0  0  0  0  0  0  0  0  0
    7.3748    0.1938    0.0000 C   0  0  1  0  0  0  0  0  0  0  0  0
    6.8337    3.2012    0.0000 C   0  0  0  0  0  0  0  0  0  0  0  0
    4.5363    2.1436    0.0000 C   0  0  0  0  0  0  0  0  0  0  0  0
    8.2175    0.8061    0.0000 C   0  0  0  0  0  0  0  0  0  0  0  0
    4.5316    1.3340    0.0000 C   0  0  2  0  0  0  0  0  0  0  0  0
    7.9517    2.8379    0.0000 C   0  0  0  0  0  0  0  0  0  0  0  0
    4.7156    2.8379    0.0000 C   0  0  0  0  0  0  0  0  0  0  0  0
    7.4755   -0.8011    0.0000 C   0  0  0  0  0  0  0  0  0  0  0  0
    8.4704   -0.7004    0.0000 C   0  0  0  0  0  0  0  0  0  0  0  0
    6.4806   -0.9018    0.0000 C   0  0  0  0  0  0  0  0  0  0  0  0
    2.8090    1.1529    0.0000 C   0  0  0  0  0  0  0  0  0  0  0  0
    8.4882   -2.2062    0.0000 C   0  0  0  0  0  0  0  0  0  0  0  0
    2.0000    0.5651    0.0000 C   0  0  0  0  0  0  0  0  0  0  0  0
    8.5889   -3.2012    0.0000 C   0  0  0  0  0  0  0  0  0  0  0  0
    5.8087    0.6760    0.0000 H   0  0  0  0  0  0  0  0  0  0  0  0
    6.2704    0.0248    0.0000 H   0  0  0  0  0  0  0  0  0  0  0  0
    8.7196    1.8043    0.0000 H   0  0  0  0  0  0  0  0  0  0  0  0
    8.2429    2.4446    0.0000 H   0  0  0  0  0  0  0  0  0  0  0  0
    8.1507   -0.1534    0.0000 H   0  0  0  0  0  0  0  0  0  0  0  0
    7.4401    3.3301    0.0000 H   0  0  0  0  0  0  0  0  0  0  0  0
    6.7688    3.8178    0.0000 H   0  0  0  0  0  0  0  0  0  0  0  0
    4.4932    2.7621    0.0000 H   0  0  0  0  0  0  0  0  0  0  0  0
    3.9166    2.1238    0.0000 H   0  0  0  0  0  0  0  0  0  0  0  0
    8.4908    0.2495    0.0000 H   0  0  0  0  0  0  0  0  0  0  0  0
    8.8126    0.9801    0.0000 H   0  0  0  0  0  0  0  0  0  0  0  0
    4.6312    0.7220    0.0000 H   0  0  0  0  0  0  0  0  0  0  0  0
    8.3161    2.3363    0.0000 H   0  0  0  0  0  0  0  0  0  0  0  0
    8.4533    3.2023    0.0000 H   0  0  0  0  0  0  0  0  0  0  0  0
    7.5873    3.3395    0.0000 H   0  0  0  0  0  0  0  0  0  0  0  0
    5.0800    3.3395    0.0000 H   0  0  0  0  0  0  0  0  0  0  0  0
    4.2140    3.2023    0.0000 H   0  0  0  0  0  0  0  0  0  0  0  0
    4.3512    2.3363    0.0000 H   0  0  0  0  0  0  0  0  0  0  0  0
    6.4182   -0.2849    0.0000 H   0  0  0  0  0  0  0  0  0  0  0  0
    5.8638   -0.9642    0.0000 H   0  0  0  0  0  0  0  0  0  0  0  0
    6.5430   -1.5186    0.0000 H   0  0  0  0  0  0  0  0  0  0  0  0
    8.5329   -1.3172    0.0000 H   0  0  0  0  0  0  0  0  0  0  0  0
    9.0873   -0.6379    0.0000 H   0  0  0  0  0  0  0  0  0  0  0  0
    8.4080   -0.0835    0.0000 H   0  0  0  0  0  0  0  0  0  0  0  0
    3.1557    1.6669    0.0000 H   0  0  0  0  0  0  0  0  0  0  0  0
    2.3630    1.5836    0.0000 H   0  0  0  0  0  0  0  0  0  0  0  0
    1.6356    1.0667    0.0000 H   0  0  0  0  0  0  0  0  0  0  0  0
    1.4984    0.2007    0.0000 H   0  0  0  0  0  0  0  0  0  0  0  0
    2.3644    0.0635    0.0000 H   0  0  0  0  0  0  0  0  0  0  0  0
    7.9720   -3.2636    0.0000 H   0  0  0  0  0  0  0  0  0  0  0  0
    8.6513   -3.8180    0.0000 H   0  0  0  0  0  0  0  0  0  0  0  0
    9.2057   -3.1387    0.0000 H   0  0  0  0  0  0  0  0  0  0  0  0
  1 15  1  0  0  0  0
  2  8  1  0  0  0  0
  2 12  1  0  0  0  0
  3 21  1  0  0  0  0
  4 18  1  0  0  0  0
  4 22  1  0  0  0  0
  5 22  2  0  0  0  0
  6  1  1  0  0  0  0
  6  7  1  1  0  0  0
  6  9  1  0  0  0  0
  7 10  1  0  0  0  0
  7 12  1  0  0  0  0
  7 16  1  1  0  0  0
  8  6  1  6  0  0  0
  8 13  1  0  0  0  0
  8 17  1  0  0  0  0
  9 11  1  0  0  0  0
  9 25  1  0  0  0  0
  9 26  1  0  0  0  0
 10 14  1  0  0  0  0
 10 27  1  0  0  0  0
 10 28  1  0  0  0  0
 11 14  1  0  0  0  0
 11 18  1  0  0  0  0
 11 29  1  6  0  0  0
 12 30  1  0  0  0  0
 12 31  1  0  0  0  0
 13 15  1  0  0  0  0
 13 32  1  0  0  0  0
 13 33  1  0  0  0  0
 14 34  1  0  0  0  0
 14 35  1  0  0  0  0
 15  3  1  0  0  0  0
 15 36  1  1  0  0  0
 16 37  1  0  0  0  0
 16 38  1  0  0  0  0
 16 39  1  0  0  0  0
 17 40  1  0  0  0  0
 17 41  1  0  0  0  0
 17 42  1  0  0  0  0
 18 19  1  0  0  0  0
 18 20  1  0  0  0  0
 19 46  1  0  0  0  0
 19 47  1  0  0  0  0
 19 48  1  0  0  0  0
 20 43  1  0  0  0  0
 20 44  1  0  0  0  0
 20 45  1  0  0  0  0
 21 23  1  0  0  0  0
 21 49  1  0  0  0  0
 21 50  1  0  0  0  0
 22 24  1  0  0  0  0
 23 51  1  0  0  0  0
 23 52  1  0  0  0  0
 23 53  1  0  0  0  0
 24 54  1  0  0  0  0
 24 55  1  0  0  0  0
 24 56  1  0  0  0  0
M  END
>  <PUBCHEM_COMPOUND_CID>
23252256

>  <PUBCHEM_COMPOUND_CANONICALIZED>
1

>  <PUBCHEM_CACTVS_COMPLEXITY>
518

>  <PUBCHEM_CACTVS_HBOND_ACCEPTOR>
5

>  <PUBCHEM_CACTVS_HBOND_DONOR>
0

>  <PUBCHEM_CACTVS_ROTATABLE_BOND>
5

>  <PUBCHEM_CACTVS_SUBSKEYS>
AAADcfB4OAAAAAAAAAAAAAAAAAAAASJAAAAwAAAAAAASAEgAAAAAGgAAAAAAD0SwgAMCCAAABAAIAACQCAAAAAAAAAAAAAAAAAARAAIAAAAiAAAFAAAGAAHA4PwPgAAAAAAAAACAAAYAADAAAAAAAAAAAA==

>  <PUBCHEM_IUPAC_OPENEYE_NAME>
[1-[(2S,3aR,5aS,8R,9aR)-2-ethoxy-3a,5a-dimethyl-3,5,6,7,8,9-hexahydro-2H-furo[2,3-i]isobenzofuran-8-yl]-1-methyl-ethyl] acetate

>  <PUBCHEM_IUPAC_CAS_NAME>
acetic acid 2-[(2S,3aR,5aS,8R,9aR)-2-ethoxy-3a,5a-dimethyl-3,5,6,7,8,9-hexahydro-2H-furo[2,3-i]isobenzofuran-8-yl]propan-2-yl ester

>  <PUBCHEM_IUPAC_NAME>
2-[(2S,3aR,5aS,8R,9aR)-2-ethoxy-3a,5a-dimethyl-3,5,6,7,8,9-hexahydro-2H-furo[2,3-i][2]benzofuran-8-yl]propan-2-yl acetate

>  <PUBCHEM_IUPAC_SYSTEMATIC_NAME>
2-[(2S,3aR,5aS,8R,9aR)-2-ethoxy-3a,5a-dimethyl-3,5,6,7,8,9-hexahydro-2H-furo[2,3-i][2]benzofuran-8-yl]propan-2-yl ethanoate

>  <PUBCHEM_IUPAC_TRADITIONAL_NAME>
acetic acid [1-[(2S,3aR,5aS,8R,9aR)-2-ethoxy-3a,5a-dimethyl-3,5,6,7,8,9-hexahydro-2H-fur[2,3-i]isobenzofuran-8-yl]-1-methyl-ethyl] ester

>  <PUBCHEM_IUPAC_INCHI>
InChI=1S/C19H32O5/c1-7-21-15-11-18(6)19(24-15)10-14(16(3,4)23-13(2)20)8-9-17(19,5)12-22-18/h14-15H,7-12H2,1-6H3/t14-,15+,17+,18-,19-/m1/s1

>  <PUBCHEM_IUPAC_INCHIKEY>
WZOSFKXVOJBVII-UWAKZDDMSA-N

>  <PUBCHEM_XLOGP3_AA>
2.6

>  <PUBCHEM_EXACT_MASS>
340.225

>  <PUBCHEM_MOLECULAR_FORMULA>
C19H32O5

>  <PUBCHEM_MOLECULAR_WEIGHT>
340.46

>  <PUBCHEM_OPENEYE_CAN_SMILES>
CCOC1CC2(C3(O1)CC(CCC3(CO2)C)C(C)(C)OC(=O)C)C

>  <PUBCHEM_OPENEYE_ISO_SMILES>
CCO[C@@H]1C[C@@]2([C@@]3(O1)C[C@@H](CC[C@]3(CO2)C)C(C)(C)OC(=O)C)C

>  <PUBCHEM_CACTVS_TPSA>
54

>  <PUBCHEM_MONOISOTOPIC_WEIGHT>
340.225

>  <PUBCHEM_TOTAL_CHARGE>
0

>  <PUBCHEM_HEAVY_ATOM_COUNT>
24

>  <PUBCHEM_ATOM_DEF_STEREO_COUNT>
5

>  <PUBCHEM_ATOM_UDEF_STEREO_COUNT>
0

>  <PUBCHEM_BOND_DEF_STEREO_COUNT>
0

>  <PUBCHEM_BOND_UDEF_STEREO_COUNT>
0

>  <PUBCHEM_ISOTOPIC_ATOM_COUNT>
0

>  <PUBCHEM_COMPONENT_COUNT>
1

>  <PUBCHEM_CACTVS_TAUTO_COUNT>
1

>  <PUBCHEM_COORDINATE_TYPE>
1
5
255

>  <PUBCHEM_BONDANNOTATIONS>
6  1  5
11  29  6
15  3  6
7  16  5
8  17  6

$$$$
