23266570
 OpenBabel06101807152D

 30 32  0  0  0  0  0  0  0  0999 V2000
    2.0000    1.1121    0.0000 Cl  0  0  0  0  0  0  0  0  0  0  0  0
    5.4920   -0.9226    0.0000 O   0  0  0  0  0  0  0  0  0  0  0  0
    3.7320    2.1121    0.0000 O   0  0  0  0  0  0  0  0  0  0  0  0
    5.4804    2.1467    0.0000 O   0  0  0  0  0  0  0  0  0  0  0  0
    2.0000   -0.8879    0.0000 O   0  0  0  0  0  0  0  0  0  0  0  0
    9.8544   -2.4221    0.0000 O   0  0  0  0  0  0  0  0  0  0  0  0
    4.5981    0.6121    0.0000 C   0  0  0  0  0  0  0  0  0  0  0  0
    4.5981   -0.3879    0.0000 C   0  0  0  0  0  0  0  0  0  0  0  0
    6.3981   -0.4087    0.0000 C   0  0  0  0  0  0  0  0  0  0  0  0
    5.4920    1.1467    0.0000 C   0  0  0  0  0  0  0  0  0  0  0  0
    7.2622   -0.9121    0.0000 C   0  0  0  0  0  0  0  0  0  0  0  0
    3.7320    1.1121    0.0000 C   0  0  0  0  0  0  0  0  0  0  0  0
    6.3981    0.6329    0.0000 C   0  0  0  0  0  0  0  0  0  0  0  0
    3.7320   -0.8879    0.0000 C   0  0  0  0  0  0  0  0  0  0  0  0
    2.8660   -0.3879    0.0000 C   0  0  0  0  0  0  0  0  0  0  0  0
    2.8660    0.6121    0.0000 C   0  0  0  0  0  0  0  0  0  0  0  0
    7.2583   -1.9121    0.0000 C   0  0  0  0  0  0  0  0  0  0  0  0
    8.1301   -0.4154    0.0000 C   0  0  0  0  0  0  0  0  0  0  0  0
    8.1224   -2.4154    0.0000 C   0  0  0  0  0  0  0  0  0  0  0  0
    8.9942   -0.9188    0.0000 C   0  0  0  0  0  0  0  0  0  0  0  0
    8.9904   -1.9187    0.0000 C   0  0  0  0  0  0  0  0  0  0  0  0
    6.9338    0.9450    0.0000 H   0  0  0  0  0  0  0  0  0  0  0  0
    3.7320   -1.5079    0.0000 H   0  0  0  0  0  0  0  0  0  0  0  0
    6.7202   -2.2200    0.0000 H   0  0  0  0  0  0  0  0  0  0  0  0
    8.1325    0.2046    0.0000 H   0  0  0  0  0  0  0  0  0  0  0  0
    8.1200   -3.0354    0.0000 H   0  0  0  0  0  0  0  0  0  0  0  0
    9.5323   -0.6108    0.0000 H   0  0  0  0  0  0  0  0  0  0  0  0
    3.1951    2.4221    0.0000 H   0  0  0  0  0  0  0  0  0  0  0  0
    2.0000   -1.5079    0.0000 H   0  0  0  0  0  0  0  0  0  0  0  0
   10.3926   -2.1142    0.0000 H   0  0  0  0  0  0  0  0  0  0  0  0
  1 16  1  0  0  0  0
  2  8  1  0  0  0  0
  2  9  1  0  0  0  0
  3 12  1  0  0  0  0
  3 28  1  0  0  0  0
  4 10  2  0  0  0  0
  5 15  1  0  0  0  0
  5 29  1  0  0  0  0
  6 21  1  0  0  0  0
  6 30  1  0  0  0  0
  7  8  2  0  0  0  0
  7 10  1  0  0  0  0
  7 12  1  0  0  0  0
  8 14  1  0  0  0  0
  9 11  1  0  0  0  0
  9 13  2  0  0  0  0
 10 13  1  0  0  0  0
 11 17  2  0  0  0  0
 11 18  1  0  0  0  0
 12 16  2  0  0  0  0
 13 22  1  0  0  0  0
 14 15  2  0  0  0  0
 14 23  1  0  0  0  0
 15 16  1  0  0  0  0
 17 19  1  0  0  0  0
 17 24  1  0  0  0  0
 18 20  2  0  0  0  0
 18 25  1  0  0  0  0
 19 21  2  0  0  0  0
 19 26  1  0  0  0  0
 20 21  1  0  0  0  0
 20 27  1  0  0  0  0
M  END
>  <PUBCHEM_COMPOUND_CID>
23266570

>  <PUBCHEM_COMPOUND_CANONICALIZED>
1

>  <PUBCHEM_CACTVS_COMPLEXITY>
443

>  <PUBCHEM_CACTVS_HBOND_ACCEPTOR>
5

>  <PUBCHEM_CACTVS_HBOND_DONOR>
3

>  <PUBCHEM_CACTVS_ROTATABLE_BOND>
1

>  <PUBCHEM_CACTVS_SUBSKEYS>
AAADccBwOAAEAAAAAAAAAAAAAAAAAAAAAAAwYIAAAAAAAACBQAAAGgIACAAADAaAmCAwBoAABgCIAqBSAAACCAAkJEAIiAEGC8gMJzaHNxqCeWCl4BUIuQeI7KzOICAAKAAICABAQABQABAQAAAAAAAAAA==

>  <PUBCHEM_IUPAC_OPENEYE_NAME>
6-chloro-5,7-dihydroxy-2-(4-hydroxyphenyl)chromen-4-one

>  <PUBCHEM_IUPAC_CAS_NAME>
6-chloro-5,7-dihydroxy-2-(4-hydroxyphenyl)-1-benzopyran-4-one

>  <PUBCHEM_IUPAC_NAME>
6-chloro-5,7-dihydroxy-2-(4-hydroxyphenyl)chromen-4-one

>  <PUBCHEM_IUPAC_SYSTEMATIC_NAME>
6-chloranyl-2-(4-hydroxyphenyl)-5,7-bis(oxidanyl)chromen-4-one

>  <PUBCHEM_IUPAC_TRADITIONAL_NAME>
6-chloro-5,7-dihydroxy-2-(4-hydroxyphenyl)chromone

>  <PUBCHEM_IUPAC_INCHI>
InChI=1S/C15H9ClO5/c16-14-10(19)6-12-13(15(14)20)9(18)5-11(21-12)7-1-3-8(17)4-2-7/h1-6,17,19-20H

>  <PUBCHEM_IUPAC_INCHIKEY>
FPZXJLZOPYXNPR-UHFFFAOYSA-N

>  <PUBCHEM_XLOGP3>
2.4

>  <PUBCHEM_EXACT_MASS>
304.014

>  <PUBCHEM_MOLECULAR_FORMULA>
C15H9ClO5

>  <PUBCHEM_MOLECULAR_WEIGHT>
304.682

>  <PUBCHEM_OPENEYE_CAN_SMILES>
C1=CC(=CC=C1C2=CC(=O)C3=C(C(=C(C=C3O2)O)Cl)O)O

>  <PUBCHEM_OPENEYE_ISO_SMILES>
C1=CC(=CC=C1C2=CC(=O)C3=C(C(=C(C=C3O2)O)Cl)O)O

>  <PUBCHEM_CACTVS_TPSA>
87

>  <PUBCHEM_MONOISOTOPIC_WEIGHT>
304.014

>  <PUBCHEM_TOTAL_CHARGE>
0

>  <PUBCHEM_HEAVY_ATOM_COUNT>
21

>  <PUBCHEM_ATOM_DEF_STEREO_COUNT>
0

>  <PUBCHEM_ATOM_UDEF_STEREO_COUNT>
0

>  <PUBCHEM_BOND_DEF_STEREO_COUNT>
0

>  <PUBCHEM_BOND_UDEF_STEREO_COUNT>
0

>  <PUBCHEM_ISOTOPIC_ATOM_COUNT>
0

>  <PUBCHEM_COMPONENT_COUNT>
1

>  <PUBCHEM_CACTVS_TAUTO_COUNT>
57

>  <PUBCHEM_COORDINATE_TYPE>
1
5
255

>  <PUBCHEM_BONDANNOTATIONS>
10  13  8
11  17  8
11  18  8
12  16  8
14  15  8
15  16  8
17  19  8
18  20  8
19  21  8
2  8  8
2  9  8
20  21  8
7  10  8
7  12  8
7  8  8
8  14  8
9  13  8

$$$$
