23646732
 OpenBabel06101807152D

 35 37  0  0  0  0  0  0  0  0999 V2000
   10.5309   -1.7526    0.0000 Cl  0  0  0  0  0  0  0  0  0  0  0  0
    8.5309   -1.7526    0.0000 O   0  0  0  0  0  0  0  0  0  0  0  0
    6.9473   -0.8252    0.0000 N   0  0  0  0  0  0  0  0  0  0  0  0
    2.5369    0.4795    0.0000 N   0  0  0  0  0  0  0  0  0  0  0  0
    3.4030    1.9795    0.0000 N   0  0  0  0  0  0  0  0  0  0  0  0
    7.5309   -0.0205    0.0000 C   0  0  0  0  0  0  0  0  0  0  0  0
    6.0010    0.4795    0.0000 C   0  0  0  0  0  0  0  0  0  0  0  0
    6.0010   -0.5205    0.0000 C   0  0  0  0  0  0  0  0  0  0  0  0
    6.9473    0.7842    0.0000 C   0  0  0  0  0  0  0  0  0  0  0  0
    8.5309   -0.0205    0.0000 C   0  0  0  0  0  0  0  0  0  0  0  0
    5.1350    0.9795    0.0000 C   0  0  0  0  0  0  0  0  0  0  0  0
    5.1350   -1.0205    0.0000 C   0  0  0  0  0  0  0  0  0  0  0  0
    9.0309    0.8455    0.0000 C   0  0  0  0  0  0  0  0  0  0  0  0
    4.2690    0.4795    0.0000 C   0  0  0  0  0  0  0  0  0  0  0  0
    9.0309   -0.8865    0.0000 C   0  0  0  0  0  0  0  0  0  0  0  0
    4.2690   -0.5205    0.0000 C   0  0  0  0  0  0  0  0  0  0  0  0
   10.0309    0.8455    0.0000 C   0  0  0  0  0  0  0  0  0  0  0  0
   10.0309   -0.8865    0.0000 C   0  0  0  0  0  0  0  0  0  0  0  0
   10.5309   -0.0205    0.0000 C   0  0  0  0  0  0  0  0  0  0  0  0
   10.5309    1.7115    0.0000 C   0  0  0  0  0  0  0  0  0  0  0  0
    3.4030    0.9795    0.0000 C   0  0  0  0  0  0  0  0  0  0  0  0
    7.1399    1.3736    0.0000 H   0  0  0  0  0  0  0  0  0  0  0  0
    7.1399   -1.4146    0.0000 H   0  0  0  0  0  0  0  0  0  0  0  0
    5.1350    1.5995    0.0000 H   0  0  0  0  0  0  0  0  0  0  0  0
    5.1350   -1.6405    0.0000 H   0  0  0  0  0  0  0  0  0  0  0  0
    8.7209    1.3824    0.0000 H   0  0  0  0  0  0  0  0  0  0  0  0
    3.7320   -0.8305    0.0000 H   0  0  0  0  0  0  0  0  0  0  0  0
   11.1509   -0.0205    0.0000 H   0  0  0  0  0  0  0  0  0  0  0  0
   11.0678    1.4015    0.0000 H   0  0  0  0  0  0  0  0  0  0  0  0
   10.8409    2.2485    0.0000 H   0  0  0  0  0  0  0  0  0  0  0  0
    9.9939    2.0215    0.0000 H   0  0  0  0  0  0  0  0  0  0  0  0
    8.8409   -2.2895    0.0000 H   0  0  0  0  0  0  0  0  0  0  0  0
    2.0000    0.7895    0.0000 H   0  0  0  0  0  0  0  0  0  0  0  0
    2.5369   -0.1405    0.0000 H   0  0  0  0  0  0  0  0  0  0  0  0
    2.8660    2.2895    0.0000 H   0  0  0  0  0  0  0  0  0  0  0  0
  1 18  1  0  0  0  0
  2 15  1  0  0  0  0
  2 32  1  0  0  0  0
  3  6  1  0  0  0  0
  3  8  1  0  0  0  0
  3 23  1  0  0  0  0
  4 21  1  0  0  0  0
  4 33  1  0  0  0  0
  4 34  1  0  0  0  0
  5 21  2  0  0  0  0
  5 35  1  0  0  0  0
  6  9  2  0  0  0  0
  6 10  1  0  0  0  0
  7  8  2  0  0  0  0
  7  9  1  0  0  0  0
  7 11  1  0  0  0  0
  8 12  1  0  0  0  0
  9 22  1  0  0  0  0
 10 13  1  0  0  0  0
 10 15  2  0  0  0  0
 11 14  2  0  0  0  0
 11 24  1  0  0  0  0
 12 16  2  0  0  0  0
 12 25  1  0  0  0  0
 13 17  2  0  0  0  0
 13 26  1  0  0  0  0
 14 16  1  0  0  0  0
 14 21  1  0  0  0  0
 15 18  1  0  0  0  0
 16 27  1  0  0  0  0
 17 19  1  0  0  0  0
 17 20  1  0  0  0  0
 18 19  2  0  0  0  0
 19 28  1  0  0  0  0
 20 29  1  0  0  0  0
 20 30  1  0  0  0  0
 20 31  1  0  0  0  0
M  END
>  <PUBCHEM_COMPOUND_CID>
23646732

>  <PUBCHEM_COMPOUND_CANONICALIZED>
1

>  <PUBCHEM_CACTVS_COMPLEXITY>
405

>  <PUBCHEM_CACTVS_HBOND_ACCEPTOR>
2

>  <PUBCHEM_CACTVS_HBOND_DONOR>
4

>  <PUBCHEM_CACTVS_ROTATABLE_BOND>
2

>  <PUBCHEM_CACTVS_SUBSKEYS>
AAADccB7IAAEAAAAAAAAAAAAAAAAAWAAAAAwYAAAAAAAAFgB9AAAHgIQCAAADA6BniAzxvLJkgCgAyZiZACCgCChJ2AImSA0b5gIJuLDk5OEcAhm0BHI2AeQwPAOKAACIAAKCABQAARAABQQAAAAAAAAAA==

>  <PUBCHEM_IUPAC_OPENEYE_NAME>
2-(3-chloro-2-hydroxy-5-methyl-phenyl)-1H-indole-5-carboxamidine

>  <PUBCHEM_IUPAC_CAS_NAME>
2-(3-chloro-2-hydroxy-5-methylphenyl)-1H-indole-5-carboximidamide

>  <PUBCHEM_IUPAC_NAME>
2-(3-chloro-2-hydroxy-5-methylphenyl)-1H-indole-5-carboximidamide

>  <PUBCHEM_IUPAC_SYSTEMATIC_NAME>
2-(3-chloranyl-5-methyl-2-oxidanyl-phenyl)-1H-indole-5-carboximidamide

>  <PUBCHEM_IUPAC_TRADITIONAL_NAME>
2-(3-chloro-2-hydroxy-5-methyl-phenyl)-1H-indole-5-carboxamidine

>  <PUBCHEM_IUPAC_INCHI>
InChI=1S/C16H14ClN3O/c1-8-4-11(15(21)12(17)5-8)14-7-10-6-9(16(18)19)2-3-13(10)20-14/h2-7,20-21H,1H3,(H3,18,19)

>  <PUBCHEM_IUPAC_INCHIKEY>
DJPZZIPELMVWNS-UHFFFAOYSA-N

>  <PUBCHEM_XLOGP3_AA>
3.3

>  <PUBCHEM_EXACT_MASS>
299.083

>  <PUBCHEM_MOLECULAR_FORMULA>
C16H14ClN3O

>  <PUBCHEM_MOLECULAR_WEIGHT>
299.758

>  <PUBCHEM_OPENEYE_CAN_SMILES>
CC1=CC(=C(C(=C1)C2=CC3=C(N2)C=CC(=C3)C(=N)N)O)Cl

>  <PUBCHEM_OPENEYE_ISO_SMILES>
CC1=CC(=C(C(=C1)C2=CC3=C(N2)C=CC(=C3)C(=N)N)O)Cl

>  <PUBCHEM_CACTVS_TPSA>
85.9

>  <PUBCHEM_MONOISOTOPIC_WEIGHT>
299.083

>  <PUBCHEM_TOTAL_CHARGE>
0

>  <PUBCHEM_HEAVY_ATOM_COUNT>
21

>  <PUBCHEM_ATOM_DEF_STEREO_COUNT>
0

>  <PUBCHEM_ATOM_UDEF_STEREO_COUNT>
0

>  <PUBCHEM_BOND_DEF_STEREO_COUNT>
0

>  <PUBCHEM_BOND_UDEF_STEREO_COUNT>
0

>  <PUBCHEM_ISOTOPIC_ATOM_COUNT>
0

>  <PUBCHEM_COMPONENT_COUNT>
1

>  <PUBCHEM_CACTVS_TAUTO_COUNT>
20

>  <PUBCHEM_COORDINATE_TYPE>
1
5
255

>  <PUBCHEM_BONDANNOTATIONS>
10  13  8
10  15  8
11  14  8
12  16  8
13  17  8
14  16  8
15  18  8
17  19  8
18  19  8
3  6  8
3  8  8
6  9  8
7  11  8
7  8  8
7  9  8
8  12  8

$$$$
