23681127
 OpenBabel06101807152D

 16 14  0  0  1  0  0  0  0  0999 V2000
    2.0000    0.2500    0.0000 K   0  3  0  0  0 15  0  0  0  0  0  0
    4.5981   -1.2500    0.0000 O   0  0  0  0  0  0  0  0  0  0  0  0
    5.4641    1.2500    0.0000 O   0  0  0  0  0  0  0  0  0  0  0  0
    2.8660   -0.2500    0.0000 O   0  5  0  0  0  0  0  0  0  0  0  0
    7.1962    0.2500    0.0000 O   0  0  0  0  0  0  0  0  0  0  0  0
    3.7320    1.2500    0.0000 O   0  0  0  0  0  0  0  0  0  0  0  0
    6.3301   -1.2500    0.0000 O   0  0  0  0  0  0  0  0  0  0  0  0
    4.5981   -0.2500    0.0000 C   0  0  2  0  0  0  0  0  0  0  0  0
    5.4641    0.2500    0.0000 C   0  0  2  0  0  0  0  0  0  0  0  0
    3.7320    0.2500    0.0000 C   0  0  0  0  0  0  0  0  0  0  0  0
    6.3301   -0.2500    0.0000 C   0  0  0  0  0  0  0  0  0  0  0  0
    5.1350   -0.5600    0.0000 H   0  0  0  0  0  0  0  0  0  0  0  0
    6.0010    0.5600    0.0000 H   0  0  0  0  0  0  0  0  0  0  0  0
    4.0611   -1.5600    0.0000 H   0  0  0  0  0  0  0  0  0  0  0  0
    6.0010    1.5600    0.0000 H   0  0  0  0  0  0  0  0  0  0  0  0
    7.7331   -0.0600    0.0000 H   0  0  0  0  0  0  0  0  0  0  0  0
  2 14  1  0  0  0  0
  3 15  1  0  0  0  0
  4 10  1  0  0  0  0
  5 11  1  0  0  0  0
  5 16  1  0  0  0  0
  6 10  2  0  0  0  0
  7 11  2  0  0  0  0
  8  2  1  0  0  0  0
  8  9  1  0  0  0  0
  8 10  1  0  0  0  0
  8 12  1  6  0  0  0
  9  3  1  0  0  0  0
  9 11  1  0  0  0  0
  9 13  1  6  0  0  0
M  CHG  2   1   1   4  -1
M  END
>  <PUBCHEM_COMPOUND_CID>
23681127

>  <PUBCHEM_COMPOUND_CANONICALIZED>
1

>  <PUBCHEM_CACTVS_COMPLEXITY>
157

>  <PUBCHEM_CACTVS_HBOND_ACCEPTOR>
6

>  <PUBCHEM_CACTVS_HBOND_DONOR>
3

>  <PUBCHEM_CACTVS_ROTATABLE_BOND>
3

>  <PUBCHEM_CACTVS_SUBSKEYS>
AAADcYBgOAAAQAAAAAAAAAAAAAAAAAAAAAAAAAAAAAAAAAAAAAAAGgAACAAACBSggAIACAAAAgAIAACQCAIAAAAAAAAAAAFAAAABEBQAAAAAQAAFIAABAABDAAAAAAAAAAAAAAAAAAAAAAAAAAAAAAAAAA==

>  <PUBCHEM_IUPAC_OPENEYE_NAME>
potassium;(2R,3R)-2,3,4-trihydroxy-4-oxo-butanoate

>  <PUBCHEM_IUPAC_CAS_NAME>
potassium;(2R,3R)-2,3,4-trihydroxy-4-oxobutanoate

>  <PUBCHEM_IUPAC_NAME>
potassium;(2R,3R)-2,3,4-trihydroxy-4-oxobutanoate

>  <PUBCHEM_IUPAC_SYSTEMATIC_NAME>
potassium;(2R,3R)-2,3,4-tris(oxidanyl)-4-oxidanylidene-butanoate

>  <PUBCHEM_IUPAC_TRADITIONAL_NAME>
potassium;(2R,3R)-2,3,4-trihydroxy-4-keto-butyrate

>  <PUBCHEM_IUPAC_INCHI>
InChI=1S/C4H6O6.K/c5-1(3(7)8)2(6)4(9)10;/h1-2,5-6H,(H,7,8)(H,9,10);/q;+1/p-1/t1-,2-;/m1./s1

>  <PUBCHEM_IUPAC_INCHIKEY>
KYKNRZGSIGMXFH-ZVGUSBNCSA-M

>  <PUBCHEM_EXACT_MASS>
187.972

>  <PUBCHEM_MOLECULAR_FORMULA>
C4H5KO6

>  <PUBCHEM_MOLECULAR_WEIGHT>
188.176

>  <PUBCHEM_OPENEYE_CAN_SMILES>
C(C(C(=O)[O-])O)(C(=O)O)O.[K+]

>  <PUBCHEM_OPENEYE_ISO_SMILES>
[C@@H]([C@H](C(=O)[O-])O)(C(=O)O)O.[K+]

>  <PUBCHEM_CACTVS_TPSA>
118

>  <PUBCHEM_MONOISOTOPIC_WEIGHT>
187.972

>  <PUBCHEM_TOTAL_CHARGE>
0

>  <PUBCHEM_HEAVY_ATOM_COUNT>
11

>  <PUBCHEM_ATOM_DEF_STEREO_COUNT>
2

>  <PUBCHEM_ATOM_UDEF_STEREO_COUNT>
0

>  <PUBCHEM_BOND_DEF_STEREO_COUNT>
0

>  <PUBCHEM_BOND_UDEF_STEREO_COUNT>
0

>  <PUBCHEM_ISOTOPIC_ATOM_COUNT>
0

>  <PUBCHEM_COMPONENT_COUNT>
2

>  <PUBCHEM_CACTVS_TAUTO_COUNT>
1

>  <PUBCHEM_NONSTANDARDBOND>
1  4  7

>  <PUBCHEM_COORDINATE_TYPE>
1
5
255

>  <PUBCHEM_BONDANNOTATIONS>
8  2  5
9  3  5

$$$$
