23748687
 OpenBabel06101807152D

 63 67  0  0  1  0  0  0  0  0999 V2000
    4.9889    4.1888    0.0000 Cl  0  0  0  0  0  0  0  0  0  0  0  0
    4.6783    1.6288    0.0000 S   0  0  0  0  0  0  0  0  0  0  0  0
    7.7619    3.2996    0.0000 P   0  0  0  0  0  0  0  0  0  0  0  0
    8.6279    3.7996    0.0000 O   0  0  0  0  0  0  0  0  0  0  0  0
    7.2619    4.1656    0.0000 O   0  0  0  0  0  0  0  0  0  0  0  0
    6.8958    2.7996    0.0000 O   0  0  0  0  0  0  0  0  0  0  0  0
    9.2619   -4.4947    0.0000 O   0  0  0  0  0  0  0  0  0  0  0  0
    6.7619    1.5675    0.0000 N   0  0  0  0  0  0  0  0  0  0  0  0
    8.2619    2.4335    0.0000 N   0  0  0  0  0  0  0  0  0  0  0  0
    5.3958    0.2016    0.0000 C   0  0  0  0  0  0  0  0  0  0  0  0
    4.8958   -0.6645    0.0000 C   0  0  0  0  0  0  0  0  0  0  0  0
    4.3958    0.2015    0.0000 C   0  0  0  0  0  0  0  0  0  0  0  0
    6.2619    0.7015    0.0000 C   0  0  3  0  0  0  0  0  0  0  0  0
    6.7619   -0.1645    0.0000 C   0  0  0  0  0  0  0  0  0  0  0  0
    7.7619    1.5675    0.0000 C   0  0  0  0  0  0  0  0  0  0  0  0
    7.7619   -0.1645    0.0000 C   0  0  0  0  0  0  0  0  0  0  0  0
    6.2619    2.4335    0.0000 C   0  0  0  0  0  0  0  0  0  0  0  0
    8.2619    0.7015    0.0000 C   0  0  0  0  0  0  0  0  0  0  0  0
    8.2619   -1.0306    0.0000 C   0  0  0  0  0  0  0  0  0  0  0  0
    5.2619    2.4335    0.0000 C   0  0  0  0  0  0  0  0  0  0  0  0
    4.6783    3.2383    0.0000 C   0  0  0  0  0  0  0  0  0  0  0  0
    9.2619   -1.0306    0.0000 C   0  0  0  0  0  0  0  0  0  0  0  0
    7.7619   -1.8966    0.0000 C   0  0  0  0  0  0  0  0  0  0  0  0
    3.7320    2.9335    0.0000 C   0  0  0  0  0  0  0  0  0  0  0  0
    3.7320    1.9335    0.0000 C   0  0  0  0  0  0  0  0  0  0  0  0
    9.7619   -1.8966    0.0000 C   0  0  0  0  0  0  0  0  0  0  0  0
    8.2619   -2.7626    0.0000 C   0  0  0  0  0  0  0  0  0  0  0  0
    9.2619   -2.7626    0.0000 C   0  0  0  0  0  0  0  0  0  0  0  0
    2.8660    3.4335    0.0000 C   0  0  0  0  0  0  0  0  0  0  0  0
    2.8660    1.4335    0.0000 C   0  0  0  0  0  0  0  0  0  0  0  0
    9.7619   -3.6286    0.0000 C   0  0  0  0  0  0  0  0  0  0  0  0
    2.0000    2.9335    0.0000 C   0  0  0  0  0  0  0  0  0  0  0  0
    2.0000    1.9335    0.0000 C   0  0  0  0  0  0  0  0  0  0  0  0
    7.7619    5.0316    0.0000 C   0  0  0  0  0  0  0  0  0  0  0  0
    9.4939    3.2996    0.0000 C   0  0  0  0  0  0  0  0  0  0  0  0
    5.2353    0.8004    0.0000 H   0  0  0  0  0  0  0  0  0  0  0  0
    4.4208   -1.0630    0.0000 H   0  0  0  0  0  0  0  0  0  0  0  0
    5.3708   -1.0630    0.0000 H   0  0  0  0  0  0  0  0  0  0  0  0
    4.2882    0.8121    0.0000 H   0  0  0  0  0  0  0  0  0  0  0  0
    3.8132   -0.0106    0.0000 H   0  0  0  0  0  0  0  0  0  0  0  0
    5.8235    1.1399    0.0000 H   0  0  0  0  0  0  0  0  0  0  0  0
    6.4519   -0.7015    0.0000 H   0  0  0  0  0  0  0  0  0  0  0  0
    6.8445    2.6456    0.0000 H   0  0  0  0  0  0  0  0  0  0  0  0
    6.1542    3.0441    0.0000 H   0  0  0  0  0  0  0  0  0  0  0  0
    8.7368    0.3030    0.0000 H   0  0  0  0  0  0  0  0  0  0  0  0
    8.7368    1.1000    0.0000 H   0  0  0  0  0  0  0  0  0  0  0  0
    9.5719   -0.4936    0.0000 H   0  0  0  0  0  0  0  0  0  0  0  0
    7.1419   -1.8966    0.0000 H   0  0  0  0  0  0  0  0  0  0  0  0
   10.3819   -1.8966    0.0000 H   0  0  0  0  0  0  0  0  0  0  0  0
    7.9519   -3.2996    0.0000 H   0  0  0  0  0  0  0  0  0  0  0  0
    2.8660    4.0535    0.0000 H   0  0  0  0  0  0  0  0  0  0  0  0
    2.8660    0.8135    0.0000 H   0  0  0  0  0  0  0  0  0  0  0  0
   10.2368   -4.0272    0.0000 H   0  0  0  0  0  0  0  0  0  0  0  0
   10.2368   -3.2301    0.0000 H   0  0  0  0  0  0  0  0  0  0  0  0
    1.4631    3.2435    0.0000 H   0  0  0  0  0  0  0  0  0  0  0  0
    1.4631    1.6235    0.0000 H   0  0  0  0  0  0  0  0  0  0  0  0
    8.2988    4.7216    0.0000 H   0  0  0  0  0  0  0  0  0  0  0  0
    8.0719    5.5685    0.0000 H   0  0  0  0  0  0  0  0  0  0  0  0
    7.2249    5.3416    0.0000 H   0  0  0  0  0  0  0  0  0  0  0  0
    9.1839    2.7626    0.0000 H   0  0  0  0  0  0  0  0  0  0  0  0
   10.0309    2.9896    0.0000 H   0  0  0  0  0  0  0  0  0  0  0  0
    9.8039    3.8365    0.0000 H   0  0  0  0  0  0  0  0  0  0  0  0
    9.5719   -5.0316    0.0000 H   0  0  0  0  0  0  0  0  0  0  0  0
  1 21  1  0  0  0  0
  2 20  1  0  0  0  0
  2 25  1  0  0  0  0
  3  4  1  0  0  0  0
  3  5  1  0  0  0  0
  3  6  2  0  0  0  0
  3  9  1  0  0  0  0
  4 35  1  0  0  0  0
  5 34  1  0  0  0  0
  7 31  1  0  0  0  0
  7 63  1  0  0  0  0
  8 13  1  0  0  0  0
  8 15  1  0  0  0  0
  8 17  1  0  0  0  0
  9 15  2  0  0  0  0
 10 11  1  0  0  0  0
 10 12  1  0  0  0  0
 10 13  1  0  0  0  0
 10 36  1  0  0  0  0
 11 12  1  0  0  0  0
 11 37  1  0  0  0  0
 11 38  1  0  0  0  0
 12 39  1  0  0  0  0
 12 40  1  0  0  0  0
 13 14  1  0  0  0  0
 13 41  1  0  0  0  0
 14 16  2  0  0  0  0
 14 42  1  0  0  0  0
 15 18  1  0  0  0  0
 16 18  1  0  0  0  0
 16 19  1  0  0  0  0
 17 20  1  0  0  0  0
 17 43  1  0  0  0  0
 17 44  1  0  0  0  0
 18 45  1  0  0  0  0
 18 46  1  0  0  0  0
 19 22  2  0  0  0  0
 19 23  1  0  0  0  0
 20 21  2  0  0  0  0
 21 24  1  0  0  0  0
 22 26  1  0  0  0  0
 22 47  1  0  0  0  0
 23 27  2  0  0  0  0
 23 48  1  0  0  0  0
 24 25  1  0  0  0  0
 24 29  2  0  0  0  0
 25 30  2  0  0  0  0
 26 28  2  0  0  0  0
 26 49  1  0  0  0  0
 27 28  1  0  0  0  0
 27 50  1  0  0  0  0
 28 31  1  0  0  0  0
 29 32  1  0  0  0  0
 29 51  1  0  0  0  0
 30 33  1  0  0  0  0
 30 52  1  0  0  0  0
 31 53  1  0  0  0  0
 31 54  1  0  0  0  0
 32 33  2  0  0  0  0
 32 55  1  0  0  0  0
 33 56  1  0  0  0  0
 34 57  1  0  0  0  0
 34 58  1  0  0  0  0
 34 59  1  0  0  0  0
 35 60  1  0  0  0  0
 35 61  1  0  0  0  0
 35 62  1  0  0  0  0
M  END
>  <PUBCHEM_COMPOUND_CID>
23748687

>  <PUBCHEM_COMPOUND_CANONICALIZED>
1

>  <PUBCHEM_CACTVS_COMPLEXITY>
852

>  <PUBCHEM_CACTVS_HBOND_ACCEPTOR>
6

>  <PUBCHEM_CACTVS_HBOND_DONOR>
1

>  <PUBCHEM_CACTVS_ROTATABLE_BOND>
8

>  <PUBCHEM_CACTVS_SUBSKEYS>
AAADceB7OAJEAAAAAAAAAAAAGAAAASAAAAAwYIAAAAAAAEgB9AAAHgYAiCAADSrh2CYzAcMAAxikQiJiIICDAIAgDBBJiBg4DogINiKhmxGEcAhkwAGomAeQwPAOQAAAAAAEAACAAAAAAAgAAAAAAAAAAA==

>  <PUBCHEM_IUPAC_OPENEYE_NAME>
[4-[(6Z)-1-[(3-chlorobenzothiophen-2-yl)methyl]-2-cyclopropyl-6-dimethoxyphosphorylimino-2,5-dihydropyridin-4-yl]phenyl]methanol

>  <PUBCHEM_IUPAC_CAS_NAME>
[4-[(6Z)-1-[(3-chloro-1-benzothiophen-2-yl)methyl]-2-cyclopropyl-6-dimethoxyphosphorylimino-2,5-dihydropyridin-4-yl]phenyl]methanol

>  <PUBCHEM_IUPAC_NAME>
[4-[(6Z)-1-[(3-chloro-1-benzothiophen-2-yl)methyl]-2-cyclopropyl-6-dimethoxyphosphorylimino-2,5-dihydropyridin-4-yl]phenyl]methanol

>  <PUBCHEM_IUPAC_SYSTEMATIC_NAME>
[4-[(6Z)-1-[(3-chloranyl-1-benzothiophen-2-yl)methyl]-2-cyclopropyl-6-dimethoxyphosphorylimino-2,5-dihydropyridin-4-yl]phenyl]methanol

>  <PUBCHEM_IUPAC_TRADITIONAL_NAME>
[4-[(6Z)-1-[(3-chlorobenzothiophen-2-yl)methyl]-2-cyclopropyl-6-dimethoxyphosphorylimino-2,5-dihydropyridin-4-yl]phenyl]methanol

>  <PUBCHEM_IUPAC_INCHI>
InChI=1S/C26H28ClN2O4PS/c1-32-34(31,33-2)28-25-14-20(18-9-7-17(16-30)8-10-18)13-22(19-11-12-19)29(25)15-24-26(27)21-5-3-4-6-23(21)35-24/h3-10,13,19,22,30H,11-12,14-16H2,1-2H3/b28-25-

>  <PUBCHEM_IUPAC_INCHIKEY>
HEHHKQUXGSGEMP-FVDSYPCUSA-N

>  <PUBCHEM_XLOGP3_AA>
4

>  <PUBCHEM_EXACT_MASS>
530.12

>  <PUBCHEM_MOLECULAR_FORMULA>
C26H28ClN2O4PS

>  <PUBCHEM_MOLECULAR_WEIGHT>
531.004

>  <PUBCHEM_OPENEYE_CAN_SMILES>
COP(=O)(N=C1CC(=CC(N1CC2=C(C3=CC=CC=C3S2)Cl)C4CC4)C5=CC=C(C=C5)CO)OC

>  <PUBCHEM_OPENEYE_ISO_SMILES>
COP(=O)(/N=C\1/CC(=CC(N1CC2=C(C3=CC=CC=C3S2)Cl)C4CC4)C5=CC=C(C=C5)CO)OC

>  <PUBCHEM_CACTVS_TPSA>
99.6

>  <PUBCHEM_MONOISOTOPIC_WEIGHT>
530.12

>  <PUBCHEM_TOTAL_CHARGE>
0

>  <PUBCHEM_HEAVY_ATOM_COUNT>
35

>  <PUBCHEM_ATOM_DEF_STEREO_COUNT>
0

>  <PUBCHEM_ATOM_UDEF_STEREO_COUNT>
1

>  <PUBCHEM_BOND_DEF_STEREO_COUNT>
1

>  <PUBCHEM_BOND_UDEF_STEREO_COUNT>
0

>  <PUBCHEM_ISOTOPIC_ATOM_COUNT>
0

>  <PUBCHEM_COMPONENT_COUNT>
1

>  <PUBCHEM_CACTVS_TAUTO_COUNT>
1

>  <PUBCHEM_COORDINATE_TYPE>
1
5
255

>  <PUBCHEM_BONDANNOTATIONS>
13  10  3
19  22  8
19  23  8
2  20  8
2  25  8
20  21  8
21  24  8
22  26  8
23  27  8
24  25  8
24  29  8
25  30  8
26  28  8
27  28  8
29  32  8
30  33  8
32  33  8

$$$$
