23757169
 OpenBabel06101807152D

 56 59  0  0  1  0  0  0  0  0999 V2000
    5.1350   -1.3659    0.0000 O   0  0  0  0  0  0  0  0  0  0  0  0
    6.8671   -1.3659    0.0000 O   0  0  0  0  0  0  0  0  0  0  0  0
    5.1350   -4.3659    0.0000 O   0  0  0  0  0  0  0  0  0  0  0  0
    3.4030   -3.3659    0.0000 O   0  0  0  0  0  0  0  0  0  0  0  0
    6.8671   -3.3659    0.0000 O   0  0  0  0  0  0  0  0  0  0  0  0
    2.5369   -1.8659    0.0000 O   0  0  0  0  0  0  0  0  0  0  0  0
    8.6431    1.6410    0.0000 O   0  0  0  0  0  0  0  0  0  0  0  0
    8.5991   -0.3659    0.0000 O   0  0  0  0  0  0  0  0  0  0  0  0
    5.1350    1.6341    0.0000 O   0  0  0  0  0  0  0  0  0  0  0  0
    5.9793    3.1656    0.0000 O   0  0  0  0  0  0  0  0  0  0  0  0
    5.1350   -3.3659    0.0000 C   0  0  3  0  0  0  0  0  0  0  0  0
    4.2690   -2.8659    0.0000 C   0  0  3  0  0  0  0  0  0  0  0  0
    6.0010   -2.8659    0.0000 C   0  0  3  0  0  0  0  0  0  0  0  0
    4.2690   -1.8659    0.0000 C   0  0  3  0  0  0  0  0  0  0  0  0
    6.0010   -1.8659    0.0000 C   0  0  3  0  0  0  0  0  0  0  0  0
    3.4030   -1.3659    0.0000 C   0  0  0  0  0  0  0  0  0  0  0  0
    6.8671   -0.3659    0.0000 C   0  0  0  0  0  0  0  0  0  0  0  0
    8.6511    2.6826    0.0000 C   0  0  3  0  0  0  0  0  0  0  0  0
    7.7331    1.1341    0.0000 C   0  0  0  0  0  0  0  0  0  0  0  0
    7.7331    0.1341    0.0000 C   0  0  0  0  0  0  0  0  0  0  0  0
    6.8671    1.6341    0.0000 C   0  0  0  0  0  0  0  0  0  0  0  0
    7.7490    3.2034    0.0000 C   0  0  0  0  0  0  0  0  0  0  0  0
    6.0010    0.1341    0.0000 C   0  0  0  0  0  0  0  0  0  0  0  0
    6.8510    2.6756    0.0000 C   0  0  0  0  0  0  0  0  0  0  0  0
    6.0010    1.1341    0.0000 C   0  0  0  0  0  0  0  0  0  0  0  0
    9.5191    3.1792    0.0000 C   0  0  0  0  0  0  0  0  0  0  0  0
   10.3832    2.6759    0.0000 C   0  0  0  0  0  0  0  0  0  0  0  0
    9.5229    4.1792    0.0000 C   0  0  0  0  0  0  0  0  0  0  0  0
   11.2511    3.1726    0.0000 C   0  0  0  0  0  0  0  0  0  0  0  0
   10.3909    4.6759    0.0000 C   0  0  0  0  0  0  0  0  0  0  0  0
    8.5991   -1.3659    0.0000 C   0  0  0  0  0  0  0  0  0  0  0  0
   11.2550    4.1725    0.0000 C   0  0  0  0  0  0  0  0  0  0  0  0
    5.6720   -3.6759    0.0000 H   0  0  0  0  0  0  0  0  0  0  0  0
    4.2690   -3.4859    0.0000 H   0  0  0  0  0  0  0  0  0  0  0  0
    6.5380   -2.5559    0.0000 H   0  0  0  0  0  0  0  0  0  0  0  0
    4.2690   -1.2459    0.0000 H   0  0  0  0  0  0  0  0  0  0  0  0
    6.0010   -1.2459    0.0000 H   0  0  0  0  0  0  0  0  0  0  0  0
    3.8015   -0.8909    0.0000 H   0  0  0  0  0  0  0  0  0  0  0  0
    3.0044   -0.8909    0.0000 H   0  0  0  0  0  0  0  0  0  0  0  0
    4.5981   -4.6759    0.0000 H   0  0  0  0  0  0  0  0  0  0  0  0
    3.4030   -3.9859    0.0000 H   0  0  0  0  0  0  0  0  0  0  0  0
    6.8671   -3.9859    0.0000 H   0  0  0  0  0  0  0  0  0  0  0  0
    8.6523    3.3026    0.0000 H   0  0  0  0  0  0  0  0  0  0  0  0
    8.1464    3.6794    0.0000 H   0  0  0  0  0  0  0  0  0  0  0  0
    7.3481    3.6763    0.0000 H   0  0  0  0  0  0  0  0  0  0  0  0
    5.4641   -0.1759    0.0000 H   0  0  0  0  0  0  0  0  0  0  0  0
    2.0000   -1.5559    0.0000 H   0  0  0  0  0  0  0  0  0  0  0  0
   10.3808    2.0559    0.0000 H   0  0  0  0  0  0  0  0  0  0  0  0
    8.9872    4.4913    0.0000 H   0  0  0  0  0  0  0  0  0  0  0  0
    4.5981    1.3241    0.0000 H   0  0  0  0  0  0  0  0  0  0  0  0
   11.7868    2.8605    0.0000 H   0  0  0  0  0  0  0  0  0  0  0  0
   10.3933    5.2959    0.0000 H   0  0  0  0  0  0  0  0  0  0  0  0
    7.9791   -1.3659    0.0000 H   0  0  0  0  0  0  0  0  0  0  0  0
    8.5991   -1.9859    0.0000 H   0  0  0  0  0  0  0  0  0  0  0  0
    9.2191   -1.3659    0.0000 H   0  0  0  0  0  0  0  0  0  0  0  0
   11.7931    4.4805    0.0000 H   0  0  0  0  0  0  0  0  0  0  0  0
  1 14  1  0  0  0  0
  1 15  1  0  0  0  0
  2 15  1  0  0  0  0
  2 17  1  0  0  0  0
  3 11  1  0  0  0  0
  3 40  1  0  0  0  0
  4 12  1  0  0  0  0
  4 41  1  0  0  0  0
  5 13  1  0  0  0  0
  5 42  1  0  0  0  0
  6 16  1  0  0  0  0
  6 47  1  0  0  0  0
  7 18  1  0  0  0  0
  7 19  1  0  0  0  0
  8 20  1  0  0  0  0
  8 31  1  0  0  0  0
  9 25  1  0  0  0  0
  9 50  1  0  0  0  0
 10 24  2  0  0  0  0
 11 12  1  0  0  0  0
 11 13  1  0  0  0  0
 11 33  1  0  0  0  0
 12 14  1  0  0  0  0
 12 34  1  0  0  0  0
 13 15  1  0  0  0  0
 13 35  1  0  0  0  0
 14 16  1  0  0  0  0
 14 36  1  0  0  0  0
 15 37  1  0  0  0  0
 16 38  1  0  0  0  0
 16 39  1  0  0  0  0
 17 20  2  0  0  0  0
 17 23  1  0  0  0  0
 18 22  1  0  0  0  0
 18 26  1  0  0  0  0
 18 43  1  0  0  0  0
 19 20  1  0  0  0  0
 19 21  2  0  0  0  0
 21 24  1  0  0  0  0
 21 25  1  0  0  0  0
 22 24  1  0  0  0  0
 22 44  1  0  0  0  0
 22 45  1  0  0  0  0
 23 25  2  0  0  0  0
 23 46  1  0  0  0  0
 26 27  2  0  0  0  0
 26 28  1  0  0  0  0
 27 29  1  0  0  0  0
 27 48  1  0  0  0  0
 28 30  2  0  0  0  0
 28 49  1  0  0  0  0
 29 32  2  0  0  0  0
 29 51  1  0  0  0  0
 30 32  1  0  0  0  0
 30 52  1  0  0  0  0
 31 53  1  0  0  0  0
 31 54  1  0  0  0  0
 31 55  1  0  0  0  0
 32 56  1  0  0  0  0
M  END
>  <PUBCHEM_COMPOUND_CID>
23757169

>  <PUBCHEM_COMPOUND_CANONICALIZED>
1

>  <PUBCHEM_CACTVS_COMPLEXITY>
640

>  <PUBCHEM_CACTVS_HBOND_ACCEPTOR>
10

>  <PUBCHEM_CACTVS_HBOND_DONOR>
5

>  <PUBCHEM_CACTVS_ROTATABLE_BOND>
5

>  <PUBCHEM_CACTVS_SUBSKEYS>
AAADceB4PAAAAAAAAAAAAAAAAAAAAAAAAAA0aIEAAAAAAACRQAAAGgAACAAADBSwmAMyDoAABgCIAqBSAAACCAAkIAAIiAEGiMgdNzaGNRqieWKl4BUPuQfK7PzOIQABCAAIQABCAAIQABCAAAAAAAAAAA==

>  <PUBCHEM_IUPAC_OPENEYE_NAME>
5-hydroxy-8-methoxy-2-phenyl-7-[3,4,5-trihydroxy-6-(hydroxymethyl)tetrahydropyran-2-yl]oxy-chroman-4-one

>  <PUBCHEM_IUPAC_CAS_NAME>
5-hydroxy-8-methoxy-2-phenyl-7-[[3,4,5-trihydroxy-6-(hydroxymethyl)-2-oxanyl]oxy]-3,4-dihydro-2H-1-benzopyran-4-one

>  <PUBCHEM_IUPAC_NAME>
5-hydroxy-8-methoxy-2-phenyl-7-[3,4,5-trihydroxy-6-(hydroxymethyl)oxan-2-yl]oxy-2,3-dihydrochromen-4-one

>  <PUBCHEM_IUPAC_SYSTEMATIC_NAME>
7-[6-(hydroxymethyl)-3,4,5-tris(oxidanyl)oxan-2-yl]oxy-8-methoxy-5-oxidanyl-2-phenyl-2,3-dihydrochromen-4-one

>  <PUBCHEM_IUPAC_TRADITIONAL_NAME>
5-hydroxy-8-methoxy-2-phenyl-7-(3,4,5-trihydroxy-6-methylol-tetrahydropyran-2-yl)oxy-chroman-4-one

>  <PUBCHEM_IUPAC_INCHI>
InChI=1S/C22H24O10/c1-29-20-14(31-22-19(28)18(27)17(26)15(9-23)32-22)8-12(25)16-11(24)7-13(30-21(16)20)10-5-3-2-4-6-10/h2-6,8,13,15,17-19,22-23,25-28H,7,9H2,1H3

>  <PUBCHEM_IUPAC_INCHIKEY>
BZGHUZGALXIEBL-UHFFFAOYSA-N

>  <PUBCHEM_XLOGP3_AA>
0.9

>  <PUBCHEM_EXACT_MASS>
448.137

>  <PUBCHEM_MOLECULAR_FORMULA>
C22H24O10

>  <PUBCHEM_MOLECULAR_WEIGHT>
448.424

>  <PUBCHEM_OPENEYE_CAN_SMILES>
COC1=C(C=C(C2=C1OC(CC2=O)C3=CC=CC=C3)O)OC4C(C(C(C(O4)CO)O)O)O

>  <PUBCHEM_OPENEYE_ISO_SMILES>
COC1=C(C=C(C2=C1OC(CC2=O)C3=CC=CC=C3)O)OC4C(C(C(C(O4)CO)O)O)O

>  <PUBCHEM_CACTVS_TPSA>
155

>  <PUBCHEM_MONOISOTOPIC_WEIGHT>
448.137

>  <PUBCHEM_TOTAL_CHARGE>
0

>  <PUBCHEM_HEAVY_ATOM_COUNT>
32

>  <PUBCHEM_ATOM_DEF_STEREO_COUNT>
0

>  <PUBCHEM_ATOM_UDEF_STEREO_COUNT>
6

>  <PUBCHEM_BOND_DEF_STEREO_COUNT>
0

>  <PUBCHEM_BOND_UDEF_STEREO_COUNT>
0

>  <PUBCHEM_ISOTOPIC_ATOM_COUNT>
0

>  <PUBCHEM_COMPONENT_COUNT>
1

>  <PUBCHEM_CACTVS_TAUTO_COUNT>
7

>  <PUBCHEM_COORDINATE_TYPE>
1
5
255

>  <PUBCHEM_BONDANNOTATIONS>
14  16  3
17  20  8
17  23  8
18  26  3
19  20  8
19  21  8
15  2  3
21  25  8
23  25  8
26  27  8
26  28  8
27  29  8
28  30  8
29  32  8
11  3  3
30  32  8
12  4  3
13  5  3

$$$$
