23939
 OpenBabel06101807152D

  1  0  0  0  0  0  0  0  0  0999 V2000
    2.0000    0.0000    0.0000 Pt  0  0  0  0  0 15  0  0  0  0  0  0
M  END
>  <PUBCHEM_COMPOUND_CID>
23939

>  <PUBCHEM_COMPOUND_CANONICALIZED>
1

>  <PUBCHEM_CACTVS_COMPLEXITY>
0

>  <PUBCHEM_CACTVS_HBOND_ACCEPTOR>
0

>  <PUBCHEM_CACTVS_HBOND_DONOR>
0

>  <PUBCHEM_CACTVS_ROTATABLE_BOND>
0

>  <PUBCHEM_CACTVS_SUBSKEYS>
AAADcQAAAAAAAAAAAAAABAAAAAAAAAAAAAAAAAAAAAAAAAAAAAAAAAAAAAAAAAAAAAAAAAAAAAAAAAAAAAAAAAAAAAAAAAAAAAAAAAAAAAAAAAAAAAAAAAAAAAAAAAAAAAAAAAAAAAAAAAAAAAAAAAAAAA==

>  <PUBCHEM_IUPAC_OPENEYE_NAME>
platinum

>  <PUBCHEM_IUPAC_CAS_NAME>
platinum

>  <PUBCHEM_IUPAC_NAME>
platinum

>  <PUBCHEM_IUPAC_SYSTEMATIC_NAME>
platinum

>  <PUBCHEM_IUPAC_TRADITIONAL_NAME>
platinum

>  <PUBCHEM_IUPAC_INCHI>
InChI=1S/Pt

>  <PUBCHEM_IUPAC_INCHIKEY>
BASFCYQUMIYNBI-UHFFFAOYSA-N

>  <PUBCHEM_EXACT_MASS>
194.965

>  <PUBCHEM_MOLECULAR_FORMULA>
Pt

>  <PUBCHEM_MOLECULAR_WEIGHT>
195.084

>  <PUBCHEM_OPENEYE_CAN_SMILES>
[Pt]

>  <PUBCHEM_OPENEYE_ISO_SMILES>
[Pt]

>  <PUBCHEM_CACTVS_TPSA>
0

>  <PUBCHEM_MONOISOTOPIC_WEIGHT>
194.965

>  <PUBCHEM_TOTAL_CHARGE>
0

>  <PUBCHEM_HEAVY_ATOM_COUNT>
1

>  <PUBCHEM_ATOM_DEF_STEREO_COUNT>
0

>  <PUBCHEM_ATOM_UDEF_STEREO_COUNT>
0

>  <PUBCHEM_BOND_DEF_STEREO_COUNT>
0

>  <PUBCHEM_BOND_UDEF_STEREO_COUNT>
0

>  <PUBCHEM_ISOTOPIC_ATOM_COUNT>
0

>  <PUBCHEM_COMPONENT_COUNT>
1

>  <PUBCHEM_CACTVS_TAUTO_COUNT>
1

>  <PUBCHEM_COORDINATE_TYPE>
1
5
255

$$$$
