23952
 OpenBabel06101807152D

  1  0  0  0  0  0  0  0  0  0999 V2000
    2.0000    0.0000    0.0000 Sc  0  0  0  0  0 15  0  0  0  0  0  0
M  END
>  <PUBCHEM_COMPOUND_CID>
23952

>  <PUBCHEM_COMPOUND_CANONICALIZED>
1

>  <PUBCHEM_CACTVS_COMPLEXITY>
0

>  <PUBCHEM_CACTVS_HBOND_ACCEPTOR>
0

>  <PUBCHEM_CACTVS_HBOND_DONOR>
0

>  <PUBCHEM_CACTVS_ROTATABLE_BOND>
0

>  <PUBCHEM_CACTVS_SUBSKEYS>
AAADcQAAAAAAAAQAAAAAAAAAAAAAAAAAAAAAAAAAAAAAAAAAAAAAAAAAAAAAAAAAAAAAAAAAAAAAAAAAAAAAAAAAAAAAAAAAAAAAAAAAAAAAAAAAAAAAAAAAAAAAAAAAAAAAAAAAAAAAAAAAAAAAAAAAAA==

>  <PUBCHEM_IUPAC_OPENEYE_NAME>
scandium

>  <PUBCHEM_IUPAC_CAS_NAME>
scandium

>  <PUBCHEM_IUPAC_NAME>
scandium

>  <PUBCHEM_IUPAC_SYSTEMATIC_NAME>
scandium

>  <PUBCHEM_IUPAC_TRADITIONAL_NAME>
scandium

>  <PUBCHEM_IUPAC_INCHI>
InChI=1S/Sc

>  <PUBCHEM_IUPAC_INCHIKEY>
SIXSYDAISGFNSX-UHFFFAOYSA-N

>  <PUBCHEM_EXACT_MASS>
44.956

>  <PUBCHEM_MOLECULAR_FORMULA>
Sc

>  <PUBCHEM_MOLECULAR_WEIGHT>
44.956

>  <PUBCHEM_OPENEYE_CAN_SMILES>
[Sc]

>  <PUBCHEM_OPENEYE_ISO_SMILES>
[Sc]

>  <PUBCHEM_CACTVS_TPSA>
0

>  <PUBCHEM_MONOISOTOPIC_WEIGHT>
44.956

>  <PUBCHEM_TOTAL_CHARGE>
0

>  <PUBCHEM_HEAVY_ATOM_COUNT>
1

>  <PUBCHEM_ATOM_DEF_STEREO_COUNT>
0

>  <PUBCHEM_ATOM_UDEF_STEREO_COUNT>
0

>  <PUBCHEM_BOND_DEF_STEREO_COUNT>
0

>  <PUBCHEM_BOND_UDEF_STEREO_COUNT>
0

>  <PUBCHEM_ISOTOPIC_ATOM_COUNT>
0

>  <PUBCHEM_COMPONENT_COUNT>
1

>  <PUBCHEM_CACTVS_TAUTO_COUNT>
1

>  <PUBCHEM_COORDINATE_TYPE>
1
5
255

$$$$
