23969
 OpenBabel06101807152D

  4  3  0  0  0  0  0  0  0  0999 V2000
    2.5369    0.1550    0.0000 As  0  0  0  0  0  0  0  0  0  0  0  0
    3.0739    0.4650    0.0000 H   0  0  0  0  0  0  0  0  0  0  0  0
    2.0000    0.4650    0.0000 H   0  0  0  0  0  0  0  0  0  0  0  0
    2.5369   -0.4650    0.0000 H   0  0  0  0  0  0  0  0  0  0  0  0
  1  2  1  0  0  0  0
  1  3  1  0  0  0  0
  1  4  1  0  0  0  0
M  END
>  <PUBCHEM_COMPOUND_CID>
23969

>  <PUBCHEM_COMPOUND_CANONICALIZED>
1

>  <PUBCHEM_CACTVS_COMPLEXITY>
0

>  <PUBCHEM_CACTVS_HBOND_ACCEPTOR>
0

>  <PUBCHEM_CACTVS_HBOND_DONOR>
0

>  <PUBCHEM_CACTVS_ROTATABLE_BOND>
0

>  <PUBCHEM_CACTVS_SUBSKEYS>
AAADcQAAAAAAAAAAQAAAAAAAAAAAAAAAAAAAAAAAAAAAAAAAAAAAAAAAAAAEAAAAAAAAAAAAAAAAAAAAAAAAAAAAAAAAAAAAAAAAAAAAAAAAAAAAAAAAAAAAAAAAAAAAAAAAAAAAAAAAAAAAAAAAAAAAAA==

>  <PUBCHEM_IUPAC_OPENEYE_NAME>
arsane

>  <PUBCHEM_IUPAC_CAS_NAME>
arsine

>  <PUBCHEM_IUPAC_NAME>
arsane

>  <PUBCHEM_IUPAC_SYSTEMATIC_NAME>
arsane

>  <PUBCHEM_IUPAC_TRADITIONAL_NAME>
arsine

>  <PUBCHEM_IUPAC_INCHI>
InChI=1S/AsH3/h1H3

>  <PUBCHEM_IUPAC_INCHIKEY>
RBFQJDQYXXHULB-UHFFFAOYSA-N

>  <PUBCHEM_EXACT_MASS>
77.945

>  <PUBCHEM_MOLECULAR_FORMULA>
AsH3

>  <PUBCHEM_MOLECULAR_WEIGHT>
77.946

>  <PUBCHEM_OPENEYE_CAN_SMILES>
[AsH3]

>  <PUBCHEM_OPENEYE_ISO_SMILES>
[AsH3]

>  <PUBCHEM_CACTVS_TPSA>
0

>  <PUBCHEM_MONOISOTOPIC_WEIGHT>
77.945

>  <PUBCHEM_TOTAL_CHARGE>
0

>  <PUBCHEM_HEAVY_ATOM_COUNT>
1

>  <PUBCHEM_ATOM_DEF_STEREO_COUNT>
0

>  <PUBCHEM_ATOM_UDEF_STEREO_COUNT>
0

>  <PUBCHEM_BOND_DEF_STEREO_COUNT>
0

>  <PUBCHEM_BOND_UDEF_STEREO_COUNT>
0

>  <PUBCHEM_ISOTOPIC_ATOM_COUNT>
0

>  <PUBCHEM_COMPONENT_COUNT>
1

>  <PUBCHEM_CACTVS_TAUTO_COUNT>
1

>  <PUBCHEM_COORDINATE_TYPE>
1
5
255

$$$$
