24121290
 OpenBabel06101807152D

 34 35  0  0  1  0  0  0  0  0999 V2000
    6.6648    0.4041    0.0000 O   0  0  0  0  0  0  0  0  0  0  0  0
    4.2690    2.4041    0.0000 O   0  0  0  0  0  0  0  0  0  0  0  0
    2.5369    1.4041    0.0000 O   0  0  0  0  0  0  0  0  0  0  0  0
    6.3919    2.1594    0.0000 O   0  0  0  0  0  0  0  0  0  0  0  0
    5.1350   -0.0959    0.0000 C   0  0  0  0  0  0  0  0  0  0  0  0
    6.0812   -0.4006    0.0000 C   0  0  3  0  0  0  0  0  0  0  0  0
    4.2690   -0.5959    0.0000 C   0  0  0  0  0  0  0  0  0  0  0  0
    5.1350    0.9041    0.0000 C   0  0  0  0  0  0  0  0  0  0  0  0
    4.2690    1.4041    0.0000 C   0  0  3  0  0  0  0  0  0  0  0  0
    3.4030    0.9041    0.0000 C   0  0  3  0  0  0  0  0  0  0  0  0
    3.4030   -0.0959    0.0000 C   0  0  0  0  0  0  0  0  0  0  0  0
    6.3919   -1.3512    0.0000 C   0  0  0  0  0  0  0  0  0  0  0  0
    6.0812    1.2088    0.0000 C   0  0  0  0  0  0  0  0  0  0  0  0
    7.3704   -1.5574    0.0000 C   0  0  0  0  0  0  0  0  0  0  0  0
    7.6811   -2.5079    0.0000 C   0  0  0  0  0  0  0  0  0  0  0  0
    8.6596   -2.7141    0.0000 C   0  0  0  0  0  0  0  0  0  0  0  0
    6.6937   -0.4968    0.0000 H   0  0  0  0  0  0  0  0  0  0  0  0
    3.8705   -1.0708    0.0000 H   0  0  0  0  0  0  0  0  0  0  0  0
    4.6675   -1.0708    0.0000 H   0  0  0  0  0  0  0  0  0  0  0  0
    4.8059    1.7141    0.0000 H   0  0  0  0  0  0  0  0  0  0  0  0
    3.4030    1.5241    0.0000 H   0  0  0  0  0  0  0  0  0  0  0  0
    2.7924    0.0118    0.0000 H   0  0  0  0  0  0  0  0  0  0  0  0
    3.1909   -0.6785    0.0000 H   0  0  0  0  0  0  0  0  0  0  0  0
    5.7781   -1.4385    0.0000 H   0  0  0  0  0  0  0  0  0  0  0  0
    6.3713   -1.9708    0.0000 H   0  0  0  0  0  0  0  0  0  0  0  0
    7.9842   -1.4700    0.0000 H   0  0  0  0  0  0  0  0  0  0  0  0
    7.3910   -0.9377    0.0000 H   0  0  0  0  0  0  0  0  0  0  0  0
    7.0672   -2.5952    0.0000 H   0  0  0  0  0  0  0  0  0  0  0  0
    7.6605   -3.1276    0.0000 H   0  0  0  0  0  0  0  0  0  0  0  0
    3.7320    2.7141    0.0000 H   0  0  0  0  0  0  0  0  0  0  0  0
    2.0000    1.0941    0.0000 H   0  0  0  0  0  0  0  0  0  0  0  0
    8.5317   -3.3208    0.0000 H   0  0  0  0  0  0  0  0  0  0  0  0
    9.2662   -2.8420    0.0000 H   0  0  0  0  0  0  0  0  0  0  0  0
    8.7874   -2.1074    0.0000 H   0  0  0  0  0  0  0  0  0  0  0  0
  1  6  1  0  0  0  0
  1 13  1  0  0  0  0
  2  9  1  0  0  0  0
  2 30  1  0  0  0  0
  3 10  1  0  0  0  0
  3 31  1  0  0  0  0
  4 13  2  0  0  0  0
  5  6  1  0  0  0  0
  5  7  1  0  0  0  0
  5  8  2  0  0  0  0
  6 12  1  0  0  0  0
  6 17  1  0  0  0  0
  7 11  1  0  0  0  0
  7 18  1  0  0  0  0
  7 19  1  0  0  0  0
  8  9  1  0  0  0  0
  8 13  1  0  0  0  0
  9 10  1  0  0  0  0
  9 20  1  0  0  0  0
 10 11  1  0  0  0  0
 10 21  1  0  0  0  0
 11 22  1  0  0  0  0
 11 23  1  0  0  0  0
 12 14  1  0  0  0  0
 12 24  1  0  0  0  0
 12 25  1  0  0  0  0
 14 15  1  0  0  0  0
 14 26  1  0  0  0  0
 14 27  1  0  0  0  0
 15 16  1  0  0  0  0
 15 28  1  0  0  0  0
 15 29  1  0  0  0  0
 16 32  1  0  0  0  0
 16 33  1  0  0  0  0
 16 34  1  0  0  0  0
M  END
>  <PUBCHEM_COMPOUND_CID>
24121290

>  <PUBCHEM_COMPOUND_CANONICALIZED>
1

>  <PUBCHEM_CACTVS_COMPLEXITY>
321

>  <PUBCHEM_CACTVS_HBOND_ACCEPTOR>
4

>  <PUBCHEM_CACTVS_HBOND_DONOR>
2

>  <PUBCHEM_CACTVS_ROTATABLE_BOND>
3

>  <PUBCHEM_CACTVS_SUBSKEYS>
AAADceBwOAAAAAAAAAAAAAAAAAAAAQAAAAAgAAAAAAAAAEgAAAAAGgAACAAADBSggAICCAAABgCIAgDQCAAAAAAgAAAACAEAAEgBFBYAIAACUAAF4AAJMQPK6KyAAAAAAAAAAAAAAAAAAAAAAAAAAAAAAA==

>  <PUBCHEM_IUPAC_OPENEYE_NAME>
3-butyl-6,7-dihydroxy-4,5,6,7-tetrahydro-3H-isobenzofuran-1-one

>  <PUBCHEM_IUPAC_CAS_NAME>
3-butyl-6,7-dihydroxy-4,5,6,7-tetrahydro-3H-isobenzofuran-1-one

>  <PUBCHEM_IUPAC_NAME>
3-butyl-6,7-dihydroxy-4,5,6,7-tetrahydro-3H-2-benzofuran-1-one

>  <PUBCHEM_IUPAC_SYSTEMATIC_NAME>
3-butyl-6,7-bis(oxidanyl)-4,5,6,7-tetrahydro-3H-2-benzofuran-1-one

>  <PUBCHEM_IUPAC_TRADITIONAL_NAME>
3-butyl-6,7-dihydroxy-4,5,6,7-tetrahydro-3H-isobenzofuran-1-one

>  <PUBCHEM_IUPAC_INCHI>
InChI=1S/C12H18O4/c1-2-3-4-9-7-5-6-8(13)11(14)10(7)12(15)16-9/h8-9,11,13-14H,2-6H2,1H3

>  <PUBCHEM_IUPAC_INCHIKEY>
AXRIHSJZHOTGAE-UHFFFAOYSA-N

>  <PUBCHEM_XLOGP3_AA>
0.5

>  <PUBCHEM_EXACT_MASS>
226.121

>  <PUBCHEM_MOLECULAR_FORMULA>
C12H18O4

>  <PUBCHEM_MOLECULAR_WEIGHT>
226.272

>  <PUBCHEM_OPENEYE_CAN_SMILES>
CCCCC1C2=C(C(C(CC2)O)O)C(=O)O1

>  <PUBCHEM_OPENEYE_ISO_SMILES>
CCCCC1C2=C(C(C(CC2)O)O)C(=O)O1

>  <PUBCHEM_CACTVS_TPSA>
66.8

>  <PUBCHEM_MONOISOTOPIC_WEIGHT>
226.121

>  <PUBCHEM_TOTAL_CHARGE>
0

>  <PUBCHEM_HEAVY_ATOM_COUNT>
16

>  <PUBCHEM_ATOM_DEF_STEREO_COUNT>
0

>  <PUBCHEM_ATOM_UDEF_STEREO_COUNT>
3

>  <PUBCHEM_BOND_DEF_STEREO_COUNT>
0

>  <PUBCHEM_BOND_UDEF_STEREO_COUNT>
0

>  <PUBCHEM_ISOTOPIC_ATOM_COUNT>
0

>  <PUBCHEM_COMPONENT_COUNT>
1

>  <PUBCHEM_CACTVS_TAUTO_COUNT>
1

>  <PUBCHEM_COORDINATE_TYPE>
1
5
255

>  <PUBCHEM_BONDANNOTATIONS>
9  2  3
10  3  3
6  12  3

$$$$
