24524
 OpenBabel06101807152D

  2  1  0  0  0  0  0  0  0  0999 V2000
    2.0000    0.0000    0.0000 F   0  0  0  0  0  0  0  0  0  0  0  0
    3.0000    0.0000    0.0000 F   0  0  0  0  0  0  0  0  0  0  0  0
  1  2  1  0  0  0  0
M  END
>  <PUBCHEM_COMPOUND_CID>
24524

>  <PUBCHEM_COMPOUND_CANONICALIZED>
1

>  <PUBCHEM_CACTVS_COMPLEXITY>
0

>  <PUBCHEM_CACTVS_HBOND_ACCEPTOR>
2

>  <PUBCHEM_CACTVS_HBOND_DONOR>
0

>  <PUBCHEM_CACTVS_ROTATABLE_BOND>
0

>  <PUBCHEM_CACTVS_SUBSKEYS>
AAADcQAAAYAAAAAAAAAAAAAAAAAAAAAAAAAAAAAAAAAAAAAAAAAAAAAAAAAAAAAAAAAAAAAAAAAAAAAAAAAAAAAAAAAAAAAAAAAAAAAAAAAAAAAAAAAAAAAAAAAAAAAAAAAAAAAAAAAAAAAAAAAAAAAAAA==

>  <PUBCHEM_IUPAC_OPENEYE_NAME>
molecular fluorine

>  <PUBCHEM_IUPAC_CAS_NAME>
molecular fluorine

>  <PUBCHEM_IUPAC_NAME>
molecular fluorine

>  <PUBCHEM_IUPAC_SYSTEMATIC_NAME>
molecular fluorine

>  <PUBCHEM_IUPAC_TRADITIONAL_NAME>
molecular fluorine

>  <PUBCHEM_IUPAC_INCHI>
InChI=1S/F2/c1-2

>  <PUBCHEM_IUPAC_INCHIKEY>
PXGOKWXKJXAPGV-UHFFFAOYSA-N

>  <PUBCHEM_XLOGP3_AA>
1.1

>  <PUBCHEM_EXACT_MASS>
37.997

>  <PUBCHEM_MOLECULAR_FORMULA>
F2

>  <PUBCHEM_MOLECULAR_WEIGHT>
37.997

>  <PUBCHEM_OPENEYE_CAN_SMILES>
FF

>  <PUBCHEM_OPENEYE_ISO_SMILES>
FF

>  <PUBCHEM_CACTVS_TPSA>
0

>  <PUBCHEM_MONOISOTOPIC_WEIGHT>
37.997

>  <PUBCHEM_TOTAL_CHARGE>
0

>  <PUBCHEM_HEAVY_ATOM_COUNT>
2

>  <PUBCHEM_ATOM_DEF_STEREO_COUNT>
0

>  <PUBCHEM_ATOM_UDEF_STEREO_COUNT>
0

>  <PUBCHEM_BOND_DEF_STEREO_COUNT>
0

>  <PUBCHEM_BOND_UDEF_STEREO_COUNT>
0

>  <PUBCHEM_ISOTOPIC_ATOM_COUNT>
0

>  <PUBCHEM_COMPONENT_COUNT>
1

>  <PUBCHEM_CACTVS_TAUTO_COUNT>
1

>  <PUBCHEM_COORDINATE_TYPE>
1
5
255

$$$$
