24797519
 OpenBabel06101807152D

 40 40  0  0  1  0  0  0  0  0999 V2000
    7.3671    1.4715    0.0000 O   0  0  0  0  0  0  0  0  0  0  0  0
    6.0010    0.8375    0.0000 O   0  0  0  0  0  0  0  0  0  0  0  0
    8.5991    2.3375    0.0000 O   0  0  0  0  0  0  0  0  0  0  0  0
    5.1350    3.3375    0.0000 O   0  0  0  0  0  0  0  0  0  0  0  0
    8.3759    3.6035    0.0000 O   0  0  0  0  0  0  0  0  0  0  0  0
    6.3671    4.9356    0.0000 O   0  0  0  0  0  0  0  0  0  0  0  0
    4.2690    1.8375    0.0000 O   0  0  0  0  0  0  0  0  0  0  0  0
    7.6331    4.7123    0.0000 O   0  0  0  0  0  0  0  0  0  0  0  0
    4.2690    0.8375    0.0000 O   0  0  0  0  0  0  0  0  0  0  0  0
    2.5369   -4.1625    0.0000 O   0  0  0  0  0  0  0  0  0  0  0  0
    4.2690   -5.1625    0.0000 O   0  0  0  0  0  0  0  0  0  0  0  0
    6.8671    2.3375    0.0000 C   0  0  3  0  0  0  0  0  0  0  0  0
    6.0010    1.8375    0.0000 C   0  0  3  0  0  0  0  0  0  0  0  0
    6.3671    3.2035    0.0000 C   0  0  0  0  0  0  0  0  0  0  0  0
    7.7331    2.8375    0.0000 C   0  0  0  0  0  0  0  0  0  0  0  0
    5.1350    2.3375    0.0000 C   0  0  0  0  0  0  0  0  0  0  0  0
    6.8671    4.0695    0.0000 C   0  0  0  0  0  0  0  0  0  0  0  0
    5.1350    0.3375    0.0000 C   0  0  0  0  0  0  0  0  0  0  0  0
    5.1350   -0.6625    0.0000 C   0  0  0  0  0  0  0  0  0  0  0  0
    4.2690   -2.1625    0.0000 C   0  0  0  0  0  0  0  0  0  0  0  0
    4.2690   -1.1625    0.0000 C   0  0  0  0  0  0  0  0  0  0  0  0
    3.4030   -2.6625    0.0000 C   0  0  0  0  0  0  0  0  0  0  0  0
    5.1350   -2.6625    0.0000 C   0  0  0  0  0  0  0  0  0  0  0  0
    3.4030   -3.6625    0.0000 C   0  0  0  0  0  0  0  0  0  0  0  0
    5.1350   -3.6625    0.0000 C   0  0  0  0  0  0  0  0  0  0  0  0
    4.2690   -4.1625    0.0000 C   0  0  0  0  0  0  0  0  0  0  0  0
    6.5380    1.5275    0.0000 H   0  0  0  0  0  0  0  0  0  0  0  0
    5.8921    3.6020    0.0000 H   0  0  0  0  0  0  0  0  0  0  0  0
    5.8921    2.8050    0.0000 H   0  0  0  0  0  0  0  0  0  0  0  0
    7.9871    1.4715    0.0000 H   0  0  0  0  0  0  0  0  0  0  0  0
    9.1360    2.6475    0.0000 H   0  0  0  0  0  0  0  0  0  0  0  0
    5.6720   -0.9725    0.0000 H   0  0  0  0  0  0  0  0  0  0  0  0
    4.5981    3.6475    0.0000 H   0  0  0  0  0  0  0  0  0  0  0  0
    6.6771    5.4725    0.0000 H   0  0  0  0  0  0  0  0  0  0  0  0
    3.7320   -0.8525    0.0000 H   0  0  0  0  0  0  0  0  0  0  0  0
    2.8660   -2.3525    0.0000 H   0  0  0  0  0  0  0  0  0  0  0  0
    5.6720   -2.3525    0.0000 H   0  0  0  0  0  0  0  0  0  0  0  0
    5.6720   -3.9725    0.0000 H   0  0  0  0  0  0  0  0  0  0  0  0
    2.0000   -3.8525    0.0000 H   0  0  0  0  0  0  0  0  0  0  0  0
    4.8059   -5.4725    0.0000 H   0  0  0  0  0  0  0  0  0  0  0  0
  1 12  1  0  0  0  0
  1 30  1  0  0  0  0
  2 13  1  0  0  0  0
  2 18  1  0  0  0  0
  3 15  1  0  0  0  0
  3 31  1  0  0  0  0
  4 16  1  0  0  0  0
  4 33  1  0  0  0  0
  5 15  2  0  0  0  0
  6 17  1  0  0  0  0
  6 34  1  0  0  0  0
  7 16  2  0  0  0  0
  8 17  2  0  0  0  0
  9 18  2  0  0  0  0
 10 24  1  0  0  0  0
 10 39  1  0  0  0  0
 11 26  1  0  0  0  0
 11 40  1  0  0  0  0
 12 13  1  0  0  0  0
 12 14  1  0  0  0  0
 12 15  1  0  0  0  0
 13 16  1  0  0  0  0
 13 27  1  0  0  0  0
 14 17  1  0  0  0  0
 14 28  1  0  0  0  0
 14 29  1  0  0  0  0
 18 19  1  0  0  0  0
 19 21  2  0  0  0  0
 19 32  1  0  0  0  0
 20 21  1  0  0  0  0
 20 22  2  0  0  0  0
 20 23  1  0  0  0  0
 21 35  1  0  0  0  0
 22 24  1  0  0  0  0
 22 36  1  0  0  0  0
 23 25  2  0  0  0  0
 23 37  1  0  0  0  0
 24 26  2  0  0  0  0
 25 26  1  0  0  0  0
 25 38  1  0  0  0  0
M  END
>  <PUBCHEM_COMPOUND_CID>
24797519

>  <PUBCHEM_COMPOUND_CANONICALIZED>
1

>  <PUBCHEM_CACTVS_COMPLEXITY>
598

>  <PUBCHEM_CACTVS_HBOND_ACCEPTOR>
11

>  <PUBCHEM_CACTVS_HBOND_DONOR>
6

>  <PUBCHEM_CACTVS_ROTATABLE_BOND>
9

>  <PUBCHEM_CACTVS_SUBSKEYS>
AAADccBwPAAAAAAAAAAAAAAAAAAAAAAAAAAwAAAAAAAAAAABAAAAGgAACAAADFSgmAIwDoAABgCIAiDSCAICAAAgIAAIiAFGiMgJJjaCMRaCcAEl4BELuYfL5hAOIAABAAAAQABAAAIAAACAAAAAAAAAAA==

>  <PUBCHEM_IUPAC_OPENEYE_NAME>
1-[(E)-3-(3,4-dihydroxyphenyl)prop-2-enoyl]oxy-2-hydroxy-propane-1,2,3-tricarboxylic acid

>  <PUBCHEM_IUPAC_CAS_NAME>
1-[(E)-3-(3,4-dihydroxyphenyl)-1-oxoprop-2-enoxy]-2-hydroxypropane-1,2,3-tricarboxylic acid

>  <PUBCHEM_IUPAC_NAME>
1-[(E)-3-(3,4-dihydroxyphenyl)prop-2-enoyl]oxy-2-hydroxypropane-1,2,3-tricarboxylic acid

>  <PUBCHEM_IUPAC_SYSTEMATIC_NAME>
1-[(E)-3-[3,4-bis(oxidanyl)phenyl]prop-2-enoyl]oxy-2-oxidanyl-propane-1,2,3-tricarboxylic acid

>  <PUBCHEM_IUPAC_TRADITIONAL_NAME>
1-[(E)-3-(3,4-dihydroxyphenyl)acryloyl]oxy-2-hydroxy-propane-1,2,3-tricarboxylic acid

>  <PUBCHEM_IUPAC_INCHI>
InChI=1S/C15H14O11/c16-8-3-1-7(5-9(8)17)2-4-11(20)26-12(13(21)22)15(25,14(23)24)6-10(18)19/h1-5,12,16-17,25H,6H2,(H,18,19)(H,21,22)(H,23,24)/b4-2+

>  <PUBCHEM_IUPAC_INCHIKEY>
OUWOVSUGDPWIBY-DUXPYHPUSA-N

>  <PUBCHEM_XLOGP3_AA>
-0.6

>  <PUBCHEM_EXACT_MASS>
370.054

>  <PUBCHEM_MOLECULAR_FORMULA>
C15H14O11

>  <PUBCHEM_MOLECULAR_WEIGHT>
370.266

>  <PUBCHEM_OPENEYE_CAN_SMILES>
C1=CC(=C(C=C1C=CC(=O)OC(C(=O)O)C(CC(=O)O)(C(=O)O)O)O)O

>  <PUBCHEM_OPENEYE_ISO_SMILES>
C1=CC(=C(C=C1/C=C/C(=O)OC(C(=O)O)C(CC(=O)O)(C(=O)O)O)O)O

>  <PUBCHEM_CACTVS_TPSA>
199

>  <PUBCHEM_MONOISOTOPIC_WEIGHT>
370.054

>  <PUBCHEM_TOTAL_CHARGE>
0

>  <PUBCHEM_HEAVY_ATOM_COUNT>
26

>  <PUBCHEM_ATOM_DEF_STEREO_COUNT>
0

>  <PUBCHEM_ATOM_UDEF_STEREO_COUNT>
2

>  <PUBCHEM_BOND_DEF_STEREO_COUNT>
1

>  <PUBCHEM_BOND_UDEF_STEREO_COUNT>
0

>  <PUBCHEM_ISOTOPIC_ATOM_COUNT>
0

>  <PUBCHEM_COMPONENT_COUNT>
1

>  <PUBCHEM_CACTVS_TAUTO_COUNT>
16

>  <PUBCHEM_COORDINATE_TYPE>
1
5
255

>  <PUBCHEM_BONDANNOTATIONS>
12  1  3
13  16  3
20  22  8
20  23  8
22  24  8
23  25  8
24  26  8
25  26  8

$$$$
