24832101
 OpenBabel06101807152D

 80 83  0  0  1  0  0  0  0  0999 V2000
    3.6964    0.3097    0.0000 O   0  0  0  0  0  0  0  0  0  0  0  0
    2.2566    9.2536    0.0000 O   0  0  0  0  0  0  0  0  0  0  0  0
    2.1819    4.9727    0.0000 C   0  0  3  0  0  0  0  0  0  0  0  0
    1.9965    5.7459    0.0000 C   0  0  3  0  0  0  0  0  0  0  0  0
    1.6079    4.5527    0.0000 C   0  0  2  0  0  0  0  0  0  0  0  0
    2.8326    4.8102    0.0000 C   0  0  1  0  0  0  0  0  0  0  0  0
    3.6922    5.1354    0.0000 C   0  0  3  0  0  0  0  0  0  0  0  0
    2.9906    5.8792    0.0000 C   0  0  0  0  0  0  0  0  0  0  0  0
    2.9906    4.1743    0.0000 C   0  0  0  0  0  0  0  0  0  0  0  0
    2.4290    6.0959    0.0000 C   0  0  0  0  0  0  0  0  0  0  0  0
    3.6983    4.3097    0.0000 C   0  0  0  0  0  0  0  0  0  0  0  0
    3.5410    5.7160    0.0000 C   0  0  0  0  0  0  0  0  0  0  0  0
    3.6979    3.3097    0.0000 C   0  0  0  0  0  0  0  0  0  0  0  0
    4.5636    2.8093    0.0000 C   0  0  0  0  0  0  0  0  0  0  0  0
    4.5632    1.8093    0.0000 C   0  0  0  0  0  0  0  0  0  0  0  0
    4.5737   14.3298    0.0000 C   0  0  2  0  0  0  0  0  0  0  0  0
    3.2010   13.7377    0.0000 C   0  0  2  0  0  0  0  0  0  0  0  0
    3.6969    1.3097    0.0000 C   0  0  0  0  0  0  0  0  0  0  0  0
    5.4290    1.3089    0.0000 C   0  0  0  0  0  0  0  0  0  0  0  0
    4.8326   15.2957    0.0000 C   0  0  2  0  0  0  0  0  0  0  0  0
    4.0959   16.2783    0.0000 C   0  0  0  0  0  0  0  0  0  0  0  0
    5.9727   13.8209    0.0000 C   0  0  0  0  0  0  0  0  0  0  0  0
    2.8590   14.6774    0.0000 C   0  0  0  0  0  0  0  0  0  0  0  0
    6.2315   14.7869    0.0000 C   0  0  0  0  0  0  0  0  0  0  0  0
    2.3264   13.2529    0.0000 C   0  0  0  0  0  0  0  0  0  0  0  0
    3.3918   12.7561    0.0000 C   0  0  0  0  0  0  0  0  0  0  0  0
    1.9527   15.1001    0.0000 C   0  0  0  0  0  0  0  0  0  0  0  0
    2.3090   12.2531    0.0000 C   0  0  0  0  0  0  0  0  0  0  0  0
    1.4343   11.7683    0.0000 C   0  0  0  0  0  0  0  0  0  0  0  0
    1.4169   10.7684    0.0000 C   0  0  0  0  0  0  0  0  0  0  0  0
    2.2740   10.2534    0.0000 C   0  0  0  0  0  0  0  0  0  0  0  0
    0.5423   10.2836    0.0000 C   0  0  0  0  0  0  0  0  0  0  0  0
    1.5996    6.2222    0.0000 H   0  0  0  0  0  0  0  0  0  0  0  0
    0.8597    4.1494    0.0000 H   0  0  0  0  0  0  0  0  0  0  0  0
    4.3110    5.1744    0.0000 H   0  0  0  0  0  0  0  0  0  0  0  0
    3.5197    6.2025    0.0000 H   0  0  0  0  0  0  0  0  0  0  0  0
    2.7833    6.4635    0.0000 H   0  0  0  0  0  0  0  0  0  0  0  0
    2.7559    3.6005    0.0000 H   0  0  0  0  0  0  0  0  0  0  0  0
    3.5319    3.8720    0.0000 H   0  0  0  0  0  0  0  0  0  0  0  0
    3.0345    5.9626    0.0000 H   0  0  0  0  0  0  0  0  0  0  0  0
    2.5623    6.7014    0.0000 H   0  0  0  0  0  0  0  0  0  0  0  0
    1.8235    6.2291    0.0000 H   0  0  0  0  0  0  0  0  0  0  0  0
    4.3089    4.2018    0.0000 H   0  0  0  0  0  0  0  0  0  0  0  0
    3.9107    4.8922    0.0000 H   0  0  0  0  0  0  0  0  0  0  0  0
    4.0294    5.3341    0.0000 H   0  0  0  0  0  0  0  0  0  0  0  0
    3.9230    6.2044    0.0000 H   0  0  0  0  0  0  0  0  0  0  0  0
    3.0526    6.0980    0.0000 H   0  0  0  0  0  0  0  0  0  0  0  0
    3.0873    3.4177    0.0000 H   0  0  0  0  0  0  0  0  0  0  0  0
    3.4855    2.7272    0.0000 H   0  0  0  0  0  0  0  0  0  0  0  0
    5.1007    3.1191    0.0000 H   0  0  0  0  0  0  0  0  0  0  0  0
    4.3537   13.5087    0.0000 H   0  0  0  0  0  0  0  0  0  0  0  0
    5.0526   16.1167    0.0000 H   0  0  0  0  0  0  0  0  0  0  0  0
    3.4851    1.8924    0.0000 H   0  0  0  0  0  0  0  0  0  0  0  0
    3.0863    1.2024    0.0000 H   0  0  0  0  0  0  0  0  0  0  0  0
    5.1187    0.7721    0.0000 H   0  0  0  0  0  0  0  0  0  0  0  0
    5.9657    0.9986    0.0000 H   0  0  0  0  0  0  0  0  0  0  0  0
    5.7392    1.8457    0.0000 H   0  0  0  0  0  0  0  0  0  0  0  0
    4.4137   16.8107    0.0000 H   0  0  0  0  0  0  0  0  0  0  0  0
    3.4828   16.3703    0.0000 H   0  0  0  0  0  0  0  0  0  0  0  0
    5.7777   13.2324    0.0000 H   0  0  0  0  0  0  0  0  0  0  0  0
    6.5666   13.6432    0.0000 H   0  0  0  0  0  0  0  0  0  0  0  0
    6.8255   14.6091    0.0000 H   0  0  0  0  0  0  0  0  0  0  0  0
    6.4264   15.3754    0.0000 H   0  0  0  0  0  0  0  0  0  0  0  0
    2.1246   13.8392    0.0000 H   0  0  0  0  0  0  0  0  0  0  0  0
    1.7140   13.1559    0.0000 H   0  0  0  0  0  0  0  0  0  0  0  0
    2.7832   12.6378    0.0000 H   0  0  0  0  0  0  0  0  0  0  0  0
    3.5101   12.1475    0.0000 H   0  0  0  0  0  0  0  0  0  0  0  0
    4.0004   12.8744    0.0000 H   0  0  0  0  0  0  0  0  0  0  0  0
    1.8987   15.7177    0.0000 H   0  0  0  0  0  0  0  0  0  0  0  0
    1.4448   14.7444    0.0000 H   0  0  0  0  0  0  0  0  0  0  0  0
    2.5108   11.6669    0.0000 H   0  0  0  0  0  0  0  0  0  0  0  0
    2.9213   12.3501    0.0000 H   0  0  0  0  0  0  0  0  0  0  0  0
    3.1593    0.0000    0.0000 H   0  0  0  0  0  0  0  0  0  0  0  0
    0.9029   12.0876    0.0000 H   0  0  0  0  0  0  0  0  0  0  0  0
    2.8827   10.1351    0.0000 H   0  0  0  0  0  0  0  0  0  0  0  0
    2.4962   10.8322    0.0000 H   0  0  0  0  0  0  0  0  0  0  0  0
    0.2417   10.8259    0.0000 H   0  0  0  0  0  0  0  0  0  0  0  0
    0.0000    9.9830    0.0000 H   0  0  0  0  0  0  0  0  0  0  0  0
    0.8428    9.7414    0.0000 H   0  0  0  0  0  0  0  0  0  0  0  0
    2.7880    8.9342    0.0000 H   0  0  0  0  0  0  0  0  0  0  0  0
  1 18  1  0  0  0  0
  1 73  1  0  0  0  0
  2 31  1  0  0  0  0
  2 80  1  0  0  0  0
  3  4  1  0  0  0  0
  3 10  1  0  0  0  0
  4  5  1  0  0  0  0
  4  8  1  0  0  0  0
  4 33  1  0  0  0  0
  5  3  1  6  0  0  0
  5  9  1  0  0  0  0
  5 34  1  0  0  0  0
  6  3  1  1  0  0  0
  6  7  1  0  0  0  0
  6 11  1  0  0  0  0
  6 12  1  0  0  0  0
  7  8  1  0  0  0  0
  7  9  1  0  0  0  0
  7 35  1  0  0  0  0
  8 36  1  0  0  0  0
  8 37  1  0  0  0  0
  9 38  1  0  0  0  0
  9 39  1  0  0  0  0
 10 40  1  0  0  0  0
 10 41  1  0  0  0  0
 10 42  1  0  0  0  0
 11 13  1  0  0  0  0
 11 43  1  0  0  0  0
 11 44  1  0  0  0  0
 12 45  1  0  0  0  0
 12 46  1  0  0  0  0
 12 47  1  0  0  0  0
 13 14  1  0  0  0  0
 13 48  1  0  0  0  0
 13 49  1  0  0  0  0
 14 15  2  0  0  0  0
 14 50  1  0  0  0  0
 15 18  1  0  0  0  0
 15 19  1  0  0  0  0
 16 17  1  6  0  0  0
 16 21  1  0  0  0  0
 16 22  1  0  0  0  0
 16 51  1  0  0  0  0
 17 23  1  0  0  0  0
 17 25  1  1  0  0  0
 17 26  1  0  0  0  0
 18 53  1  0  0  0  0
 18 54  1  0  0  0  0
 19 55  1  0  0  0  0
 19 56  1  0  0  0  0
 19 57  1  0  0  0  0
 20 21  1  0  0  0  0
 20 23  1  0  0  0  0
 20 24  1  0  0  0  0
 20 52  1  6  0  0  0
 21 58  1  0  0  0  0
 21 59  1  0  0  0  0
 22 24  1  0  0  0  0
 22 60  1  0  0  0  0
 22 61  1  0  0  0  0
 23 27  2  0  0  0  0
 24 62  1  0  0  0  0
 24 63  1  0  0  0  0
 25 28  1  0  0  0  0
 25 64  1  0  0  0  0
 25 65  1  0  0  0  0
 26 66  1  0  0  0  0
 26 67  1  0  0  0  0
 26 68  1  0  0  0  0
 27 69  1  0  0  0  0
 27 70  1  0  0  0  0
 28 29  1  0  0  0  0
 28 71  1  0  0  0  0
 28 72  1  0  0  0  0
 29 30  2  0  0  0  0
 29 74  1  0  0  0  0
 30 31  1  0  0  0  0
 30 32  1  0  0  0  0
 31 75  1  0  0  0  0
 31 76  1  0  0  0  0
 32 77  1  0  0  0  0
 32 78  1  0  0  0  0
 32 79  1  0  0  0  0
M  END
>  <PUBCHEM_COMPOUND_CID>
24832101

>  <PUBCHEM_COMPOUND_CANONICALIZED>
1

>  <PUBCHEM_CACTVS_COMPLEXITY>
647

>  <PUBCHEM_CACTVS_HBOND_ACCEPTOR>
2

>  <PUBCHEM_CACTVS_HBOND_DONOR>
2

>  <PUBCHEM_CACTVS_ROTATABLE_BOND>
8

>  <PUBCHEM_CACTVS_SUBSKEYS>
AAADcfB4MAAAAAAAAAAAAAAAGAAAAYMGDBgwAAAAAAAAAAAAAAAAGgAACAAADwCggAICAAAAAgCAAiBCAAAAAAAgAAAACAAAAAgAFAIAAQAAUAAAgAAIEAMAgMAPgAAAAAAAAACAAAQAACAAAQAACAAAAA==

>  <PUBCHEM_IUPAC_OPENEYE_NAME>
(Z)-5-[(3R,6S)-2,3-dimethyl-4,5,6,7-tetrahydro-1H-tricyclo[2.2.1.0^{2,6}]heptan-3-yl]-2-methyl-pent-2-en-1-ol;(Z)-2-methyl-5-[(1S,2R,4R)-2-methyl-3-methylene-norbornan-2-yl]pent-2-en-1-ol

>  <PUBCHEM_IUPAC_CAS_NAME>
(Z)-5-[(3R,6S)-2,3-dimethyl-4,5,6,7-tetrahydro-1H-tricyclo[2.2.1.0^{2,6}]heptan-3-yl]-2-methyl-2-penten-1-ol;(Z)-2-methyl-5-[(1R,3R,4S)-3-methyl-2-methylene-3-bicyclo[2.2.1]heptanyl]-2-penten-1-ol

>  <PUBCHEM_IUPAC_NAME>
(Z)-5-[(3R,6S)-2,3-dimethyl-4,5,6,7-tetrahydro-1H-tricyclo[2.2.1.0^{2,6}]heptan-3-yl]-2-methylpent-2-en-1-ol;(Z)-2-methyl-5-[(1R,3R,4S)-3-methyl-2-methylidene-3-bicyclo[2.2.1]heptanyl]pent-2-en-1-ol

>  <PUBCHEM_IUPAC_SYSTEMATIC_NAME>
(Z)-5-[(3R,6S)-2,3-dimethyl-4,5,6,7-tetrahydro-1H-tricyclo[2.2.1.0^{2,6}]heptan-3-yl]-2-methyl-pent-2-en-1-ol;(Z)-2-methyl-5-[(1R,3R,4S)-3-methyl-2-methylidene-3-bicyclo[2.2.1]heptanyl]pent-2-en-1-ol

>  <PUBCHEM_IUPAC_TRADITIONAL_NAME>
(Z)-5-[(3R,6S)-2,3-dimethyl-4,5,6,7-tetrahydro-1H-tricyclo[2.2.1.0^{2,6}]heptan-3-yl]-2-methyl-pent-2-en-1-ol;(Z)-2-methyl-5-[(1S,2R,4R)-2-methyl-3-methylene-norbornan-2-yl]pent-2-en-1-ol

>  <PUBCHEM_IUPAC_INCHI>
InChI=1S/2C15H24O/c1-10(9-16)5-4-6-14(2)11-7-12-13(8-11)15(12,14)3;1-11(10-16)5-4-8-15(3)12(2)13-6-7-14(15)9-13/h5,11-13,16H,4,6-9H2,1-3H3;5,13-14,16H,2,4,6-10H2,1,3H3/b10-5-;11-5-/t11?,12-,13?,14+,15?;13-,14+,15+/m01/s1

>  <PUBCHEM_IUPAC_INCHIKEY>
MDCTURIGCBTRQI-DUVCVOTCSA-N

>  <PUBCHEM_EXACT_MASS>
440.365

>  <PUBCHEM_MOLECULAR_FORMULA>
C30H48O2

>  <PUBCHEM_MOLECULAR_WEIGHT>
440.712

>  <PUBCHEM_OPENEYE_CAN_SMILES>
CC(=CCCC1(C2CCC(C2)C1=C)C)CO.CC(=CCCC1(C2CC3C1(C3C2)C)C)CO

>  <PUBCHEM_OPENEYE_ISO_SMILES>
C/C(=C/CC[C@@]1([C@H]2CC[C@H](C2)C1=C)C)/CO.C/C(=C/CC[C@@]1(C2C[C@@H]3C1(C3C2)C)C)/CO

>  <PUBCHEM_CACTVS_TPSA>
40.5

>  <PUBCHEM_MONOISOTOPIC_WEIGHT>
440.365

>  <PUBCHEM_TOTAL_CHARGE>
0

>  <PUBCHEM_HEAVY_ATOM_COUNT>
32

>  <PUBCHEM_ATOM_DEF_STEREO_COUNT>
5

>  <PUBCHEM_ATOM_UDEF_STEREO_COUNT>
1

>  <PUBCHEM_BOND_DEF_STEREO_COUNT>
2

>  <PUBCHEM_BOND_UDEF_STEREO_COUNT>
0

>  <PUBCHEM_ISOTOPIC_ATOM_COUNT>
0

>  <PUBCHEM_COMPONENT_COUNT>
2

>  <PUBCHEM_CACTVS_TAUTO_COUNT>
1

>  <PUBCHEM_COORDINATE_TYPE>
1
5
255

>  <PUBCHEM_BONDANNOTATIONS>
16  51  5
17  26  6
20  52  6
4  8  3
5  34  6
6  12  6

$$$$
