24898872
 OpenBabel06101807152D

 32 34  0  0  0  0  0  0  0  0999 V2000
    8.0321    1.0555    0.0000 O   0  0  0  0  0  0  0  0  0  0  0  0
    7.0864   -1.8424    0.0000 O   0  0  0  0  0  0  0  0  0  0  0  0
    8.3780   -0.6884    0.0000 O   0  0  0  0  0  0  0  0  0  0  0  0
    4.5274    1.9681    0.0000 N   0  0  0  0  0  0  0  0  0  0  0  0
    5.0274    0.4292    0.0000 C   0  0  0  0  0  0  0  0  0  0  0  0
    4.0274    0.4292    0.0000 C   0  0  0  0  0  0  0  0  0  0  0  0
    5.3364    1.3803    0.0000 C   0  0  0  0  0  0  0  0  0  0  0  0
    3.7183    1.3803    0.0000 C   0  0  0  0  0  0  0  0  0  0  0  0
    5.7123   -0.3555    0.0000 C   0  0  0  0  0  0  0  0  0  0  0  0
    6.3518    1.6126    0.0000 C   0  0  0  0  0  0  0  0  0  0  0  0
    6.7328   -0.1468    0.0000 C   0  0  0  0  0  0  0  0  0  0  0  0
    7.0547    0.8439    0.0000 C   0  0  0  0  0  0  0  0  0  0  0  0
    3.3424   -0.3555    0.0000 C   0  0  0  0  0  0  0  0  0  0  0  0
    2.7029    1.6126    0.0000 C   0  0  0  0  0  0  0  0  0  0  0  0
    2.3219   -0.1468    0.0000 C   0  0  0  0  0  0  0  0  0  0  0  0
    2.0000    0.8439    0.0000 C   0  0  0  0  0  0  0  0  0  0  0  0
    7.3991   -0.8925    0.0000 C   0  0  0  0  0  0  0  0  0  0  0  0
    8.3374    2.0078    0.0000 C   0  0  0  0  0  0  0  0  0  0  0  0
    7.7527   -2.5881    0.0000 C   0  0  0  0  0  0  0  0  0  0  0  0
    4.5274    2.5881    0.0000 H   0  0  0  0  0  0  0  0  0  0  0  0
    5.5139   -0.9429    0.0000 H   0  0  0  0  0  0  0  0  0  0  0  0
    6.5365    2.2044    0.0000 H   0  0  0  0  0  0  0  0  0  0  0  0
    3.5408   -0.9429    0.0000 H   0  0  0  0  0  0  0  0  0  0  0  0
    2.5182    2.2044    0.0000 H   0  0  0  0  0  0  0  0  0  0  0  0
    1.9088   -0.6091    0.0000 H   0  0  0  0  0  0  0  0  0  0  0  0
    1.3940    0.9751    0.0000 H   0  0  0  0  0  0  0  0  0  0  0  0
    8.9278    1.8185    0.0000 H   0  0  0  0  0  0  0  0  0  0  0  0
    8.5267    2.5982    0.0000 H   0  0  0  0  0  0  0  0  0  0  0  0
    7.7470    2.1971    0.0000 H   0  0  0  0  0  0  0  0  0  0  0  0
    7.2903   -3.0012    0.0000 H   0  0  0  0  0  0  0  0  0  0  0  0
    8.1658   -3.0504    0.0000 H   0  0  0  0  0  0  0  0  0  0  0  0
    8.2150   -2.1750    0.0000 H   0  0  0  0  0  0  0  0  0  0  0  0
  1 12  1  0  0  0  0
  1 18  1  0  0  0  0
  2 17  1  0  0  0  0
  2 19  1  0  0  0  0
  3 17  2  0  0  0  0
  4  7  1  0  0  0  0
  4  8  1  0  0  0  0
  4 20  1  0  0  0  0
  5  6  1  0  0  0  0
  5  7  1  0  0  0  0
  5  9  2  0  0  0  0
  6  8  1  0  0  0  0
  6 13  2  0  0  0  0
  7 10  2  0  0  0  0
  8 14  2  0  0  0  0
  9 11  1  0  0  0  0
  9 21  1  0  0  0  0
 10 12  1  0  0  0  0
 10 22  1  0  0  0  0
 11 12  2  0  0  0  0
 11 17  1  0  0  0  0
 13 15  1  0  0  0  0
 13 23  1  0  0  0  0
 14 16  1  0  0  0  0
 14 24  1  0  0  0  0
 15 16  2  0  0  0  0
 15 25  1  0  0  0  0
 16 26  1  0  0  0  0
 18 27  1  0  0  0  0
 18 28  1  0  0  0  0
 18 29  1  0  0  0  0
 19 30  1  0  0  0  0
 19 31  1  0  0  0  0
 19 32  1  0  0  0  0
M  END
>  <PUBCHEM_COMPOUND_CID>
24898872

>  <PUBCHEM_COMPOUND_CANONICALIZED>
1

>  <PUBCHEM_CACTVS_COMPLEXITY>
346

>  <PUBCHEM_CACTVS_HBOND_ACCEPTOR>
3

>  <PUBCHEM_CACTVS_HBOND_DONOR>
1

>  <PUBCHEM_CACTVS_ROTATABLE_BOND>
3

>  <PUBCHEM_CACTVS_SUBSKEYS>
AAADccByMAAAAAAAAAAAAAAAAAAAAWAAAAAwYAAAAAAAAFgB/AAAHgAQAAAADAyBngIyzvLJlACoAyTyTACCiCAlIiAImSE2bNgMJ/bEtZuEMWhn8BnI6YeY2fOeqAACAgAKAABQAAQEABQAAAAAAAAAAA==

>  <PUBCHEM_IUPAC_OPENEYE_NAME>
methyl 2-methoxy-9H-carbazole-3-carboxylate

>  <PUBCHEM_IUPAC_CAS_NAME>
2-methoxy-9H-carbazole-3-carboxylic acid methyl ester

>  <PUBCHEM_IUPAC_NAME>
methyl 2-methoxy-9H-carbazole-3-carboxylate

>  <PUBCHEM_IUPAC_SYSTEMATIC_NAME>
methyl 2-methoxy-9H-carbazole-3-carboxylate

>  <PUBCHEM_IUPAC_TRADITIONAL_NAME>
2-methoxy-9H-carbazole-3-carboxylic acid methyl ester

>  <PUBCHEM_IUPAC_INCHI>
InChI=1S/C15H13NO3/c1-18-14-8-13-10(7-11(14)15(17)19-2)9-5-3-4-6-12(9)16-13/h3-8,16H,1-2H3

>  <PUBCHEM_IUPAC_INCHIKEY>
BYDOYRHWHKPKQP-UHFFFAOYSA-N

>  <PUBCHEM_XLOGP3_AA>
3.2

>  <PUBCHEM_EXACT_MASS>
255.09

>  <PUBCHEM_MOLECULAR_FORMULA>
C15H13NO3

>  <PUBCHEM_MOLECULAR_WEIGHT>
255.273

>  <PUBCHEM_OPENEYE_CAN_SMILES>
COC1=C(C=C2C3=CC=CC=C3NC2=C1)C(=O)OC

>  <PUBCHEM_OPENEYE_ISO_SMILES>
COC1=C(C=C2C3=CC=CC=C3NC2=C1)C(=O)OC

>  <PUBCHEM_CACTVS_TPSA>
51.3

>  <PUBCHEM_MONOISOTOPIC_WEIGHT>
255.09

>  <PUBCHEM_TOTAL_CHARGE>
0

>  <PUBCHEM_HEAVY_ATOM_COUNT>
19

>  <PUBCHEM_ATOM_DEF_STEREO_COUNT>
0

>  <PUBCHEM_ATOM_UDEF_STEREO_COUNT>
0

>  <PUBCHEM_BOND_DEF_STEREO_COUNT>
0

>  <PUBCHEM_BOND_UDEF_STEREO_COUNT>
0

>  <PUBCHEM_ISOTOPIC_ATOM_COUNT>
0

>  <PUBCHEM_COMPONENT_COUNT>
1

>  <PUBCHEM_CACTVS_TAUTO_COUNT>
3

>  <PUBCHEM_COORDINATE_TYPE>
1
5
255

>  <PUBCHEM_BONDANNOTATIONS>
10  12  8
11  12  8
13  15  8
14  16  8
15  16  8
4  7  8
4  8  8
5  6  8
5  7  8
5  9  8
6  13  8
6  8  8
7  10  8
8  14  8
9  11  8

$$$$
