25208599
 OpenBabel06101807152D

 42 45  0  0  0  0  0  0  0  0999 V2000
    6.3582   -0.4624    0.0000 O   0  0  0  0  0  0  0  0  0  0  0  0
    8.5022    1.6061    0.0000 O   0  0  0  0  0  0  0  0  0  0  0  0
    2.8687    0.4418    0.0000 O   0  0  0  0  0  0  0  0  0  0  0  0
    3.4981    2.3846    0.0000 O   0  0  0  0  0  0  0  0  0  0  0  0
    7.2151    2.7650    0.0000 O   0  0  0  0  0  0  0  0  0  0  0  0
   11.1418   -0.7381    0.0000 O   0  0  0  0  0  0  0  0  0  0  0  0
    5.8609    1.0683    0.0000 C   0  0  0  0  0  0  0  0  0  0  0  0
    5.5545    0.1226    0.0000 C   0  0  0  0  0  0  0  0  0  0  0  0
    6.8550    1.0708    0.0000 C   0  0  0  0  0  0  0  0  0  0  0  0
    7.1640    0.1198    0.0000 C   0  0  0  0  0  0  0  0  0  0  0  0
    4.5453   -0.1092    0.0000 C   0  0  0  0  0  0  0  0  0  0  0  0
    8.1421   -0.0881    0.0000 C   0  0  0  0  0  0  0  0  0  0  0  0
    4.2482   -1.0640    0.0000 C   0  0  0  0  0  0  0  0  0  0  0  0
    5.1793    1.8478    0.0000 C   0  0  0  0  0  0  0  0  0  0  0  0
    3.8459    0.6544    0.0000 C   0  0  0  0  0  0  0  0  0  0  0  0
    8.8113    0.6550    0.0000 C   0  0  0  0  0  0  0  0  0  0  0  0
    4.1650    1.6394    0.0000 C   0  0  0  0  0  0  0  0  0  0  0  0
    7.5241    1.8140    0.0000 C   0  0  0  0  0  0  0  0  0  0  0  0
    8.4487   -1.0836    0.0000 C   0  0  0  0  0  0  0  0  0  0  0  0
    3.2727   -1.2840    0.0000 C   0  0  0  0  0  0  0  0  0  0  0  0
    9.8334    0.4542    0.0000 C   0  0  0  0  0  0  0  0  0  0  0  0
    9.4659   -1.3080    0.0000 C   0  0  0  0  0  0  0  0  0  0  0  0
   10.1629   -0.5339    0.0000 C   0  0  0  0  0  0  0  0  0  0  0  0
    2.9755   -2.2389    0.0000 C   0  0  0  0  0  0  0  0  0  0  0  0
    2.0000   -2.4589    0.0000 C   0  0  0  0  0  0  0  0  0  0  0  0
    3.6538   -2.9736    0.0000 C   0  0  0  0  0  0  0  0  0  0  0  0
    4.2775   -1.6833    0.0000 H   0  0  0  0  0  0  0  0  0  0  0  0
    4.8631   -1.1426    0.0000 H   0  0  0  0  0  0  0  0  0  0  0  0
    5.3772    2.4353    0.0000 H   0  0  0  0  0  0  0  0  0  0  0  0
    8.0285   -1.5395    0.0000 H   0  0  0  0  0  0  0  0  0  0  0  0
    2.8521   -0.8285    0.0000 H   0  0  0  0  0  0  0  0  0  0  0  0
   10.2429    0.9197    0.0000 H   0  0  0  0  0  0  0  0  0  0  0  0
    9.6552   -1.8984    0.0000 H   0  0  0  0  0  0  0  0  0  0  0  0
    2.4517    0.9006    0.0000 H   0  0  0  0  0  0  0  0  0  0  0  0
    3.6915    2.9736    0.0000 H   0  0  0  0  0  0  0  0  0  0  0  0
    1.8636   -1.8541    0.0000 H   0  0  0  0  0  0  0  0  0  0  0  0
    1.3952   -2.5954    0.0000 H   0  0  0  0  0  0  0  0  0  0  0  0
    3.1982   -3.3942    0.0000 H   0  0  0  0  0  0  0  0  0  0  0  0
    4.0744   -3.4292    0.0000 H   0  0  0  0  0  0  0  0  0  0  0  0
    4.1094   -2.5531    0.0000 H   0  0  0  0  0  0  0  0  0  0  0  0
    2.1364   -3.0637    0.0000 H   0  0  0  0  0  0  0  0  0  0  0  0
   11.3357   -1.3270    0.0000 H   0  0  0  0  0  0  0  0  0  0  0  0
  1  8  1  0  0  0  0
  1 10  1  0  0  0  0
  2 16  1  0  0  0  0
  2 18  1  0  0  0  0
  3 15  1  0  0  0  0
  3 34  1  0  0  0  0
  4 17  1  0  0  0  0
  4 35  1  0  0  0  0
  5 18  2  0  0  0  0
  6 23  1  0  0  0  0
  6 42  1  0  0  0  0
  7  8  1  0  0  0  0
  7  9  1  0  0  0  0
  7 14  2  0  0  0  0
  8 11  2  0  0  0  0
  9 10  2  0  0  0  0
  9 18  1  0  0  0  0
 10 12  1  0  0  0  0
 11 13  1  0  0  0  0
 11 15  1  0  0  0  0
 12 16  2  0  0  0  0
 12 19  1  0  0  0  0
 13 20  1  0  0  0  0
 13 27  1  0  0  0  0
 13 28  1  0  0  0  0
 14 17  1  0  0  0  0
 14 29  1  0  0  0  0
 15 17  2  0  0  0  0
 16 21  1  0  0  0  0
 19 22  2  0  0  0  0
 19 30  1  0  0  0  0
 20 24  2  0  0  0  0
 20 31  1  0  0  0  0
 21 23  2  0  0  0  0
 21 32  1  0  0  0  0
 22 23  1  0  0  0  0
 22 33  1  0  0  0  0
 24 25  1  0  0  0  0
 24 26  1  0  0  0  0
 25 36  1  0  0  0  0
 25 37  1  0  0  0  0
 25 41  1  0  0  0  0
 26 38  1  0  0  0  0
 26 39  1  0  0  0  0
 26 40  1  0  0  0  0
M  END
>  <PUBCHEM_COMPOUND_CID>
25208599

>  <PUBCHEM_COMPOUND_CANONICALIZED>
1

>  <PUBCHEM_CACTVS_COMPLEXITY>
585

>  <PUBCHEM_CACTVS_HBOND_ACCEPTOR>
6

>  <PUBCHEM_CACTVS_HBOND_DONOR>
3

>  <PUBCHEM_CACTVS_ROTATABLE_BOND>
2

>  <PUBCHEM_CACTVS_SUBSKEYS>
AAADceB4OAAAAAAAAAAAAAAAAAAAASAAAAA0YIAAAAAAAEiR9AAAGgAACAAADASAmAAyDsAABkCIAqDSCAACCAAkIAAIiAEGiMgNJzaONRqCe2Gl4BUJuYfL7PzOoQADCAAIQABCAAYQABCAAAAAAAAAAA==

>  <PUBCHEM_IUPAC_OPENEYE_NAME>
3,8,9-trihydroxy-10-(3-methylbut-2-enyl)benzofuro[3,2-c]chromen-6-one

>  <PUBCHEM_IUPAC_CAS_NAME>
3,8,9-trihydroxy-10-(3-methylbut-2-enyl)-6-benzofuro[3,2-c][1]benzopyranone

>  <PUBCHEM_IUPAC_NAME>
3,8,9-trihydroxy-10-(3-methylbut-2-enyl)-[1]benzofuro[3,2-c]chromen-6-one

>  <PUBCHEM_IUPAC_SYSTEMATIC_NAME>
10-(3-methylbut-2-enyl)-3,8,9-tris(oxidanyl)-[1]benzofuro[3,2-c]chromen-6-one

>  <PUBCHEM_IUPAC_TRADITIONAL_NAME>
3,8,9-trihydroxy-10-(3-methylbut-2-enyl)benzofuro[3,2-c]chromen-6-one

>  <PUBCHEM_IUPAC_INCHI>
InChI=1S/C20H16O6/c1-9(2)3-5-12-17(23)14(22)8-13-16-19(26-18(12)13)11-6-4-10(21)7-15(11)25-20(16)24/h3-4,6-8,21-23H,5H2,1-2H3

>  <PUBCHEM_IUPAC_INCHIKEY>
HGNIAVOXTWPXCX-UHFFFAOYSA-N

>  <PUBCHEM_XLOGP3_AA>
4.3

>  <PUBCHEM_EXACT_MASS>
352.095

>  <PUBCHEM_MOLECULAR_FORMULA>
C20H16O6

>  <PUBCHEM_MOLECULAR_WEIGHT>
352.342

>  <PUBCHEM_OPENEYE_CAN_SMILES>
CC(=CCC1=C2C(=CC(=C1O)O)C3=C(O2)C4=C(C=C(C=C4)O)OC3=O)C

>  <PUBCHEM_OPENEYE_ISO_SMILES>
CC(=CCC1=C2C(=CC(=C1O)O)C3=C(O2)C4=C(C=C(C=C4)O)OC3=O)C

>  <PUBCHEM_CACTVS_TPSA>
100

>  <PUBCHEM_MONOISOTOPIC_WEIGHT>
352.095

>  <PUBCHEM_TOTAL_CHARGE>
0

>  <PUBCHEM_HEAVY_ATOM_COUNT>
26

>  <PUBCHEM_ATOM_DEF_STEREO_COUNT>
0

>  <PUBCHEM_ATOM_UDEF_STEREO_COUNT>
0

>  <PUBCHEM_BOND_DEF_STEREO_COUNT>
0

>  <PUBCHEM_BOND_UDEF_STEREO_COUNT>
0

>  <PUBCHEM_ISOTOPIC_ATOM_COUNT>
0

>  <PUBCHEM_COMPONENT_COUNT>
1

>  <PUBCHEM_CACTVS_TAUTO_COUNT>
268

>  <PUBCHEM_COORDINATE_TYPE>
1
5
255

>  <PUBCHEM_BONDANNOTATIONS>
1  10  8
1  8  8
10  12  8
11  15  8
12  16  8
12  19  8
14  17  8
15  17  8
16  21  8
19  22  8
2  16  8
2  18  8
21  23  8
22  23  8
7  14  8
7  8  8
7  9  8
8  11  8
9  10  8
9  18  8

$$$$
