25208125
 OpenBabel06101807152D

 46 48  0  0  0  0  0  0  0  0999 V2000
    6.4103   -1.9387    0.0000 O   0  0  0  0  0  0  0  0  0  0  0  0
    2.8660   -0.1340    0.0000 O   0  0  0  0  0  0  0  0  0  0  0  0
    2.8660    0.8660    0.0000 O   0  0  0  0  0  0  0  0  0  0  0  0
    2.8660   -2.1340    0.0000 O   0  0  0  0  0  0  0  0  0  0  0  0
    9.9939    0.5981    0.0000 O   0  0  0  0  0  0  0  0  0  0  0  0
    9.9939   -2.8660    0.0000 O   0  0  0  0  0  0  0  0  0  0  0  0
    4.5981   -0.1340    0.0000 C   0  0  0  0  0  0  0  0  0  0  0  0
    5.4641   -0.6340    0.0000 C   0  0  0  0  0  0  0  0  0  0  0  0
    4.5981    0.8660    0.0000 C   0  0  0  0  0  0  0  0  0  0  0  0
    5.4641   -1.6340    0.0000 C   0  0  0  0  0  0  0  0  0  0  0  0
    3.7320    2.3660    0.0000 C   0  0  0  0  0  0  0  0  0  0  0  0
    3.7320    1.3660    0.0000 C   0  0  0  0  0  0  0  0  0  0  0  0
    3.7320   -0.6340    0.0000 C   0  0  0  0  0  0  0  0  0  0  0  0
    6.4103   -0.3292    0.0000 C   0  0  0  0  0  0  0  0  0  0  0  0
    6.9939   -1.1340    0.0000 C   0  0  0  0  0  0  0  0  0  0  0  0
    4.5981   -2.1340    0.0000 C   0  0  0  0  0  0  0  0  0  0  0  0
    3.7320   -1.6340    0.0000 C   0  0  0  0  0  0  0  0  0  0  0  0
    2.8660    2.8660    0.0000 C   0  0  0  0  0  0  0  0  0  0  0  0
    4.5981    2.8660    0.0000 C   0  0  0  0  0  0  0  0  0  0  0  0
    7.9939   -1.1340    0.0000 C   0  0  0  0  0  0  0  0  0  0  0  0
    8.4939   -2.0000    0.0000 C   0  0  0  0  0  0  0  0  0  0  0  0
    8.4939   -0.2679    0.0000 C   0  0  0  0  0  0  0  0  0  0  0  0
    9.4939   -0.2679    0.0000 C   0  0  0  0  0  0  0  0  0  0  0  0
    9.4939   -2.0000    0.0000 C   0  0  0  0  0  0  0  0  0  0  0  0
    2.0000   -0.6340    0.0000 C   0  0  0  0  0  0  0  0  0  0  0  0
    9.9939   -1.1340    0.0000 C   0  0  0  0  0  0  0  0  0  0  0  0
    5.2087    0.7584    0.0000 H   0  0  0  0  0  0  0  0  0  0  0  0
    4.8101    1.4486    0.0000 H   0  0  0  0  0  0  0  0  0  0  0  0
    3.7320    2.9860    0.0000 H   0  0  0  0  0  0  0  0  0  0  0  0
    6.6029    0.2601    0.0000 H   0  0  0  0  0  0  0  0  0  0  0  0
    4.5981   -2.7540    0.0000 H   0  0  0  0  0  0  0  0  0  0  0  0
    3.1760    3.4030    0.0000 H   0  0  0  0  0  0  0  0  0  0  0  0
    4.9081    2.3291    0.0000 H   0  0  0  0  0  0  0  0  0  0  0  0
    5.1350    3.1760    0.0000 H   0  0  0  0  0  0  0  0  0  0  0  0
    4.2881    3.4030    0.0000 H   0  0  0  0  0  0  0  0  0  0  0  0
    2.3291    3.1760    0.0000 H   0  0  0  0  0  0  0  0  0  0  0  0
    2.5560    2.3291    0.0000 H   0  0  0  0  0  0  0  0  0  0  0  0
    8.1839   -2.5369    0.0000 H   0  0  0  0  0  0  0  0  0  0  0  0
    8.1839    0.2690    0.0000 H   0  0  0  0  0  0  0  0  0  0  0  0
    2.8660   -2.7540    0.0000 H   0  0  0  0  0  0  0  0  0  0  0  0
    1.6900   -0.0970    0.0000 H   0  0  0  0  0  0  0  0  0  0  0  0
    1.4631   -0.9440    0.0000 H   0  0  0  0  0  0  0  0  0  0  0  0
    2.3100   -1.1709    0.0000 H   0  0  0  0  0  0  0  0  0  0  0  0
   10.6139   -1.1340    0.0000 H   0  0  0  0  0  0  0  0  0  0  0  0
   10.6139    0.5981    0.0000 H   0  0  0  0  0  0  0  0  0  0  0  0
   10.6139   -2.8660    0.0000 H   0  0  0  0  0  0  0  0  0  0  0  0
  1 10  1  0  0  0  0
  1 15  1  0  0  0  0
  2 13  1  0  0  0  0
  2 25  1  0  0  0  0
  3 12  2  0  0  0  0
  4 17  1  0  0  0  0
  4 40  1  0  0  0  0
  5 23  1  0  0  0  0
  5 45  1  0  0  0  0
  6 24  1  0  0  0  0
  6 46  1  0  0  0  0
  7  8  1  0  0  0  0
  7  9  1  0  0  0  0
  7 13  2  0  0  0  0
  8 10  2  0  0  0  0
  8 14  1  0  0  0  0
  9 12  1  0  0  0  0
  9 27  1  0  0  0  0
  9 28  1  0  0  0  0
 10 16  1  0  0  0  0
 11 12  1  0  0  0  0
 11 18  1  0  0  0  0
 11 19  1  0  0  0  0
 11 29  1  0  0  0  0
 13 17  1  0  0  0  0
 14 15  2  0  0  0  0
 14 30  1  0  0  0  0
 15 20  1  0  0  0  0
 16 17  2  0  0  0  0
 16 31  1  0  0  0  0
 18 32  1  0  0  0  0
 18 36  1  0  0  0  0
 18 37  1  0  0  0  0
 19 33  1  0  0  0  0
 19 34  1  0  0  0  0
 19 35  1  0  0  0  0
 20 21  2  0  0  0  0
 20 22  1  0  0  0  0
 21 24  1  0  0  0  0
 21 38  1  0  0  0  0
 22 23  2  0  0  0  0
 22 39  1  0  0  0  0
 23 26  1  0  0  0  0
 24 26  2  0  0  0  0
 25 41  1  0  0  0  0
 25 42  1  0  0  0  0
 25 43  1  0  0  0  0
 26 44  1  0  0  0  0
M  END
>  <PUBCHEM_COMPOUND_CID>
25208125

>  <PUBCHEM_COMPOUND_CANONICALIZED>
1

>  <PUBCHEM_CACTVS_COMPLEXITY>
485

>  <PUBCHEM_CACTVS_HBOND_ACCEPTOR>
6

>  <PUBCHEM_CACTVS_HBOND_DONOR>
3

>  <PUBCHEM_CACTVS_ROTATABLE_BOND>
5

>  <PUBCHEM_CACTVS_SUBSKEYS>
AAADceB4OAAAAAAAAAAAAAAAAAAAASAAAAAwYAAAAAAAAEgB9AAAGgAACAAADQSAmAIyBsAABkCIAqBSAAACCAAkIAAAiAEGiMgNJzaGNRqCeWOl4BULuYfK7vzuoQABCAAYQABCAAIQADCAAAAAAAAAAA==

>  <PUBCHEM_IUPAC_OPENEYE_NAME>
1-[2-(3,5-dihydroxyphenyl)-6-hydroxy-5-methoxy-benzofuran-4-yl]-3-methyl-butan-2-one

>  <PUBCHEM_IUPAC_CAS_NAME>
1-[2-(3,5-dihydroxyphenyl)-6-hydroxy-5-methoxy-4-benzofuranyl]-3-methyl-2-butanone

>  <PUBCHEM_IUPAC_NAME>
1-[2-(3,5-dihydroxyphenyl)-6-hydroxy-5-methoxy-1-benzofuran-4-yl]-3-methylbutan-2-one

>  <PUBCHEM_IUPAC_SYSTEMATIC_NAME>
1-[2-[3,5-bis(oxidanyl)phenyl]-5-methoxy-6-oxidanyl-1-benzofuran-4-yl]-3-methyl-butan-2-one

>  <PUBCHEM_IUPAC_TRADITIONAL_NAME>
1-[2-(3,5-dihydroxyphenyl)-6-hydroxy-5-methoxy-benzofuran-4-yl]-3-methyl-butan-2-one

>  <PUBCHEM_IUPAC_INCHI>
InChI=1S/C20H20O6/c1-10(2)16(23)7-15-14-8-18(11-4-12(21)6-13(22)5-11)26-19(14)9-17(24)20(15)25-3/h4-6,8-10,21-22,24H,7H2,1-3H3

>  <PUBCHEM_IUPAC_INCHIKEY>
WMDVTEYZKOEFEB-UHFFFAOYSA-N

>  <PUBCHEM_XLOGP3_AA>
3.6

>  <PUBCHEM_EXACT_MASS>
356.126

>  <PUBCHEM_MOLECULAR_FORMULA>
C20H20O6

>  <PUBCHEM_MOLECULAR_WEIGHT>
356.374

>  <PUBCHEM_OPENEYE_CAN_SMILES>
CC(C)C(=O)CC1=C2C=C(OC2=CC(=C1OC)O)C3=CC(=CC(=C3)O)O

>  <PUBCHEM_OPENEYE_ISO_SMILES>
CC(C)C(=O)CC1=C2C=C(OC2=CC(=C1OC)O)C3=CC(=CC(=C3)O)O

>  <PUBCHEM_CACTVS_TPSA>
100

>  <PUBCHEM_MONOISOTOPIC_WEIGHT>
356.126

>  <PUBCHEM_TOTAL_CHARGE>
0

>  <PUBCHEM_HEAVY_ATOM_COUNT>
26

>  <PUBCHEM_ATOM_DEF_STEREO_COUNT>
0

>  <PUBCHEM_ATOM_UDEF_STEREO_COUNT>
0

>  <PUBCHEM_BOND_DEF_STEREO_COUNT>
0

>  <PUBCHEM_BOND_UDEF_STEREO_COUNT>
0

>  <PUBCHEM_ISOTOPIC_ATOM_COUNT>
0

>  <PUBCHEM_COMPONENT_COUNT>
1

>  <PUBCHEM_CACTVS_TAUTO_COUNT>
145

>  <PUBCHEM_COORDINATE_TYPE>
1
5
255

>  <PUBCHEM_BONDANNOTATIONS>
1  10  8
1  15  8
10  16  8
13  17  8
14  15  8
16  17  8
20  21  8
20  22  8
21  24  8
22  23  8
23  26  8
24  26  8
7  13  8
7  8  8
8  10  8
8  14  8

$$$$
