25203277
 OpenBabel06101807152D

 52 55  0  0  1  0  0  0  0  0999 V2000
    7.2203    3.2744    0.0000 O   0  0  0  0  0  0  0  0  0  0  0  0
    2.3275   -0.9758    0.0000 O   0  0  0  0  0  0  0  0  0  0  0  0
    8.0438   -1.2895    0.0000 O   0  5  0  0  0  0  0  0  0  0  0  0
    6.8446   -2.5393    0.0000 O   0  0  0  0  0  0  0  0  0  0  0  0
    3.9615   -3.4268    0.0000 O   0  5  0  0  0  0  0  0  0  0  0  0
    5.6933   -3.4571    0.0000 O   0  0  0  0  0  0  0  0  0  0  0  0
    6.4978    0.1088    0.0000 C   0  0  1  0  0  0  0  0  0  0  0  0
    5.5968    0.5427    0.0000 C   0  0  2  0  0  0  0  0  0  0  0  0
    4.9117   -0.1776    0.0000 C   0  0  1  0  0  0  0  0  0  0  0  0
    5.3836   -1.0526    0.0000 C   0  0  2  0  0  0  0  0  0  0  0  0
    6.3618   -0.8759    0.0000 C   0  0  2  0  0  0  0  0  0  0  0  0
    6.3910    1.2856    0.0000 C   0  0  0  0  0  0  0  0  0  0  0  0
    6.9978    2.2994    0.0000 C   0  0  2  0  0  0  0  0  0  0  0  0
    7.3988    0.5427    0.0000 C   0  0  0  0  0  0  0  0  0  0  0  0
    4.8536   -1.9422    0.0000 C   0  0  2  0  0  0  0  0  0  0  0  0
    5.3743    1.5176    0.0000 C   0  0  0  0  0  0  0  0  0  0  0  0
    3.8773   -0.1316    0.0000 C   0  0  0  0  0  0  0  0  0  0  0  0
    5.9978    2.2994    0.0000 C   0  0  0  0  0  0  0  0  0  0  0  0
    7.6213    1.5176    0.0000 C   0  0  0  0  0  0  0  0  0  0  0  0
    4.4371    0.7026    0.0000 C   0  0  0  0  0  0  0  0  0  0  0  0
    3.8184   -1.9201    0.0000 C   0  0  0  0  0  0  0  0  0  0  0  0
    3.3270   -1.0087    0.0000 C   0  0  1  0  0  0  0  0  0  0  0  0
    7.0834   -1.5683    0.0000 C   0  0  0  0  0  0  0  0  0  0  0  0
    5.7108   -2.4573    0.0000 C   0  0  0  0  0  0  0  0  0  0  0  0
    4.8362   -2.9420    0.0000 C   0  0  0  0  0  0  0  0  0  0  0  0
    8.5962    1.7401    0.0000 C   0  0  0  0  0  0  0  0  0  0  0  0
    4.8310    0.9115    0.0000 H   0  0  0  0  0  0  0  0  0  0  0  0
    5.8678   -1.7512    0.0000 H   0  0  0  0  0  0  0  0  0  0  0  0
    6.1827   -1.4695    0.0000 H   0  0  0  0  0  0  0  0  0  0  0  0
    5.9832    1.7526    0.0000 H   0  0  0  0  0  0  0  0  0  0  0  0
    5.8209    1.0417    0.0000 H   0  0  0  0  0  0  0  0  0  0  0  0
    7.5367   -0.0618    0.0000 H   0  0  0  0  0  0  0  0  0  0  0  0
    8.0188    0.5427    0.0000 H   0  0  0  0  0  0  0  0  0  0  0  0
    4.9878    2.0023    0.0000 H   0  0  0  0  0  0  0  0  0  0  0  0
    4.8157    1.2486    0.0000 H   0  0  0  0  0  0  0  0  0  0  0  0
    4.0104    0.4739    0.0000 H   0  0  0  0  0  0  0  0  0  0  0  0
    3.3035    0.1032    0.0000 H   0  0  0  0  0  0  0  0  0  0  0  0
    6.1358    2.9039    0.0000 H   0  0  0  0  0  0  0  0  0  0  0  0
    5.4392    2.5684    0.0000 H   0  0  0  0  0  0  0  0  0  0  0  0
    4.9828    0.9968    0.0000 H   0  0  0  0  0  0  0  0  0  0  0  0
    4.1428    1.2483    0.0000 H   0  0  0  0  0  0  0  0  0  0  0  0
    3.8914    0.4083    0.0000 H   0  0  0  0  0  0  0  0  0  0  0  0
    3.2304   -2.1166    0.0000 H   0  0  0  0  0  0  0  0  0  0  0  0
    3.9114   -2.5331    0.0000 H   0  0  0  0  0  0  0  0  0  0  0  0
    3.0358   -0.4613    0.0000 H   0  0  0  0  0  0  0  0  0  0  0  0
    5.3914   -2.9887    0.0000 H   0  0  0  0  0  0  0  0  0  0  0  0
    6.2422   -2.7766    0.0000 H   0  0  0  0  0  0  0  0  0  0  0  0
    6.0301   -1.9258    0.0000 H   0  0  0  0  0  0  0  0  0  0  0  0
    7.8128    3.4571    0.0000 H   0  0  0  0  0  0  0  0  0  0  0  0
    9.0179    1.2856    0.0000 H   0  0  0  0  0  0  0  0  0  0  0  0
    8.7790    2.3326    0.0000 H   0  0  0  0  0  0  0  0  0  0  0  0
    2.0000   -1.5022    0.0000 H   0  0  0  0  0  0  0  0  0  0  0  0
  1 49  1  0  0  0  0
  2 52  1  0  0  0  0
  3 23  1  0  0  0  0
  4 23  2  0  0  0  0
  5 25  1  0  0  0  0
  6 25  2  0  0  0  0
  7  8  1  1  0  0  0
  7 12  1  0  0  0  0
  7 14  1  0  0  0  0
  8  9  1  6  0  0  0
  8 16  1  0  0  0  0
  8 27  1  0  0  0  0
  9 10  1  6  0  0  0
  9 17  1  0  0  0  0
  9 20  1  0  0  0  0
 10 11  1  6  0  0  0
 10 28  1  0  0  0  0
 11  7  1  6  0  0  0
 11 23  1  0  0  0  0
 11 29  1  0  0  0  0
 12 13  1  0  0  0  0
 12 30  1  0  0  0  0
 12 31  1  0  0  0  0
 13  1  1  6  0  0  0
 13 18  1  0  0  0  0
 13 19  1  0  0  0  0
 14 19  1  0  0  0  0
 14 32  1  0  0  0  0
 14 33  1  0  0  0  0
 15 10  1  6  0  0  0
 15 21  1  0  0  0  0
 15 24  1  0  0  0  0
 15 25  1  0  0  0  0
 16 18  1  0  0  0  0
 16 34  1  0  0  0  0
 16 35  1  0  0  0  0
 17 22  1  0  0  0  0
 17 36  1  0  0  0  0
 17 37  1  0  0  0  0
 18 38  1  0  0  0  0
 18 39  1  0  0  0  0
 19 26  2  0  0  0  0
 20 40  1  0  0  0  0
 20 41  1  0  0  0  0
 20 42  1  0  0  0  0
 21 22  1  0  0  0  0
 21 43  1  0  0  0  0
 21 44  1  0  0  0  0
 22  2  1  0  0  0  0
 22 45  1  6  0  0  0
 24 46  1  0  0  0  0
 24 47  1  0  0  0  0
 24 48  1  0  0  0  0
 26 50  1  0  0  0  0
 26 51  1  0  0  0  0
M  CHG  2   3  -1   5  -1
M  END
>  <PUBCHEM_COMPOUND_CID>
25203277

>  <PUBCHEM_COMPOUND_CANONICALIZED>
1

>  <PUBCHEM_CACTVS_COMPLEXITY>
706

>  <PUBCHEM_CACTVS_HBOND_ACCEPTOR>
6

>  <PUBCHEM_CACTVS_HBOND_DONOR>
2

>  <PUBCHEM_CACTVS_ROTATABLE_BOND>
0

>  <PUBCHEM_CACTVS_SUBSKEYS>
AAADceB4OAAAAAAAAAAAAAAAAAAAAYMAAAAwYAAABgAAAGDAAAAAGgAACAAAD1SggAICCAAAAgCIAgDSCAAAAAAgAAAAAAEAAAgAFBIAAQAAQAAEgAAAEAHK7vTPgAAAAAAAAADAAAYAACAAAYAACAAAAA==

>  <PUBCHEM_IUPAC_INCHI>
InChI=1S/C20H28O6/c1-10-6-19-9-20(10,26)5-4-12(19)17(2)7-11(21)8-18(3,16(24)25)14(17)13(19)15(22)23/h11-14,21,26H,1,4-9H2,2-3H3,(H,22,23)(H,24,25)/p-2/t11-,12-,13+,14-,17-,18+,19-,20-/m0/s1

>  <PUBCHEM_IUPAC_INCHIKEY>
DBFXNHHIIKEXPP-JOJUGDBLSA-L

>  <PUBCHEM_XLOGP3_AA>
2.2

>  <PUBCHEM_EXACT_MASS>
362.173

>  <PUBCHEM_MOLECULAR_FORMULA>
C20H26O6-2

>  <PUBCHEM_MOLECULAR_WEIGHT>
362.422

>  <PUBCHEM_OPENEYE_CAN_SMILES>
CC12CC(CC(C1C(C34C2CCC(C3)(C(=C)C4)O)C(=O)[O-])(C)C(=O)[O-])O

>  <PUBCHEM_OPENEYE_ISO_SMILES>
C[C@@]12C[C@@H](C[C@@]([C@H]1[C@@H]([C@]34[C@H]2CC[C@](C3)(C(=C)C4)O)C(=O)[O-])(C)C(=O)[O-])O

>  <PUBCHEM_CACTVS_TPSA>
121

>  <PUBCHEM_MONOISOTOPIC_WEIGHT>
362.173

>  <PUBCHEM_TOTAL_CHARGE>
-2

>  <PUBCHEM_HEAVY_ATOM_COUNT>
26

>  <PUBCHEM_ATOM_DEF_STEREO_COUNT>
8

>  <PUBCHEM_ATOM_UDEF_STEREO_COUNT>
0

>  <PUBCHEM_BOND_DEF_STEREO_COUNT>
0

>  <PUBCHEM_BOND_UDEF_STEREO_COUNT>
0

>  <PUBCHEM_ISOTOPIC_ATOM_COUNT>
0

>  <PUBCHEM_COMPONENT_COUNT>
1

>  <PUBCHEM_CACTVS_TAUTO_COUNT>
1

>  <PUBCHEM_COORDINATE_TYPE>
1
5
255

>  <PUBCHEM_BONDANNOTATIONS>
13  1  6
10  28  5
11  23  5
15  24  5
22  2  5
7  12  6
8  27  5
9  20  6

$$$$
