25200670
 OpenBabel06101807152D

 53 56  0  0  1  0  0  0  0  0999 V2000
    7.2203    3.2592    0.0000 O   0  0  0  0  0  0  0  0  0  0  0  0
    3.4375    0.7165    0.0000 O   0  0  0  0  0  0  0  0  0  0  0  0
    2.3275   -0.9909    0.0000 O   0  0  0  0  0  0  0  0  0  0  0  0
    8.0438   -1.3046    0.0000 O   0  5  0  0  0  0  0  0  0  0  0  0
    6.8446   -2.5545    0.0000 O   0  0  0  0  0  0  0  0  0  0  0  0
    3.9615   -3.4420    0.0000 O   0  0  0  0  0  0  0  0  0  0  0  0
    6.4978    0.0936    0.0000 C   0  0  1  0  0  0  0  0  0  0  0  0
    5.5968    0.5275    0.0000 C   0  0  2  0  0  0  0  0  0  0  0  0
    4.9117   -0.1928    0.0000 C   0  0  1  0  0  0  0  0  0  0  0  0
    5.3836   -1.0677    0.0000 C   0  0  2  0  0  0  0  0  0  0  0  0
    6.3618   -0.8911    0.0000 C   0  0  2  0  0  0  0  0  0  0  0  0
    6.3910    1.2704    0.0000 C   0  0  0  0  0  0  0  0  0  0  0  0
    6.9978    2.2843    0.0000 C   0  0  2  0  0  0  0  0  0  0  0  0
    7.3988    0.5275    0.0000 C   0  0  0  0  0  0  0  0  0  0  0  0
    4.8536   -1.9573    0.0000 C   0  0  2  0  0  0  0  0  0  0  0  0
    5.3743    1.5024    0.0000 C   0  0  0  0  0  0  0  0  0  0  0  0
    3.8773   -0.1467    0.0000 C   0  0  0  0  0  0  0  0  0  0  0  0
    5.9978    2.2843    0.0000 C   0  0  0  0  0  0  0  0  0  0  0  0
    7.6213    1.5024    0.0000 C   0  0  0  0  0  0  0  0  0  0  0  0
    4.4371    0.6874    0.0000 C   0  0  0  0  0  0  0  0  0  0  0  0
    3.8184   -1.9352    0.0000 C   0  0  0  0  0  0  0  0  0  0  0  0
    3.3270   -1.0238    0.0000 C   0  0  1  0  0  0  0  0  0  0  0  0
    7.0834   -1.5834    0.0000 C   0  0  0  0  0  0  0  0  0  0  0  0
    5.7108   -2.4724    0.0000 C   0  0  0  0  0  0  0  0  0  0  0  0
    4.8362   -2.9572    0.0000 C   0  0  0  0  0  0  0  0  0  0  0  0
    8.5962    1.7250    0.0000 C   0  0  0  0  0  0  0  0  0  0  0  0
    4.8310    0.8963    0.0000 H   0  0  0  0  0  0  0  0  0  0  0  0
    5.8678   -1.7663    0.0000 H   0  0  0  0  0  0  0  0  0  0  0  0
    6.1827   -1.4847    0.0000 H   0  0  0  0  0  0  0  0  0  0  0  0
    5.9832    1.7374    0.0000 H   0  0  0  0  0  0  0  0  0  0  0  0
    5.8209    1.0266    0.0000 H   0  0  0  0  0  0  0  0  0  0  0  0
    7.5367   -0.0769    0.0000 H   0  0  0  0  0  0  0  0  0  0  0  0
    8.0188    0.5275    0.0000 H   0  0  0  0  0  0  0  0  0  0  0  0
    4.9878    1.9872    0.0000 H   0  0  0  0  0  0  0  0  0  0  0  0
    4.8157    1.2334    0.0000 H   0  0  0  0  0  0  0  0  0  0  0  0
    4.0104    0.4588    0.0000 H   0  0  0  0  0  0  0  0  0  0  0  0
    3.3035    0.0881    0.0000 H   0  0  0  0  0  0  0  0  0  0  0  0
    6.1358    2.8887    0.0000 H   0  0  0  0  0  0  0  0  0  0  0  0
    5.4392    2.5533    0.0000 H   0  0  0  0  0  0  0  0  0  0  0  0
    5.0256    0.8825    0.0000 H   0  0  0  0  0  0  0  0  0  0  0  0
    4.3472    1.3009    0.0000 H   0  0  0  0  0  0  0  0  0  0  0  0
    3.2304   -2.1318    0.0000 H   0  0  0  0  0  0  0  0  0  0  0  0
    3.9114   -2.5482    0.0000 H   0  0  0  0  0  0  0  0  0  0  0  0
    3.0005   -1.5509    0.0000 H   0  0  0  0  0  0  0  0  0  0  0  0
    5.3914   -3.0038    0.0000 H   0  0  0  0  0  0  0  0  0  0  0  0
    6.2422   -2.7918    0.0000 H   0  0  0  0  0  0  0  0  0  0  0  0
    6.0301   -1.9410    0.0000 H   0  0  0  0  0  0  0  0  0  0  0  0
    5.3676   -3.2765    0.0000 H   0  0  0  0  0  0  0  0  0  0  0  0
    7.8128    3.4420    0.0000 H   0  0  0  0  0  0  0  0  0  0  0  0
    9.0179    1.2705    0.0000 H   0  0  0  0  0  0  0  0  0  0  0  0
    8.7790    2.3174    0.0000 H   0  0  0  0  0  0  0  0  0  0  0  0
    3.1433    1.2622    0.0000 H   0  0  0  0  0  0  0  0  0  0  0  0
    2.0000   -1.5174    0.0000 H   0  0  0  0  0  0  0  0  0  0  0  0
  1 49  1  0  0  0  0
  2 20  1  0  0  0  0
  2 52  1  0  0  0  0
  3 53  1  0  0  0  0
  4 23  1  0  0  0  0
  5 23  2  0  0  0  0
  6 25  2  0  0  0  0
  7  8  1  1  0  0  0
  7 12  1  0  0  0  0
  7 14  1  0  0  0  0
  8  9  1  6  0  0  0
  8 16  1  0  0  0  0
  8 27  1  0  0  0  0
  9 10  1  6  0  0  0
  9 17  1  0  0  0  0
  9 20  1  0  0  0  0
 10 11  1  6  0  0  0
 10 28  1  0  0  0  0
 11  7  1  6  0  0  0
 11 23  1  0  0  0  0
 11 29  1  0  0  0  0
 12 13  1  0  0  0  0
 12 30  1  0  0  0  0
 12 31  1  0  0  0  0
 13  1  1  6  0  0  0
 13 18  1  0  0  0  0
 13 19  1  0  0  0  0
 14 19  1  0  0  0  0
 14 32  1  0  0  0  0
 14 33  1  0  0  0  0
 15 10  1  6  0  0  0
 15 21  1  0  0  0  0
 15 24  1  0  0  0  0
 15 25  1  0  0  0  0
 16 18  1  0  0  0  0
 16 34  1  0  0  0  0
 16 35  1  0  0  0  0
 17 22  1  0  0  0  0
 17 36  1  0  0  0  0
 17 37  1  0  0  0  0
 18 38  1  0  0  0  0
 18 39  1  0  0  0  0
 19 26  2  0  0  0  0
 20 40  1  0  0  0  0
 20 41  1  0  0  0  0
 21 22  1  0  0  0  0
 21 42  1  0  0  0  0
 21 43  1  0  0  0  0
 22  3  1  0  0  0  0
 22 44  1  6  0  0  0
 24 45  1  0  0  0  0
 24 46  1  0  0  0  0
 24 47  1  0  0  0  0
 25 48  1  0  0  0  0
 26 50  1  0  0  0  0
 26 51  1  0  0  0  0
M  CHG  1   4  -1
M  END
>  <PUBCHEM_COMPOUND_CID>
25200670

>  <PUBCHEM_COMPOUND_CANONICALIZED>
1

>  <PUBCHEM_CACTVS_COMPLEXITY>
684

>  <PUBCHEM_CACTVS_HBOND_ACCEPTOR>
6

>  <PUBCHEM_CACTVS_HBOND_DONOR>
3

>  <PUBCHEM_CACTVS_ROTATABLE_BOND>
2

>  <PUBCHEM_CACTVS_SUBSKEYS>
AAADceB4OAAAAAAAAAAAAAAAAAAAAYMAAAAwYAAABgAAAGDAAAAAGgAACAAAD1SggAICCAAAAgCIAgjSiAAAAAAgAAAAAAEAAAgAFBIAAQAAQAAEgAAAEAHK7vTPgAAAAAAAAADAAAYAACAAAYAACAAAAA==

>  <PUBCHEM_IUPAC_INCHI>
InChI=1S/C20H28O6/c1-11-5-18-8-20(11,26)4-3-13(18)19(10-22)7-12(23)6-17(2,9-21)15(19)14(18)16(24)25/h9,12-15,22-23,26H,1,3-8,10H2,2H3,(H,24,25)/p-1/t12-,13-,14-,15-,17+,18+,19-,20+/m1/s1

>  <PUBCHEM_IUPAC_INCHIKEY>
IZNICLBEOIJPEL-ZECPKWPWSA-M

>  <PUBCHEM_XLOGP3_AA>
0.3

>  <PUBCHEM_EXACT_MASS>
363.181

>  <PUBCHEM_MOLECULAR_FORMULA>
C20H27O6-

>  <PUBCHEM_MOLECULAR_WEIGHT>
363.43

>  <PUBCHEM_OPENEYE_CAN_SMILES>
CC1(CC(CC2(C1C(C34C2CCC(C3)(C(=C)C4)O)C(=O)[O-])CO)O)C=O

>  <PUBCHEM_OPENEYE_ISO_SMILES>
C[C@]1(C[C@H](C[C@@]2([C@@H]1[C@@H]([C@]34[C@H]2CC[C@](C3)(C(=C)C4)O)C(=O)[O-])CO)O)C=O

>  <PUBCHEM_CACTVS_TPSA>
118

>  <PUBCHEM_MONOISOTOPIC_WEIGHT>
363.181

>  <PUBCHEM_TOTAL_CHARGE>
-1

>  <PUBCHEM_HEAVY_ATOM_COUNT>
26

>  <PUBCHEM_ATOM_DEF_STEREO_COUNT>
8

>  <PUBCHEM_ATOM_UDEF_STEREO_COUNT>
0

>  <PUBCHEM_BOND_DEF_STEREO_COUNT>
0

>  <PUBCHEM_BOND_UDEF_STEREO_COUNT>
0

>  <PUBCHEM_ISOTOPIC_ATOM_COUNT>
0

>  <PUBCHEM_COMPONENT_COUNT>
1

>  <PUBCHEM_CACTVS_TAUTO_COUNT>
1

>  <PUBCHEM_COORDINATE_TYPE>
1
5
255

>  <PUBCHEM_BONDANNOTATIONS>
13  1  6
10  28  5
11  23  5
15  24  5
22  3  5
7  12  6
8  27  5
9  20  6

$$$$
