25208758
 OpenBabel06101807152D

 56 59  0  0  0  0  0  0  0  0999 V2000
    6.3582    0.3976    0.0000 O   0  0  0  0  0  0  0  0  0  0  0  0
    8.5022    2.4661    0.0000 O   0  0  0  0  0  0  0  0  0  0  0  0
    2.8687    1.3018    0.0000 O   0  0  0  0  0  0  0  0  0  0  0  0
    3.4981    3.2446    0.0000 O   0  0  0  0  0  0  0  0  0  0  0  0
   11.1418    0.1219    0.0000 O   0  0  0  0  0  0  0  0  0  0  0  0
    6.8550    1.9308    0.0000 C   0  0  0  0  0  0  0  0  0  0  0  0
    7.1640    0.9798    0.0000 C   0  0  0  0  0  0  0  0  0  0  0  0
    5.8609    1.9283    0.0000 C   0  0  0  0  0  0  0  0  0  0  0  0
    5.5545    0.9826    0.0000 C   0  0  0  0  0  0  0  0  0  0  0  0
    8.1421    0.7719    0.0000 C   0  0  0  0  0  0  0  0  0  0  0  0
    7.5241    2.6740    0.0000 C   0  0  0  0  0  0  0  0  0  0  0  0
    4.5453    0.7508    0.0000 C   0  0  0  0  0  0  0  0  0  0  0  0
    8.8113    1.5150    0.0000 C   0  0  0  0  0  0  0  0  0  0  0  0
    5.1793    2.7078    0.0000 C   0  0  0  0  0  0  0  0  0  0  0  0
    8.4487   -0.2236    0.0000 C   0  0  0  0  0  0  0  0  0  0  0  0
    9.4659   -0.4480    0.0000 C   0  0  0  0  0  0  0  0  0  0  0  0
    4.2482   -0.2040    0.0000 C   0  0  0  0  0  0  0  0  0  0  0  0
    3.8459    1.5144    0.0000 C   0  0  0  0  0  0  0  0  0  0  0  0
    4.1650    2.4994    0.0000 C   0  0  0  0  0  0  0  0  0  0  0  0
    9.8334    1.3142    0.0000 C   0  0  0  0  0  0  0  0  0  0  0  0
   10.1629    0.3260    0.0000 C   0  0  0  0  0  0  0  0  0  0  0  0
    9.7712   -1.4003    0.0000 C   0  0  0  0  0  0  0  0  0  0  0  0
    3.2727   -0.4241    0.0000 C   0  0  0  0  0  0  0  0  0  0  0  0
    9.0992   -2.1408    0.0000 C   0  0  0  0  0  0  0  0  0  0  0  0
    2.9755   -1.3789    0.0000 C   0  0  0  0  0  0  0  0  0  0  0  0
    9.4046   -3.0931    0.0000 C   0  0  0  0  0  0  0  0  0  0  0  0
    2.0000   -1.5989    0.0000 C   0  0  0  0  0  0  0  0  0  0  0  0
    3.6538   -2.1136    0.0000 C   0  0  0  0  0  0  0  0  0  0  0  0
    8.7326   -3.8336    0.0000 C   0  0  0  0  0  0  0  0  0  0  0  0
   10.3819   -3.3048    0.0000 C   0  0  0  0  0  0  0  0  0  0  0  0
    7.7564    3.2488    0.0000 H   0  0  0  0  0  0  0  0  0  0  0  0
    6.9983    3.0025    0.0000 H   0  0  0  0  0  0  0  0  0  0  0  0
    5.3772    3.2953    0.0000 H   0  0  0  0  0  0  0  0  0  0  0  0
    8.0285   -0.6795    0.0000 H   0  0  0  0  0  0  0  0  0  0  0  0
    4.2775   -0.8233    0.0000 H   0  0  0  0  0  0  0  0  0  0  0  0
    4.8631   -0.2826    0.0000 H   0  0  0  0  0  0  0  0  0  0  0  0
   10.2429    1.7797    0.0000 H   0  0  0  0  0  0  0  0  0  0  0  0
   10.1510   -1.8903    0.0000 H   0  0  0  0  0  0  0  0  0  0  0  0
   10.3198   -1.1113    0.0000 H   0  0  0  0  0  0  0  0  0  0  0  0
    2.8521    0.0315    0.0000 H   0  0  0  0  0  0  0  0  0  0  0  0
    8.4933   -2.0096    0.0000 H   0  0  0  0  0  0  0  0  0  0  0  0
    2.4517    1.7606    0.0000 H   0  0  0  0  0  0  0  0  0  0  0  0
    3.6915    3.8336    0.0000 H   0  0  0  0  0  0  0  0  0  0  0  0
   11.5549    0.5843    0.0000 H   0  0  0  0  0  0  0  0  0  0  0  0
    1.8636   -0.9941    0.0000 H   0  0  0  0  0  0  0  0  0  0  0  0
    1.3952   -1.7354    0.0000 H   0  0  0  0  0  0  0  0  0  0  0  0
    2.1364   -2.2037    0.0000 H   0  0  0  0  0  0  0  0  0  0  0  0
    3.1982   -2.5342    0.0000 H   0  0  0  0  0  0  0  0  0  0  0  0
    4.0744   -2.5692    0.0000 H   0  0  0  0  0  0  0  0  0  0  0  0
    4.1094   -1.6931    0.0000 H   0  0  0  0  0  0  0  0  0  0  0  0
    8.2734   -3.4170    0.0000 H   0  0  0  0  0  0  0  0  0  0  0  0
   10.2507   -3.9107    0.0000 H   0  0  0  0  0  0  0  0  0  0  0  0
   10.9879   -3.4360    0.0000 H   0  0  0  0  0  0  0  0  0  0  0  0
   10.5132   -2.6988    0.0000 H   0  0  0  0  0  0  0  0  0  0  0  0
    8.3160   -4.2928    0.0000 H   0  0  0  0  0  0  0  0  0  0  0  0
    9.1917   -4.2503    0.0000 H   0  0  0  0  0  0  0  0  0  0  0  0
  1  7  1  0  0  0  0
  1  9  1  0  0  0  0
  2 11  1  0  0  0  0
  2 13  1  0  0  0  0
  3 18  1  0  0  0  0
  3 42  1  0  0  0  0
  4 19  1  0  0  0  0
  4 43  1  0  0  0  0
  5 21  1  0  0  0  0
  5 44  1  0  0  0  0
  6  7  2  0  0  0  0
  6  8  1  0  0  0  0
  6 11  1  0  0  0  0
  7 10  1  0  0  0  0
  8  9  1  0  0  0  0
  8 14  2  0  0  0  0
  9 12  2  0  0  0  0
 10 13  2  0  0  0  0
 10 15  1  0  0  0  0
 11 31  1  0  0  0  0
 11 32  1  0  0  0  0
 12 17  1  0  0  0  0
 12 18  1  0  0  0  0
 13 20  1  0  0  0  0
 14 19  1  0  0  0  0
 14 33  1  0  0  0  0
 15 16  2  0  0  0  0
 15 34  1  0  0  0  0
 16 21  1  0  0  0  0
 16 22  1  0  0  0  0
 17 23  1  0  0  0  0
 17 35  1  0  0  0  0
 17 36  1  0  0  0  0
 18 19  2  0  0  0  0
 20 21  2  0  0  0  0
 20 37  1  0  0  0  0
 22 24  1  0  0  0  0
 22 38  1  0  0  0  0
 22 39  1  0  0  0  0
 23 25  2  0  0  0  0
 23 40  1  0  0  0  0
 24 26  2  0  0  0  0
 24 41  1  0  0  0  0
 25 27  1  0  0  0  0
 25 28  1  0  0  0  0
 26 29  1  0  0  0  0
 26 30  1  0  0  0  0
 27 45  1  0  0  0  0
 27 46  1  0  0  0  0
 27 47  1  0  0  0  0
 28 48  1  0  0  0  0
 28 49  1  0  0  0  0
 28 50  1  0  0  0  0
 29 51  1  0  0  0  0
 29 55  1  0  0  0  0
 29 56  1  0  0  0  0
 30 52  1  0  0  0  0
 30 53  1  0  0  0  0
 30 54  1  0  0  0  0
M  END
>  <PUBCHEM_COMPOUND_CID>
25208758

>  <PUBCHEM_COMPOUND_CANONICALIZED>
1

>  <PUBCHEM_CACTVS_COMPLEXITY>
665

>  <PUBCHEM_CACTVS_HBOND_ACCEPTOR>
5

>  <PUBCHEM_CACTVS_HBOND_DONOR>
3

>  <PUBCHEM_CACTVS_ROTATABLE_BOND>
4

>  <PUBCHEM_CACTVS_SUBSKEYS>
AAADceB4OAAAAAAAAAAAAAAAAAAAASAAAAA0YIAAAAAAAEiR9AAAGgAACAAADASgmAIyBsAABkCIAqBSAAACCAAkIAAAiAEGiMgNJzaGNRqCeWGl4BUJuYfK7PzOoQADCAAIQABCAAYQABCAAAAAAAAAAA==

>  <PUBCHEM_IUPAC_OPENEYE_NAME>
2,10-bis(3-methylbut-2-enyl)-6H-benzofuro[3,2-c]chromene-3,8,9-triol

>  <PUBCHEM_IUPAC_CAS_NAME>
2,10-bis(3-methylbut-2-enyl)-6H-benzofuro[3,2-c][1]benzopyran-3,8,9-triol

>  <PUBCHEM_IUPAC_NAME>
2,10-bis(3-methylbut-2-enyl)-6H-[1]benzofuro[3,2-c]chromene-3,8,9-triol

>  <PUBCHEM_IUPAC_SYSTEMATIC_NAME>
2,10-bis(3-methylbut-2-enyl)-6H-[1]benzofuro[3,2-c]chromene-3,8,9-triol

>  <PUBCHEM_IUPAC_TRADITIONAL_NAME>
2,10-bis(3-methylbut-2-enyl)-6H-benzofuro[3,2-c]chromene-3,8,9-triol

>  <PUBCHEM_IUPAC_INCHI>
InChI=1S/C25H26O5/c1-13(2)5-7-15-9-18-22(11-20(15)26)29-12-19-17-10-21(27)23(28)16(8-6-14(3)4)24(17)30-25(18)19/h5-6,9-11,26-28H,7-8,12H2,1-4H3

>  <PUBCHEM_IUPAC_INCHIKEY>
LGLLDPCJEPLYCU-UHFFFAOYSA-N

>  <PUBCHEM_XLOGP3_AA>
6.3

>  <PUBCHEM_EXACT_MASS>
406.178

>  <PUBCHEM_MOLECULAR_FORMULA>
C25H26O5

>  <PUBCHEM_MOLECULAR_WEIGHT>
406.478

>  <PUBCHEM_OPENEYE_CAN_SMILES>
CC(=CCC1=C(C=C2C(=C1)C3=C(CO2)C4=CC(=C(C(=C4O3)CC=C(C)C)O)O)O)C

>  <PUBCHEM_OPENEYE_ISO_SMILES>
CC(=CCC1=C(C=C2C(=C1)C3=C(CO2)C4=CC(=C(C(=C4O3)CC=C(C)C)O)O)O)C

>  <PUBCHEM_CACTVS_TPSA>
83.1

>  <PUBCHEM_MONOISOTOPIC_WEIGHT>
406.178

>  <PUBCHEM_TOTAL_CHARGE>
0

>  <PUBCHEM_HEAVY_ATOM_COUNT>
30

>  <PUBCHEM_ATOM_DEF_STEREO_COUNT>
0

>  <PUBCHEM_ATOM_UDEF_STEREO_COUNT>
0

>  <PUBCHEM_BOND_DEF_STEREO_COUNT>
0

>  <PUBCHEM_BOND_UDEF_STEREO_COUNT>
0

>  <PUBCHEM_ISOTOPIC_ATOM_COUNT>
0

>  <PUBCHEM_COMPONENT_COUNT>
1

>  <PUBCHEM_CACTVS_TAUTO_COUNT>
214

>  <PUBCHEM_COORDINATE_TYPE>
1
5
255

>  <PUBCHEM_BONDANNOTATIONS>
1  7  8
1  9  8
10  13  8
10  15  8
12  18  8
13  20  8
14  19  8
15  16  8
16  21  8
18  19  8
20  21  8
6  7  8
6  8  8
8  14  8
8  9  8
9  12  8

$$$$
