25245324
 OpenBabel06101807152D

 56 58  0  0  0  0  0  0  0  0999 V2000
    8.0901    0.2753    0.0000 O   0  0  0  0  0  0  0  0  0  0  0  0
    6.3301    3.3100    0.0000 O   0  0  0  0  0  0  0  0  0  0  0  0
    4.5981    0.3100    0.0000 O   0  0  0  0  0  0  0  0  0  0  0  0
    7.1962   -1.1900    0.0000 O   0  0  0  0  0  0  0  0  0  0  0  0
    2.0000   -4.1900    0.0000 O   0  0  0  0  0  0  0  0  0  0  0  0
    8.9962    0.7892    0.0000 C   0  0  0  0  0  0  0  0  0  0  0  0
    7.1962    0.8100    0.0000 C   0  0  0  0  0  0  0  0  0  0  0  0
    7.1962    1.8100    0.0000 C   0  0  0  0  0  0  0  0  0  0  0  0
    8.9962    1.8308    0.0000 C   0  0  0  0  0  0  0  0  0  0  0  0
    6.3301    0.3100    0.0000 C   0  0  0  0  0  0  0  0  0  0  0  0
    5.4641    1.8100    0.0000 C   0  0  0  0  0  0  0  0  0  0  0  0
    8.0901    2.3447    0.0000 C   0  0  0  0  0  0  0  0  0  0  0  0
    6.3301    2.3100    0.0000 C   0  0  0  0  0  0  0  0  0  0  0  0
    9.9962    0.7853    0.0000 C   0  0  0  0  0  0  0  0  0  0  0  0
    9.4928   -0.0788    0.0000 C   0  0  0  0  0  0  0  0  0  0  0  0
    5.4641    0.8100    0.0000 C   0  0  0  0  0  0  0  0  0  0  0  0
    4.5981    2.3100    0.0000 C   0  0  0  0  0  0  0  0  0  0  0  0
    6.3301   -0.6900    0.0000 C   0  0  0  0  0  0  0  0  0  0  0  0
    4.5981    3.3100    0.0000 C   0  0  0  0  0  0  0  0  0  0  0  0
    3.7320    3.8100    0.0000 C   0  0  0  0  0  0  0  0  0  0  0  0
    5.4641   -1.1900    0.0000 C   0  0  0  0  0  0  0  0  0  0  0  0
    5.4641   -2.1900    0.0000 C   0  0  0  0  0  0  0  0  0  0  0  0
    3.7320    4.8100    0.0000 C   0  0  0  0  0  0  0  0  0  0  0  0
    2.8660    3.3100    0.0000 C   0  0  0  0  0  0  0  0  0  0  0  0
    4.5981   -2.6900    0.0000 C   0  0  0  0  0  0  0  0  0  0  0  0
    3.7320   -2.1900    0.0000 C   0  0  0  0  0  0  0  0  0  0  0  0
    4.5981   -3.6900    0.0000 C   0  0  0  0  0  0  0  0  0  0  0  0
    2.8660   -2.6900    0.0000 C   0  0  0  0  0  0  0  0  0  0  0  0
    3.7320   -4.1900    0.0000 C   0  0  0  0  0  0  0  0  0  0  0  0
    2.8660   -3.6900    0.0000 C   0  0  0  0  0  0  0  0  0  0  0  0
    9.5319    2.1429    0.0000 H   0  0  0  0  0  0  0  0  0  0  0  0
    8.0829    2.9646    0.0000 H   0  0  0  0  0  0  0  0  0  0  0  0
    9.9938    0.1653    0.0000 H   0  0  0  0  0  0  0  0  0  0  0  0
   10.6161    0.7829    0.0000 H   0  0  0  0  0  0  0  0  0  0  0  0
    9.9985    1.4053    0.0000 H   0  0  0  0  0  0  0  0  0  0  0  0
    8.9547   -0.3867    0.0000 H   0  0  0  0  0  0  0  0  0  0  0  0
    9.8008   -0.6169    0.0000 H   0  0  0  0  0  0  0  0  0  0  0  0
   10.0309    0.2292    0.0000 H   0  0  0  0  0  0  0  0  0  0  0  0
    3.9875    2.4177    0.0000 H   0  0  0  0  0  0  0  0  0  0  0  0
    4.3860    1.7274    0.0000 H   0  0  0  0  0  0  0  0  0  0  0  0
    5.1350    3.6200    0.0000 H   0  0  0  0  0  0  0  0  0  0  0  0
    6.8671    3.6200    0.0000 H   0  0  0  0  0  0  0  0  0  0  0  0
    4.0611    0.6200    0.0000 H   0  0  0  0  0  0  0  0  0  0  0  0
    4.9272   -0.8800    0.0000 H   0  0  0  0  0  0  0  0  0  0  0  0
    6.0010   -2.5000    0.0000 H   0  0  0  0  0  0  0  0  0  0  0  0
    4.3520    4.8100    0.0000 H   0  0  0  0  0  0  0  0  0  0  0  0
    2.5560    3.8469    0.0000 H   0  0  0  0  0  0  0  0  0  0  0  0
    2.3291    3.0000    0.0000 H   0  0  0  0  0  0  0  0  0  0  0  0
    3.1760    2.7731    0.0000 H   0  0  0  0  0  0  0  0  0  0  0  0
    3.7320    5.4300    0.0000 H   0  0  0  0  0  0  0  0  0  0  0  0
    3.1120    4.8100    0.0000 H   0  0  0  0  0  0  0  0  0  0  0  0
    3.7320   -1.5700    0.0000 H   0  0  0  0  0  0  0  0  0  0  0  0
    5.1350   -4.0000    0.0000 H   0  0  0  0  0  0  0  0  0  0  0  0
    2.3291   -2.3800    0.0000 H   0  0  0  0  0  0  0  0  0  0  0  0
    3.7320   -4.8100    0.0000 H   0  0  0  0  0  0  0  0  0  0  0  0
    2.0000   -4.8100    0.0000 H   0  0  0  0  0  0  0  0  0  0  0  0
  1  6  1  0  0  0  0
  1  7  1  0  0  0  0
  2 13  1  0  0  0  0
  2 42  1  0  0  0  0
  3 16  1  0  0  0  0
  3 43  1  0  0  0  0
  4 18  2  0  0  0  0
  5 30  1  0  0  0  0
  5 56  1  0  0  0  0
  6  9  1  0  0  0  0
  6 14  1  0  0  0  0
  6 15  1  0  0  0  0
  7  8  1  0  0  0  0
  7 10  2  0  0  0  0
  8 12  1  0  0  0  0
  8 13  2  0  0  0  0
  9 12  2  0  0  0  0
  9 31  1  0  0  0  0
 10 16  1  0  0  0  0
 10 18  1  0  0  0  0
 11 13  1  0  0  0  0
 11 16  2  0  0  0  0
 11 17  1  0  0  0  0
 12 32  1  0  0  0  0
 14 33  1  0  0  0  0
 14 34  1  0  0  0  0
 14 35  1  0  0  0  0
 15 36  1  0  0  0  0
 15 37  1  0  0  0  0
 15 38  1  0  0  0  0
 17 19  1  0  0  0  0
 17 39  1  0  0  0  0
 17 40  1  0  0  0  0
 18 21  1  0  0  0  0
 19 20  2  0  0  0  0
 19 41  1  0  0  0  0
 20 23  1  0  0  0  0
 20 24  1  0  0  0  0
 21 22  2  0  0  0  0
 21 44  1  0  0  0  0
 22 25  1  0  0  0  0
 22 45  1  0  0  0  0
 23 46  1  0  0  0  0
 23 50  1  0  0  0  0
 23 51  1  0  0  0  0
 24 47  1  0  0  0  0
 24 48  1  0  0  0  0
 24 49  1  0  0  0  0
 25 26  2  0  0  0  0
 25 27  1  0  0  0  0
 26 28  1  0  0  0  0
 26 52  1  0  0  0  0
 27 29  2  0  0  0  0
 27 53  1  0  0  0  0
 28 30  2  0  0  0  0
 28 54  1  0  0  0  0
 29 30  1  0  0  0  0
 29 55  1  0  0  0  0
M  END
>  <PUBCHEM_COMPOUND_CID>
25245324

>  <PUBCHEM_COMPOUND_CANONICALIZED>
1

>  <PUBCHEM_CACTVS_COMPLEXITY>
694

>  <PUBCHEM_CACTVS_HBOND_ACCEPTOR>
5

>  <PUBCHEM_CACTVS_HBOND_DONOR>
3

>  <PUBCHEM_CACTVS_ROTATABLE_BOND>
5

>  <PUBCHEM_CACTVS_SUBSKEYS>
AAADceB4OAAAAAAAAAAAAAAAAAAAAAAAAAAwYIAAAAAAAACBQAAAGgAACAAADESAmAAyBoAABgCIAqBSAAACCAAkIAAIiAEGCMgMJzaGNRqCeWCl4BUIuYeI7OzOIAACCAAIAABAAAQQABAAAAAAAAAAAA==

>  <PUBCHEM_IUPAC_OPENEYE_NAME>
(E)-1-[5,7-dihydroxy-2,2-dimethyl-6-(3-methylbut-2-enyl)chromen-8-yl]-3-(4-hydroxyphenyl)prop-2-en-1-one

>  <PUBCHEM_IUPAC_CAS_NAME>
(E)-1-[5,7-dihydroxy-2,2-dimethyl-6-(3-methylbut-2-enyl)-1-benzopyran-8-yl]-3-(4-hydroxyphenyl)-2-propen-1-one

>  <PUBCHEM_IUPAC_NAME>
(E)-1-[5,7-dihydroxy-2,2-dimethyl-6-(3-methylbut-2-enyl)chromen-8-yl]-3-(4-hydroxyphenyl)prop-2-en-1-one

>  <PUBCHEM_IUPAC_SYSTEMATIC_NAME>
(E)-1-[2,2-dimethyl-6-(3-methylbut-2-enyl)-5,7-bis(oxidanyl)chromen-8-yl]-3-(4-hydroxyphenyl)prop-2-en-1-one

>  <PUBCHEM_IUPAC_TRADITIONAL_NAME>
(E)-1-[5,7-dihydroxy-2,2-dimethyl-6-(3-methylbut-2-enyl)chromen-8-yl]-3-(4-hydroxyphenyl)prop-2-en-1-one

>  <PUBCHEM_IUPAC_INCHI>
InChI=1S/C25H26O5/c1-15(2)5-11-18-22(28)19-13-14-25(3,4)30-24(19)21(23(18)29)20(27)12-8-16-6-9-17(26)10-7-16/h5-10,12-14,26,28-29H,11H2,1-4H3/b12-8+

>  <PUBCHEM_IUPAC_INCHIKEY>
KRZGSPKDWYNTHE-XYOKQWHBSA-N

>  <PUBCHEM_XLOGP3_AA>
6

>  <PUBCHEM_EXACT_MASS>
406.178

>  <PUBCHEM_MOLECULAR_FORMULA>
C25H26O5

>  <PUBCHEM_MOLECULAR_WEIGHT>
406.478

>  <PUBCHEM_OPENEYE_CAN_SMILES>
CC(=CCC1=C(C2=C(C(=C1O)C(=O)C=CC3=CC=C(C=C3)O)OC(C=C2)(C)C)O)C

>  <PUBCHEM_OPENEYE_ISO_SMILES>
CC(=CCC1=C(C2=C(C(=C1O)C(=O)/C=C/C3=CC=C(C=C3)O)OC(C=C2)(C)C)O)C

>  <PUBCHEM_CACTVS_TPSA>
87

>  <PUBCHEM_MONOISOTOPIC_WEIGHT>
406.178

>  <PUBCHEM_TOTAL_CHARGE>
0

>  <PUBCHEM_HEAVY_ATOM_COUNT>
30

>  <PUBCHEM_ATOM_DEF_STEREO_COUNT>
0

>  <PUBCHEM_ATOM_UDEF_STEREO_COUNT>
0

>  <PUBCHEM_BOND_DEF_STEREO_COUNT>
1

>  <PUBCHEM_BOND_UDEF_STEREO_COUNT>
0

>  <PUBCHEM_ISOTOPIC_ATOM_COUNT>
0

>  <PUBCHEM_COMPONENT_COUNT>
1

>  <PUBCHEM_CACTVS_TAUTO_COUNT>
72

>  <PUBCHEM_COORDINATE_TYPE>
1
5
255

>  <PUBCHEM_BONDANNOTATIONS>
10  16  8
11  13  8
11  16  8
25  26  8
25  27  8
26  28  8
27  29  8
28  30  8
29  30  8
7  10  8
7  8  8
8  13  8

$$$$
