25244460
 OpenBabel06101807152D

 27 26  0  0  1  0  0  0  0  0999 V2000
    5.4641    2.9050    0.0000 O   0  0  0  0  0  0  0  0  0  0  0  0
    2.0000    1.9050    0.0000 O   0  0  0  0  0  0  0  0  0  0  0  0
    3.7320    1.9050    0.0000 N   0  0  0  0  0  0  0  0  0  0  0  0
    6.3301   -2.5950    0.0000 N   0  0  0  0  0  0  0  0  0  0  0  0
    6.3301    1.4050    0.0000 N   0  0  0  0  0  0  0  0  0  0  0  0
    4.5981    0.4050    0.0000 C   0  0  0  0  0  0  0  0  0  0  0  0
    5.4641   -0.0950    0.0000 C   0  0  0  0  0  0  0  0  0  0  0  0
    4.5981    1.4050    0.0000 C   0  0  1  0  0  0  0  0  0  0  0  0
    5.4641   -1.0950    0.0000 C   0  0  0  0  0  0  0  0  0  0  0  0
    6.3301   -1.5950    0.0000 C   0  0  0  0  0  0  0  0  0  0  0  0
    5.4641    1.9050    0.0000 C   0  0  0  0  0  0  0  0  0  0  0  0
    2.8660    1.4050    0.0000 C   0  0  0  0  0  0  0  0  0  0  0  0
    3.9875    0.5127    0.0000 H   0  0  0  0  0  0  0  0  0  0  0  0
    4.3860   -0.1776    0.0000 H   0  0  0  0  0  0  0  0  0  0  0  0
    6.0747   -0.2027    0.0000 H   0  0  0  0  0  0  0  0  0  0  0  0
    5.6762    0.4876    0.0000 H   0  0  0  0  0  0  0  0  0  0  0  0
    4.5981    2.0250    0.0000 H   0  0  0  0  0  0  0  0  0  0  0  0
    4.8535   -0.9873    0.0000 H   0  0  0  0  0  0  0  0  0  0  0  0
    5.2520   -1.6776    0.0000 H   0  0  0  0  0  0  0  0  0  0  0  0
    6.9407   -1.7027    0.0000 H   0  0  0  0  0  0  0  0  0  0  0  0
    6.5422   -1.0124    0.0000 H   0  0  0  0  0  0  0  0  0  0  0  0
    3.7320    2.5250    0.0000 H   0  0  0  0  0  0  0  0  0  0  0  0
    6.8671   -2.9050    0.0000 H   0  0  0  0  0  0  0  0  0  0  0  0
    5.7932   -2.9050    0.0000 H   0  0  0  0  0  0  0  0  0  0  0  0
    6.8671    1.7150    0.0000 H   0  0  0  0  0  0  0  0  0  0  0  0
    6.3301    0.7850    0.0000 H   0  0  0  0  0  0  0  0  0  0  0  0
    2.8660    0.7850    0.0000 H   0  0  0  0  0  0  0  0  0  0  0  0
  1 11  2  0  0  0  0
  2 12  2  0  0  0  0
  3 12  1  0  0  0  0
  3 22  1  0  0  0  0
  4 10  1  0  0  0  0
  4 23  1  0  0  0  0
  4 24  1  0  0  0  0
  5 11  1  0  0  0  0
  5 25  1  0  0  0  0
  5 26  1  0  0  0  0
  6  7  1  0  0  0  0
  6  8  1  0  0  0  0
  6 13  1  0  0  0  0
  6 14  1  0  0  0  0
  7  9  1  0  0  0  0
  7 15  1  0  0  0  0
  7 16  1  0  0  0  0
  8  3  1  0  0  0  0
  8 11  1  0  0  0  0
  8 17  1  1  0  0  0
  9 10  1  0  0  0  0
  9 18  1  0  0  0  0
  9 19  1  0  0  0  0
 10 20  1  0  0  0  0
 10 21  1  0  0  0  0
 12 27  1  0  0  0  0
M  END
>  <PUBCHEM_COMPOUND_CID>
25244460

>  <PUBCHEM_COMPOUND_CANONICALIZED>
1

>  <PUBCHEM_CACTVS_COMPLEXITY>
150

>  <PUBCHEM_CACTVS_HBOND_ACCEPTOR>
3

>  <PUBCHEM_CACTVS_HBOND_DONOR>
3

>  <PUBCHEM_CACTVS_ROTATABLE_BOND>
6

>  <PUBCHEM_CACTVS_SUBSKEYS>
AAADccBjMAAAAAAAAAAAAAAAAAAAAAAAAAAAAAAAAAAAAAAAAAAAHgAQAAAACCjBgAYAAALAAAAIAAEQkAAAAAAAAAAAAIGIAAAAQBIAgCAUAAAAFgAAAAEYCAAAAAAAAAAAAAAAAAAAAAAAAAAAAAAAAA==

>  <PUBCHEM_IUPAC_OPENEYE_NAME>
(2S)-6-amino-2-formamido-hexanamide

>  <PUBCHEM_IUPAC_CAS_NAME>
(2S)-6-amino-2-formamidohexanamide

>  <PUBCHEM_IUPAC_NAME>
(2S)-6-amino-2-formamidohexanamide

>  <PUBCHEM_IUPAC_SYSTEMATIC_NAME>
(2S)-6-azanyl-2-formamido-hexanamide

>  <PUBCHEM_IUPAC_TRADITIONAL_NAME>
(2S)-6-amino-2-formamido-hexanamide

>  <PUBCHEM_IUPAC_INCHI>
InChI=1S/C7H15N3O2/c8-4-2-1-3-6(7(9)12)10-5-11/h5-6H,1-4,8H2,(H2,9,12)(H,10,11)/t6-/m0/s1

>  <PUBCHEM_IUPAC_INCHIKEY>
DKPYGQKMNSGPGT-LURJTMIESA-N

>  <PUBCHEM_XLOGP3>
-2.8

>  <PUBCHEM_EXACT_MASS>
173.116

>  <PUBCHEM_MOLECULAR_FORMULA>
C7H15N3O2

>  <PUBCHEM_MOLECULAR_WEIGHT>
173.216

>  <PUBCHEM_OPENEYE_CAN_SMILES>
C(CCN)CC(C(=O)N)NC=O

>  <PUBCHEM_OPENEYE_ISO_SMILES>
C(CCN)C[C@@H](C(=O)N)NC=O

>  <PUBCHEM_CACTVS_TPSA>
98.2

>  <PUBCHEM_MONOISOTOPIC_WEIGHT>
173.116

>  <PUBCHEM_TOTAL_CHARGE>
0

>  <PUBCHEM_HEAVY_ATOM_COUNT>
12

>  <PUBCHEM_ATOM_DEF_STEREO_COUNT>
1

>  <PUBCHEM_ATOM_UDEF_STEREO_COUNT>
0

>  <PUBCHEM_BOND_DEF_STEREO_COUNT>
0

>  <PUBCHEM_BOND_UDEF_STEREO_COUNT>
0

>  <PUBCHEM_ISOTOPIC_ATOM_COUNT>
0

>  <PUBCHEM_COMPONENT_COUNT>
1

>  <PUBCHEM_CACTVS_TAUTO_COUNT>
6

>  <PUBCHEM_COORDINATE_TYPE>
1
5
255

>  <PUBCHEM_BONDANNOTATIONS>
8  3  6

$$$$
