25243953
 OpenBabel06101807152D

 51 54  0  0  1  0  0  0  0  0999 V2000
    2.3275   -0.6992    0.0000 O   0  0  0  0  0  0  0  0  0  0  0  0
    8.0438   -1.0129    0.0000 O   0  5  0  0  0  0  0  0  0  0  0  0
    6.8446   -2.2627    0.0000 O   0  0  0  0  0  0  0  0  0  0  0  0
    3.9615   -3.1502    0.0000 O   0  5  0  0  0  0  0  0  0  0  0  0
    5.6933   -3.1805    0.0000 O   0  0  0  0  0  0  0  0  0  0  0  0
    6.4978    0.3854    0.0000 C   0  0  1  0  0  0  0  0  0  0  0  0
    5.5968    0.8193    0.0000 C   0  0  2  0  0  0  0  0  0  0  0  0
    4.9117    0.0990    0.0000 C   0  0  1  0  0  0  0  0  0  0  0  0
    5.3836   -0.7760    0.0000 C   0  0  2  0  0  0  0  0  0  0  0  0
    6.3618   -0.5993    0.0000 C   0  0  2  0  0  0  0  0  0  0  0  0
    6.3910    1.5622    0.0000 C   0  0  0  0  0  0  0  0  0  0  0  0
    4.8536   -1.6656    0.0000 C   0  0  2  0  0  0  0  0  0  0  0  0
    7.3988    0.8193    0.0000 C   0  0  0  0  0  0  0  0  0  0  0  0
    6.9978    2.5760    0.0000 C   0  0  1  0  0  0  0  0  0  0  0  0
    5.3743    1.7942    0.0000 C   0  0  0  0  0  0  0  0  0  0  0  0
    3.8773    0.1450    0.0000 C   0  0  0  0  0  0  0  0  0  0  0  0
    5.9978    2.5760    0.0000 C   0  0  0  0  0  0  0  0  0  0  0  0
    7.6213    1.7942    0.0000 C   0  0  0  0  0  0  0  0  0  0  0  0
    4.4371    0.9792    0.0000 C   0  0  0  0  0  0  0  0  0  0  0  0
    3.8184   -1.6435    0.0000 C   0  0  0  0  0  0  0  0  0  0  0  0
    3.3270   -0.7321    0.0000 C   0  0  1  0  0  0  0  0  0  0  0  0
    7.0834   -1.2916    0.0000 C   0  0  0  0  0  0  0  0  0  0  0  0
    5.7108   -2.1806    0.0000 C   0  0  0  0  0  0  0  0  0  0  0  0
    4.8362   -2.6654    0.0000 C   0  0  0  0  0  0  0  0  0  0  0  0
    8.5962    2.0167    0.0000 C   0  0  0  0  0  0  0  0  0  0  0  0
    4.8310    1.1881    0.0000 H   0  0  0  0  0  0  0  0  0  0  0  0
    5.8678   -1.4746    0.0000 H   0  0  0  0  0  0  0  0  0  0  0  0
    6.1827   -1.1929    0.0000 H   0  0  0  0  0  0  0  0  0  0  0  0
    5.9832    2.0292    0.0000 H   0  0  0  0  0  0  0  0  0  0  0  0
    5.8209    1.3183    0.0000 H   0  0  0  0  0  0  0  0  0  0  0  0
    7.5367    0.2148    0.0000 H   0  0  0  0  0  0  0  0  0  0  0  0
    8.0188    0.8193    0.0000 H   0  0  0  0  0  0  0  0  0  0  0  0
    7.1870    3.4047    0.0000 H   0  0  0  0  0  0  0  0  0  0  0  0
    4.9878    2.2790    0.0000 H   0  0  0  0  0  0  0  0  0  0  0  0
    4.8157    1.5252    0.0000 H   0  0  0  0  0  0  0  0  0  0  0  0
    4.0104    0.7506    0.0000 H   0  0  0  0  0  0  0  0  0  0  0  0
    3.3035    0.3798    0.0000 H   0  0  0  0  0  0  0  0  0  0  0  0
    6.1358    3.1805    0.0000 H   0  0  0  0  0  0  0  0  0  0  0  0
    5.4392    2.8450    0.0000 H   0  0  0  0  0  0  0  0  0  0  0  0
    4.9828    1.2734    0.0000 H   0  0  0  0  0  0  0  0  0  0  0  0
    4.1428    1.5249    0.0000 H   0  0  0  0  0  0  0  0  0  0  0  0
    3.8914    0.6849    0.0000 H   0  0  0  0  0  0  0  0  0  0  0  0
    3.2304   -1.8400    0.0000 H   0  0  0  0  0  0  0  0  0  0  0  0
    3.9114   -2.2565    0.0000 H   0  0  0  0  0  0  0  0  0  0  0  0
    3.0358   -0.1847    0.0000 H   0  0  0  0  0  0  0  0  0  0  0  0
    5.3914   -2.7121    0.0000 H   0  0  0  0  0  0  0  0  0  0  0  0
    6.2422   -2.5000    0.0000 H   0  0  0  0  0  0  0  0  0  0  0  0
    6.0301   -1.6492    0.0000 H   0  0  0  0  0  0  0  0  0  0  0  0
    9.0179    1.5622    0.0000 H   0  0  0  0  0  0  0  0  0  0  0  0
    8.7790    2.6092    0.0000 H   0  0  0  0  0  0  0  0  0  0  0  0
    2.0000   -1.2256    0.0000 H   0  0  0  0  0  0  0  0  0  0  0  0
  1 51  1  0  0  0  0
  2 22  1  0  0  0  0
  3 22  2  0  0  0  0
  4 24  1  0  0  0  0
  5 24  2  0  0  0  0
  6  7  1  1  0  0  0
  6 11  1  0  0  0  0
  6 13  1  0  0  0  0
  7  8  1  6  0  0  0
  7 15  1  0  0  0  0
  7 26  1  0  0  0  0
  8  9  1  6  0  0  0
  8 16  1  0  0  0  0
  8 19  1  0  0  0  0
  9 10  1  6  0  0  0
  9 27  1  0  0  0  0
 10  6  1  6  0  0  0
 10 22  1  0  0  0  0
 10 28  1  0  0  0  0
 11 14  1  0  0  0  0
 11 29  1  0  0  0  0
 11 30  1  0  0  0  0
 12  9  1  6  0  0  0
 12 20  1  0  0  0  0
 12 23  1  0  0  0  0
 12 24  1  0  0  0  0
 13 18  1  0  0  0  0
 13 31  1  0  0  0  0
 13 32  1  0  0  0  0
 14 17  1  0  0  0  0
 14 18  1  0  0  0  0
 14 33  1  6  0  0  0
 15 17  1  0  0  0  0
 15 34  1  0  0  0  0
 15 35  1  0  0  0  0
 16 21  1  0  0  0  0
 16 36  1  0  0  0  0
 16 37  1  0  0  0  0
 17 38  1  0  0  0  0
 17 39  1  0  0  0  0
 18 25  2  0  0  0  0
 19 40  1  0  0  0  0
 19 41  1  0  0  0  0
 19 42  1  0  0  0  0
 20 21  1  0  0  0  0
 20 43  1  0  0  0  0
 20 44  1  0  0  0  0
 21  1  1  0  0  0  0
 21 45  1  6  0  0  0
 23 46  1  0  0  0  0
 23 47  1  0  0  0  0
 23 48  1  0  0  0  0
 25 49  1  0  0  0  0
 25 50  1  0  0  0  0
M  CHG  2   2  -1   4  -1
M  END
>  <PUBCHEM_COMPOUND_CID>
25243953

>  <PUBCHEM_COMPOUND_CANONICALIZED>
1

>  <PUBCHEM_CACTVS_COMPLEXITY>
660

>  <PUBCHEM_CACTVS_HBOND_ACCEPTOR>
5

>  <PUBCHEM_CACTVS_HBOND_DONOR>
1

>  <PUBCHEM_CACTVS_ROTATABLE_BOND>
0

>  <PUBCHEM_CACTVS_SUBSKEYS>
AAADceB4OAAAAAAAAAAAAAAAAAAAAYMAAAAwYAAABgAAAGDAAAAAGgAACAAADxSggAICCAAAAgCIAgDSCAAAAAAgAAAAAAEAAAgAEBIAAQAAQAAEgAAAAAHK7vCPgAAAAAAAAADAAAYAACAAAQAACAAAAA==

>  <PUBCHEM_IUPAC_INCHI>
InChI=1S/C20H28O5/c1-10-6-20-7-11(10)4-5-13(20)18(2)8-12(21)9-19(3,17(24)25)15(18)14(20)16(22)23/h11-15,21H,1,4-9H2,2-3H3,(H,22,23)(H,24,25)/p-2/t11-,12+,13+,14-,15+,18+,19-,20+/m1/s1

>  <PUBCHEM_IUPAC_INCHIKEY>
SFGDEUSMQMGAFH-MJPABCAUSA-L

>  <PUBCHEM_XLOGP3_AA>
3.8

>  <PUBCHEM_EXACT_MASS>
346.178

>  <PUBCHEM_MOLECULAR_FORMULA>
C20H26O5-2

>  <PUBCHEM_MOLECULAR_WEIGHT>
346.423

>  <PUBCHEM_OPENEYE_CAN_SMILES>
CC12CC(CC(C1C(C34C2CCC(C3)C(=C)C4)C(=O)[O-])(C)C(=O)[O-])O

>  <PUBCHEM_OPENEYE_ISO_SMILES>
C[C@@]12C[C@@H](C[C@@]([C@H]1[C@@H]([C@]34[C@H]2CC[C@H](C3)C(=C)C4)C(=O)[O-])(C)C(=O)[O-])O

>  <PUBCHEM_CACTVS_TPSA>
101

>  <PUBCHEM_MONOISOTOPIC_WEIGHT>
346.178

>  <PUBCHEM_TOTAL_CHARGE>
-2

>  <PUBCHEM_HEAVY_ATOM_COUNT>
25

>  <PUBCHEM_ATOM_DEF_STEREO_COUNT>
8

>  <PUBCHEM_ATOM_UDEF_STEREO_COUNT>
0

>  <PUBCHEM_BOND_DEF_STEREO_COUNT>
0

>  <PUBCHEM_BOND_UDEF_STEREO_COUNT>
0

>  <PUBCHEM_ISOTOPIC_ATOM_COUNT>
0

>  <PUBCHEM_COMPONENT_COUNT>
1

>  <PUBCHEM_CACTVS_TAUTO_COUNT>
1

>  <PUBCHEM_COORDINATE_TYPE>
1
5
255

>  <PUBCHEM_BONDANNOTATIONS>
21  1  5
10  22  5
12  23  5
14  33  6
6  11  6
7  26  5
8  19  6
9  27  5

$$$$
