259799
 OpenBabel06101807152D

 36 39  0  0  0  0  0  0  0  0999 V2000
    3.6750    0.3869    0.0000 O   0  0  0  0  0  0  0  0  0  0  0  0
    2.0570    0.3869    0.0000 N   0  0  0  0  0  0  0  0  0  0  0  0
    2.3660   -0.5642    0.0000 N   0  0  0  0  0  0  0  0  0  0  0  0
    3.7320    2.4746    0.0000 C   0  0  0  0  0  0  0  0  0  0  0  0
    2.8660    1.9746    0.0000 C   0  0  0  0  0  0  0  0  0  0  0  0
    3.7320    3.4746    0.0000 C   0  0  0  0  0  0  0  0  0  0  0  0
    2.8660    0.9747    0.0000 C   0  0  0  0  0  0  0  0  0  0  0  0
    2.0000    2.4746    0.0000 C   0  0  0  0  0  0  0  0  0  0  0  0
    4.6260    1.9400    0.0000 C   0  0  0  0  0  0  0  0  0  0  0  0
    2.8660    3.9746    0.0000 C   0  0  0  0  0  0  0  0  0  0  0  0
    3.9538   -1.3732    0.0000 C   0  0  0  0  0  0  0  0  0  0  0  0
    4.6260    4.0093    0.0000 C   0  0  0  0  0  0  0  0  0  0  0  0
    2.0000    3.4746    0.0000 C   0  0  0  0  0  0  0  0  0  0  0  0
    3.3660   -0.5642    0.0000 C   0  0  0  0  0  0  0  0  0  0  0  0
    5.5321    2.4538    0.0000 C   0  0  0  0  0  0  0  0  0  0  0  0
    3.5471   -2.2868    0.0000 C   0  0  0  0  0  0  0  0  0  0  0  0
    4.1349   -3.0958    0.0000 C   0  0  0  0  0  0  0  0  0  0  0  0
    5.5321    3.4955    0.0000 C   0  0  0  0  0  0  0  0  0  0  0  0
    4.9483   -1.2687    0.0000 C   0  0  0  0  0  0  0  0  0  0  0  0
    5.1294   -2.9912    0.0000 C   0  0  0  0  0  0  0  0  0  0  0  0
    5.5361   -2.0777    0.0000 C   0  0  0  0  0  0  0  0  0  0  0  0
    3.7281   -4.0093    0.0000 C   0  0  0  0  0  0  0  0  0  0  0  0
    1.4631    2.1646    0.0000 H   0  0  0  0  0  0  0  0  0  0  0  0
    4.6188    1.3200    0.0000 H   0  0  0  0  0  0  0  0  0  0  0  0
    2.8660    4.5946    0.0000 H   0  0  0  0  0  0  0  0  0  0  0  0
    4.6188    4.6293    0.0000 H   0  0  0  0  0  0  0  0  0  0  0  0
    1.4631    3.7846    0.0000 H   0  0  0  0  0  0  0  0  0  0  0  0
    2.9305   -2.3516    0.0000 H   0  0  0  0  0  0  0  0  0  0  0  0
    6.0678    2.1418    0.0000 H   0  0  0  0  0  0  0  0  0  0  0  0
    6.0678    3.8075    0.0000 H   0  0  0  0  0  0  0  0  0  0  0  0
    5.2005   -0.7023    0.0000 H   0  0  0  0  0  0  0  0  0  0  0  0
    5.4938   -3.4928    0.0000 H   0  0  0  0  0  0  0  0  0  0  0  0
    6.1527   -2.0129    0.0000 H   0  0  0  0  0  0  0  0  0  0  0  0
    3.1617   -3.7571    0.0000 H   0  0  0  0  0  0  0  0  0  0  0  0
    3.4760   -4.5757    0.0000 H   0  0  0  0  0  0  0  0  0  0  0  0
    4.2945   -4.2615    0.0000 H   0  0  0  0  0  0  0  0  0  0  0  0
  1  7  1  0  0  0  0
  1 14  1  0  0  0  0
  2  3  1  0  0  0  0
  2  7  2  0  0  0  0
  3 14  2  0  0  0  0
  4  5  1  0  0  0  0
  4  6  1  0  0  0  0
  4  9  2  0  0  0  0
  5  7  1  0  0  0  0
  5  8  2  0  0  0  0
  6 10  1  0  0  0  0
  6 12  2  0  0  0  0
  8 13  1  0  0  0  0
  8 23  1  0  0  0  0
  9 15  1  0  0  0  0
  9 24  1  0  0  0  0
 10 13  2  0  0  0  0
 10 25  1  0  0  0  0
 11 14  1  0  0  0  0
 11 16  1  0  0  0  0
 11 19  2  0  0  0  0
 12 18  1  0  0  0  0
 12 26  1  0  0  0  0
 13 27  1  0  0  0  0
 15 18  2  0  0  0  0
 15 29  1  0  0  0  0
 16 17  2  0  0  0  0
 16 28  1  0  0  0  0
 17 20  1  0  0  0  0
 17 22  1  0  0  0  0
 18 30  1  0  0  0  0
 19 21  1  0  0  0  0
 19 31  1  0  0  0  0
 20 21  2  0  0  0  0
 20 32  1  0  0  0  0
 21 33  1  0  0  0  0
 22 34  1  0  0  0  0
 22 35  1  0  0  0  0
 22 36  1  0  0  0  0
M  END
>  <PUBCHEM_COMPOUND_CID>
259799

>  <PUBCHEM_COMPOUND_CANONICALIZED>
1

>  <PUBCHEM_CACTVS_COMPLEXITY>
374

>  <PUBCHEM_CACTVS_HBOND_ACCEPTOR>
3

>  <PUBCHEM_CACTVS_HBOND_DONOR>
0

>  <PUBCHEM_CACTVS_ROTATABLE_BOND>
2

>  <PUBCHEM_CACTVS_SUBSKEYS>
AAADccB7IAAAAAAAAAAAAAAAAAAAAWAAAAAwYMAAAAAAAADB1AAAHgAIAAAADACBmgAyAMAABECqAiFyEACSAAAsAAAaiCEgDNgIJrKAtRmKMQBkyAEIqYeYyOCOgAACAAAQAAAAAAQAACAAAAAAAAAAAA==

>  <PUBCHEM_IUPAC_OPENEYE_NAME>
2-(m-tolyl)-5-(1-naphthyl)-1,3,4-oxadiazole

>  <PUBCHEM_IUPAC_CAS_NAME>
2-(3-methylphenyl)-5-(1-naphthalenyl)-1,3,4-oxadiazole

>  <PUBCHEM_IUPAC_NAME>
2-(3-methylphenyl)-5-naphthalen-1-yl-1,3,4-oxadiazole

>  <PUBCHEM_IUPAC_SYSTEMATIC_NAME>
2-(3-methylphenyl)-5-naphthalen-1-yl-1,3,4-oxadiazole

>  <PUBCHEM_IUPAC_TRADITIONAL_NAME>
2-(m-tolyl)-5-(1-naphthyl)-1,3,4-oxadiazole

>  <PUBCHEM_IUPAC_INCHI>
InChI=1S/C19H14N2O/c1-13-6-4-9-15(12-13)18-20-21-19(22-18)17-11-5-8-14-7-2-3-10-16(14)17/h2-12H,1H3

>  <PUBCHEM_IUPAC_INCHIKEY>
VLEVIOBDMUPMGI-UHFFFAOYSA-N

>  <PUBCHEM_XLOGP3_AA>
4.7

>  <PUBCHEM_EXACT_MASS>
286.111

>  <PUBCHEM_MOLECULAR_FORMULA>
C19H14N2O

>  <PUBCHEM_MOLECULAR_WEIGHT>
286.334

>  <PUBCHEM_OPENEYE_CAN_SMILES>
CC1=CC=CC(=C1)C2=NN=C(O2)C3=CC=CC4=CC=CC=C43

>  <PUBCHEM_OPENEYE_ISO_SMILES>
CC1=CC=CC(=C1)C2=NN=C(O2)C3=CC=CC4=CC=CC=C43

>  <PUBCHEM_CACTVS_TPSA>
38.9

>  <PUBCHEM_MONOISOTOPIC_WEIGHT>
286.111

>  <PUBCHEM_TOTAL_CHARGE>
0

>  <PUBCHEM_HEAVY_ATOM_COUNT>
22

>  <PUBCHEM_ATOM_DEF_STEREO_COUNT>
0

>  <PUBCHEM_ATOM_UDEF_STEREO_COUNT>
0

>  <PUBCHEM_BOND_DEF_STEREO_COUNT>
0

>  <PUBCHEM_BOND_UDEF_STEREO_COUNT>
0

>  <PUBCHEM_ISOTOPIC_ATOM_COUNT>
0

>  <PUBCHEM_COMPONENT_COUNT>
1

>  <PUBCHEM_CACTVS_TAUTO_COUNT>
1

>  <PUBCHEM_COORDINATE_TYPE>
1
5
255

>  <PUBCHEM_BONDANNOTATIONS>
1  14  8
1  7  8
10  13  8
11  16  8
11  19  8
12  18  8
15  18  8
16  17  8
17  20  8
19  21  8
2  3  8
2  7  8
20  21  8
3  14  8
4  5  8
4  6  8
4  9  8
5  8  8
6  10  8
6  12  8
8  13  8
9  15  8

$$$$
