267363
 OpenBabel06101807152D

156165  0  0  1  0  0  0  0  0999 V2000
   10.8882    1.8693    0.0000 O   0  0  0  0  0  0  0  0  0  0  0  0
   10.7717    3.0315    0.0000 O   0  0  0  0  0  0  0  0  0  0  0  0
    9.4651   -6.3748    0.0000 O   0  0  0  0  0  0  0  0  0  0  0  0
    9.3400    5.3420    0.0000 O   0  0  0  0  0  0  0  0  0  0  0  0
    7.7331   -6.3748    0.0000 O   0  0  0  0  0  0  0  0  0  0  0  0
   10.0397    6.9264    0.0000 O   0  0  0  0  0  0  0  0  0  0  0  0
    9.4651   -8.3748    0.0000 O   0  0  0  0  0  0  0  0  0  0  0  0
    7.7331   -9.3748    0.0000 O   0  0  0  0  0  0  0  0  0  0  0  0
    7.5104    6.1500    0.0000 O   0  0  0  0  0  0  0  0  0  0  0  0
    6.0010   -8.3748    0.0000 O   0  0  0  0  0  0  0  0  0  0  0  0
    7.2954    8.1384    0.0000 O   0  0  0  0  0  0  0  0  0  0  0  0
    8.9099    9.3188    0.0000 O   0  0  0  0  0  0  0  0  0  0  0  0
   10.3312   -6.8748    0.0000 O   0  0  0  0  0  0  0  0  0  0  0  0
    6.0010   -5.3748    0.0000 O   0  0  0  0  0  0  0  0  0  0  0  0
   11.6542    8.1068    0.0000 O   0  0  0  0  0  0  0  0  0  0  0  0
    5.1350   -6.8748    0.0000 O   0  0  0  0  0  0  0  0  0  0  0  0
   11.1972   -9.3748    0.0000 O   0  0  0  0  0  0  0  0  0  0  0  0
   12.9292   -8.3748    0.0000 O   0  0  0  0  0  0  0  0  0  0  0  0
    4.2690   -9.3748    0.0000 O   0  0  0  0  0  0  0  0  0  0  0  0
   12.9292   -6.3748    0.0000 O   0  0  0  0  0  0  0  0  0  0  0  0
    2.5369   -8.3748    0.0000 O   0  0  0  0  0  0  0  0  0  0  0  0
    2.5369   -6.3748    0.0000 O   0  0  0  0  0  0  0  0  0  0  0  0
   12.0632   -4.8748    0.0000 O   0  0  0  0  0  0  0  0  0  0  0  0
    9.4944   -0.1779    0.0000 C   0  0  3  0  0  0  0  0  0  0  0  0
   10.3623   -0.6745    0.0000 C   0  0  3  0  0  0  0  0  0  0  0  0
    9.6999    0.7947    0.0000 C   0  0  3  0  0  0  0  0  0  0  0  0
   10.3662   -1.6745    0.0000 C   0  0  3  0  0  0  0  0  0  0  0  0
   10.6882    0.9016    0.0000 C   0  0  3  0  0  0  0  0  0  0  0  0
   11.0968   -0.0046    0.0000 C   0  0  0  0  0  0  0  0  0  0  0  0
    9.5021   -2.1779    0.0000 C   0  0  3  0  0  0  0  0  0  0  0  0
    9.2976    1.6973    0.0000 C   0  0  3  0  0  0  0  0  0  0  0  0
    8.6303   -0.6812    0.0000 C   0  0  0  0  0  0  0  0  0  0  0  0
   10.0305    2.3601    0.0000 C   0  0  3  0  0  0  0  0  0  0  0  0
    8.6342   -1.6812    0.0000 C   0  0  0  0  0  0  0  0  0  0  0  0
    9.4901   -3.2194    0.0000 C   0  0  3  0  0  0  0  0  0  0  0  0
    8.6264    0.3188    0.0000 C   0  0  0  0  0  0  0  0  0  0  0  0
   11.2781   -2.1779    0.0000 C   0  0  0  0  0  0  0  0  0  0  0  0
   10.3901   -3.7437    0.0000 C   0  0  0  0  0  0  0  0  0  0  0  0
    9.1630    2.8575    0.0000 C   0  0  0  0  0  0  0  0  0  0  0  0
    8.5402   -3.7437    0.0000 C   0  0  0  0  0  0  0  0  0  0  0  0
    8.3192    1.9040    0.0000 C   0  0  0  0  0  0  0  0  0  0  0  0
   11.2902   -3.2194    0.0000 C   0  0  0  0  0  0  0  0  0  0  0  0
   10.3622    3.9438    0.0000 C   0  0  3  0  0  0  0  0  0  0  0  0
    8.6260   -2.7161    0.0000 C   0  0  0  0  0  0  0  0  0  0  0  0
    9.3680    3.8363    0.0000 C   0  0  0  0  0  0  0  0  0  0  0  0
   10.4027   -4.8286    0.0000 C   0  0  0  0  0  0  0  0  0  0  0  0
    8.5276   -4.8286    0.0000 C   0  0  0  0  0  0  0  0  0  0  0  0
    9.4651   -5.3748    0.0000 C   0  0  3  0  0  0  0  0  0  0  0  0
   10.2547    4.9380    0.0000 C   0  0  0  0  0  0  0  0  0  0  0  0
   11.2745    4.3533    0.0000 C   0  0  0  0  0  0  0  0  0  0  0  0
    8.5991   -6.8748    0.0000 C   0  0  3  0  0  0  0  0  0  0  0  0
    9.2324    6.3362    0.0000 C   0  0  3  0  0  0  0  0  0  0  0  0
    8.5991   -7.8748    0.0000 C   0  0  3  0  0  0  0  0  0  0  0  0
    7.7331   -8.3748    0.0000 C   0  0  3  0  0  0  0  0  0  0  0  0
    8.3177    6.7402    0.0000 C   0  0  3  0  0  0  0  0  0  0  0  0
    6.8671   -6.8748    0.0000 C   0  0  3  0  0  0  0  0  0  0  0  0
    6.8671   -7.8748    0.0000 C   0  0  3  0  0  0  0  0  0  0  0  0
    8.2102    7.7344    0.0000 C   0  0  3  0  0  0  0  0  0  0  0  0
    9.9322    7.9206    0.0000 C   0  0  3  0  0  0  0  0  0  0  0  0
    9.0174    8.3246    0.0000 C   0  0  3  0  0  0  0  0  0  0  0  0
    6.0010   -6.3748    0.0000 C   0  0  0  0  0  0  0  0  0  0  0  0
   10.3312   -7.8748    0.0000 C   0  0  3  0  0  0  0  0  0  0  0  0
   10.7395    8.5108    0.0000 C   0  0  0  0  0  0  0  0  0  0  0  0
   11.1972   -8.3748    0.0000 C   0  0  3  0  0  0  0  0  0  0  0  0
    5.1350   -7.8748    0.0000 C   0  0  3  0  0  0  0  0  0  0  0  0
   12.0632   -7.8748    0.0000 C   0  0  3  0  0  0  0  0  0  0  0  0
   11.1972   -6.3748    0.0000 C   0  0  3  0  0  0  0  0  0  0  0  0
    4.2690   -8.3748    0.0000 C   0  0  3  0  0  0  0  0  0  0  0  0
   12.0632   -6.8748    0.0000 C   0  0  3  0  0  0  0  0  0  0  0  0
    3.4030   -7.8748    0.0000 C   0  0  3  0  0  0  0  0  0  0  0  0
    4.2690   -6.3748    0.0000 C   0  0  3  0  0  0  0  0  0  0  0  0
    3.4030   -6.8748    0.0000 C   0  0  3  0  0  0  0  0  0  0  0  0
   11.1972   -5.3748    0.0000 C   0  0  0  0  0  0  0  0  0  0  0  0
    4.2690   -5.3748    0.0000 C   0  0  0  0  0  0  0  0  0  0  0  0
   11.1406   -1.0163    0.0000 H   0  0  0  0  0  0  0  0  0  0  0  0
    8.8546    0.7052    0.0000 H   0  0  0  0  0  0  0  0  0  0  0  0
   11.0974   -1.2410    0.0000 H   0  0  0  0  0  0  0  0  0  0  0  0
   11.5330    0.9948    0.0000 H   0  0  0  0  0  0  0  0  0  0  0  0
   11.4642   -0.5041    0.0000 H   0  0  0  0  0  0  0  0  0  0  0  0
   11.6321    0.3082    0.0000 H   0  0  0  0  0  0  0  0  0  0  0  0
   10.2366   -2.6057    0.0000 H   0  0  0  0  0  0  0  0  0  0  0  0
    8.7632    1.0363    0.0000 H   0  0  0  0  0  0  0  0  0  0  0  0
    8.4160   -0.0994    0.0000 H   0  0  0  0  0  0  0  0  0  0  0  0
    8.0201   -0.7912    0.0000 H   0  0  0  0  0  0  0  0  0  0  0  0
    8.0232   -1.5759    0.0000 H   0  0  0  0  0  0  0  0  0  0  0  0
    8.4244   -2.2646    0.0000 H   0  0  0  0  0  0  0  0  0  0  0  0
    8.9344    0.8569    0.0000 H   0  0  0  0  0  0  0  0  0  0  0  0
    8.0883    0.6267    0.0000 H   0  0  0  0  0  0  0  0  0  0  0  0
    8.3185   -0.2193    0.0000 H   0  0  0  0  0  0  0  0  0  0  0  0
   11.8902   -2.2769    0.0000 H   0  0  0  0  0  0  0  0  0  0  0  0
   11.4804   -1.5918    0.0000 H   0  0  0  0  0  0  0  0  0  0  0  0
    8.5728    3.0474    0.0000 H   0  0  0  0  0  0  0  0  0  0  0  0
    8.9125    2.2904    0.0000 H   0  0  0  0  0  0  0  0  0  0  0  0
    8.3379   -3.1576    0.0000 H   0  0  0  0  0  0  0  0  0  0  0  0
    7.9281   -3.8427    0.0000 H   0  0  0  0  0  0  0  0  0  0  0  0
    8.4473    2.5106    0.0000 H   0  0  0  0  0  0  0  0  0  0  0  0
    7.7125    2.0322    0.0000 H   0  0  0  0  0  0  0  0  0  0  0  0
    8.1910    1.2974    0.0000 H   0  0  0  0  0  0  0  0  0  0  0  0
   11.8295   -3.5253    0.0000 H   0  0  0  0  0  0  0  0  0  0  0  0
    8.9380   -2.1804    0.0000 H   0  0  0  0  0  0  0  0  0  0  0  0
    8.0902   -2.4040    0.0000 H   0  0  0  0  0  0  0  0  0  0  0  0
    8.3139   -3.2518    0.0000 H   0  0  0  0  0  0  0  0  0  0  0  0
    9.3662    4.4563    0.0000 H   0  0  0  0  0  0  0  0  0  0  0  0
    8.7512    3.8993    0.0000 H   0  0  0  0  0  0  0  0  0  0  0  0
   10.6185   -5.4099    0.0000 H   0  0  0  0  0  0  0  0  0  0  0  0
   11.0123   -4.7155    0.0000 H   0  0  0  0  0  0  0  0  0  0  0  0
    7.9180   -4.7155    0.0000 H   0  0  0  0  0  0  0  0  0  0  0  0
    8.3118   -5.4099    0.0000 H   0  0  0  0  0  0  0  0  0  0  0  0
   10.2021   -5.7983    0.0000 H   0  0  0  0  0  0  0  0  0  0  0  0
   10.8733    4.8966    0.0000 H   0  0  0  0  0  0  0  0  0  0  0  0
   10.4029    5.5400    0.0000 H   0  0  0  0  0  0  0  0  0  0  0  0
   11.5284    3.7876    0.0000 H   0  0  0  0  0  0  0  0  0  0  0  0
   11.8402    4.6071    0.0000 H   0  0  0  0  0  0  0  0  0  0  0  0
   11.0207    4.9189    0.0000 H   0  0  0  0  0  0  0  0  0  0  0  0
    8.5991   -6.0248    0.0000 H   0  0  0  0  0  0  0  0  0  0  0  0
    8.5463    5.8345    0.0000 H   0  0  0  0  0  0  0  0  0  0  0  0
    8.5991   -8.7248    0.0000 H   0  0  0  0  0  0  0  0  0  0  0  0
    6.9970   -8.7998    0.0000 H   0  0  0  0  0  0  0  0  0  0  0  0
    7.5402    7.0836    0.0000 H   0  0  0  0  0  0  0  0  0  0  0  0
    6.8671   -6.0248    0.0000 H   0  0  0  0  0  0  0  0  0  0  0  0
    6.1309   -7.4498    0.0000 H   0  0  0  0  0  0  0  0  0  0  0  0
    8.1188    8.5795    0.0000 H   0  0  0  0  0  0  0  0  0  0  0  0
   10.7097    7.5772    0.0000 H   0  0  0  0  0  0  0  0  0  0  0  0
    9.7036    8.8263    0.0000 H   0  0  0  0  0  0  0  0  0  0  0  0
    5.3905   -6.2671    0.0000 H   0  0  0  0  0  0  0  0  0  0  0  0
    5.7890   -6.9574    0.0000 H   0  0  0  0  0  0  0  0  0  0  0  0
   10.3312   -8.7248    0.0000 H   0  0  0  0  0  0  0  0  0  0  0  0
    7.1962   -9.6848    0.0000 H   0  0  0  0  0  0  0  0  0  0  0  0
    6.9433    6.4005    0.0000 H   0  0  0  0  0  0  0  0  0  0  0  0
   11.0846    9.0259    0.0000 H   0  0  0  0  0  0  0  0  0  0  0  0
   10.2922    8.9402    0.0000 H   0  0  0  0  0  0  0  0  0  0  0  0
    7.2288    8.7548    0.0000 H   0  0  0  0  0  0  0  0  0  0  0  0
   11.9333   -8.7998    0.0000 H   0  0  0  0  0  0  0  0  0  0  0  0
    5.1350   -8.7248    0.0000 H   0  0  0  0  0  0  0  0  0  0  0  0
    9.4104    9.6848    0.0000 H   0  0  0  0  0  0  0  0  0  0  0  0
    5.4641   -5.0648    0.0000 H   0  0  0  0  0  0  0  0  0  0  0  0
   12.7993   -7.4498    0.0000 H   0  0  0  0  0  0  0  0  0  0  0  0
   10.4611   -5.9498    0.0000 H   0  0  0  0  0  0  0  0  0  0  0  0
    3.5329   -8.7998    0.0000 H   0  0  0  0  0  0  0  0  0  0  0  0
   12.0632   -6.0248    0.0000 H   0  0  0  0  0  0  0  0  0  0  0  0
   12.1547    8.4727    0.0000 H   0  0  0  0  0  0  0  0  0  0  0  0
    2.6668   -7.4498    0.0000 H   0  0  0  0  0  0  0  0  0  0  0  0
   11.7341   -9.6848    0.0000 H   0  0  0  0  0  0  0  0  0  0  0  0
    5.0051   -5.9498    0.0000 H   0  0  0  0  0  0  0  0  0  0  0  0
    3.4030   -6.0248    0.0000 H   0  0  0  0  0  0  0  0  0  0  0  0
   10.9851   -4.7921    0.0000 H   0  0  0  0  0  0  0  0  0  0  0  0
   10.5866   -5.4824    0.0000 H   0  0  0  0  0  0  0  0  0  0  0  0
   12.9292   -8.9948    0.0000 H   0  0  0  0  0  0  0  0  0  0  0  0
    3.7320   -9.6848    0.0000 H   0  0  0  0  0  0  0  0  0  0  0  0
   13.4662   -6.6848    0.0000 H   0  0  0  0  0  0  0  0  0  0  0  0
    4.8890   -5.3748    0.0000 H   0  0  0  0  0  0  0  0  0  0  0  0
    4.2690   -4.7547    0.0000 H   0  0  0  0  0  0  0  0  0  0  0  0
    3.6490   -5.3748    0.0000 H   0  0  0  0  0  0  0  0  0  0  0  0
    2.0000   -8.0648    0.0000 H   0  0  0  0  0  0  0  0  0  0  0  0
    2.5369   -5.7547    0.0000 H   0  0  0  0  0  0  0  0  0  0  0  0
   12.6002   -5.1848    0.0000 H   0  0  0  0  0  0  0  0  0  0  0  0
  1 28  1  0  0  0  0
  1 33  1  0  0  0  0
  2 33  1  0  0  0  0
  2 43  1  0  0  0  0
  3 48  1  0  0  0  0
  3 51  1  0  0  0  0
  4 49  1  0  0  0  0
  4 52  1  0  0  0  0
  5 51  1  0  0  0  0
  5 56  1  0  0  0  0
  6 52  1  0  0  0  0
  6 59  1  0  0  0  0
  7 53  1  0  0  0  0
  7 62  1  0  0  0  0
  8 54  1  0  0  0  0
  8128  1  0  0  0  0
  9 55  1  0  0  0  0
  9129  1  0  0  0  0
 10 57  1  0  0  0  0
 10 65  1  0  0  0  0
 11 58  1  0  0  0  0
 11132  1  0  0  0  0
 12 60  1  0  0  0  0
 12135  1  0  0  0  0
 13 62  1  0  0  0  0
 13 67  1  0  0  0  0
 14 61  1  0  0  0  0
 14136  1  0  0  0  0
 15 63  1  0  0  0  0
 15141  1  0  0  0  0
 16 65  1  0  0  0  0
 16 71  1  0  0  0  0
 17 64  1  0  0  0  0
 17143  1  0  0  0  0
 18 66  1  0  0  0  0
 18148  1  0  0  0  0
 19 68  1  0  0  0  0
 19149  1  0  0  0  0
 20 69  1  0  0  0  0
 20150  1  0  0  0  0
 21 70  1  0  0  0  0
 21154  1  0  0  0  0
 22 72  1  0  0  0  0
 22155  1  0  0  0  0
 23 73  1  0  0  0  0
 23156  1  0  0  0  0
 24 25  1  0  0  0  0
 24 26  1  0  0  0  0
 24 32  1  0  0  0  0
 24 36  1  0  0  0  0
 25 27  1  0  0  0  0
 25 29  1  0  0  0  0
 25 75  1  0  0  0  0
 26 28  1  0  0  0  0
 26 31  1  0  0  0  0
 26 76  1  0  0  0  0
 27 30  1  0  0  0  0
 27 37  1  0  0  0  0
 27 77  1  0  0  0  0
 28 29  1  0  0  0  0
 28 78  1  0  0  0  0
 29 79  1  0  0  0  0
 29 80  1  0  0  0  0
 30 34  1  0  0  0  0
 30 35  1  0  0  0  0
 30 81  1  0  0  0  0
 31 33  1  0  0  0  0
 31 41  1  0  0  0  0
 31 82  1  0  0  0  0
 32 34  1  0  0  0  0
 32 83  1  0  0  0  0
 32 84  1  0  0  0  0
 33 39  1  0  0  0  0
 34 85  1  0  0  0  0
 34 86  1  0  0  0  0
 35 38  1  0  0  0  0
 35 40  1  0  0  0  0
 35 44  1  0  0  0  0
 36 87  1  0  0  0  0
 36 88  1  0  0  0  0
 36 89  1  0  0  0  0
 37 42  1  0  0  0  0
 37 90  1  0  0  0  0
 37 91  1  0  0  0  0
 38 42  2  0  0  0  0
 38 46  1  0  0  0  0
 39 45  1  0  0  0  0
 39 92  1  0  0  0  0
 39 93  1  0  0  0  0
 40 47  1  0  0  0  0
 40 94  1  0  0  0  0
 40 95  1  0  0  0  0
 41 96  1  0  0  0  0
 41 97  1  0  0  0  0
 41 98  1  0  0  0  0
 42 99  1  0  0  0  0
 43 45  1  0  0  0  0
 43 49  1  0  0  0  0
 43 50  1  0  0  0  0
 44100  1  0  0  0  0
 44101  1  0  0  0  0
 44102  1  0  0  0  0
 45103  1  0  0  0  0
 45104  1  0  0  0  0
 46 48  1  0  0  0  0
 46105  1  0  0  0  0
 46106  1  0  0  0  0
 47 48  1  0  0  0  0
 47107  1  0  0  0  0
 47108  1  0  0  0  0
 48109  1  0  0  0  0
 49110  1  0  0  0  0
 49111  1  0  0  0  0
 50112  1  0  0  0  0
 50113  1  0  0  0  0
 50114  1  0  0  0  0
 51 53  1  0  0  0  0
 51115  1  0  0  0  0
 52 55  1  0  0  0  0
 52116  1  0  0  0  0
 53 54  1  0  0  0  0
 53117  1  0  0  0  0
 54 57  1  0  0  0  0
 54118  1  0  0  0  0
 55 58  1  0  0  0  0
 55119  1  0  0  0  0
 56 57  1  0  0  0  0
 56 61  1  0  0  0  0
 56120  1  0  0  0  0
 57121  1  0  0  0  0
 58 60  1  0  0  0  0
 58122  1  0  0  0  0
 59 60  1  0  0  0  0
 59 63  1  0  0  0  0
 59123  1  0  0  0  0
 60124  1  0  0  0  0
 61125  1  0  0  0  0
 61126  1  0  0  0  0
 62 64  1  0  0  0  0
 62127  1  0  0  0  0
 63130  1  0  0  0  0
 63131  1  0  0  0  0
 64 66  1  0  0  0  0
 64133  1  0  0  0  0
 65 68  1  0  0  0  0
 65134  1  0  0  0  0
 66 69  1  0  0  0  0
 66137  1  0  0  0  0
 67 69  1  0  0  0  0
 67 73  1  0  0  0  0
 67138  1  0  0  0  0
 68 70  1  0  0  0  0
 68139  1  0  0  0  0
 69140  1  0  0  0  0
 70 72  1  0  0  0  0
 70142  1  0  0  0  0
 71 72  1  0  0  0  0
 71 74  1  0  0  0  0
 71144  1  0  0  0  0
 72145  1  0  0  0  0
 73146  1  0  0  0  0
 73147  1  0  0  0  0
 74151  1  0  0  0  0
 74152  1  0  0  0  0
 74153  1  0  0  0  0
M  END
>  <PUBCHEM_COMPOUND_CID>
267363

>  <PUBCHEM_COMPOUND_CANONICALIZED>
1

>  <PUBCHEM_CACTVS_COMPLEXITY>
1990

>  <PUBCHEM_CACTVS_HBOND_ACCEPTOR>
23

>  <PUBCHEM_CACTVS_HBOND_DONOR>
13

>  <PUBCHEM_CACTVS_ROTATABLE_BOND>
12

>  <PUBCHEM_CACTVS_SUBSKEYS>
AAADcfB8PgAAAAAAAAAAAAAAAAAAAaJEAAA0aJEiAAASAGCAAAAAGgAACAAAD1SwgAMCCAAABgCAAiBCAAAAAAAgAAAACAAAAAgREAIAAQAiQAAFwAAPAAPA4PwPgAAAAAAAAADAAAQAACAAAYAADAAAAA==

>  <PUBCHEM_IUPAC_INCHI>
InChI=1S/C51H82O23/c1-20-31-27(73-51(20)13-12-48(3,74-51)19-65-44-38(61)36(59)33(56)28(16-52)68-44)15-26-24-7-6-22-14-23(8-10-49(22,4)25(24)9-11-50(26,31)5)67-47-43(72-46-40(63)37(60)34(57)29(17-53)69-46)41(64)42(30(18-54)70-47)71-45-39(62)35(58)32(55)21(2)66-45/h6,20-21,23-47,52-64H,7-19H2,1-5H3

>  <PUBCHEM_IUPAC_INCHIKEY>
AAJHVVLGKCKBSH-UHFFFAOYSA-N

>  <PUBCHEM_XLOGP3_AA>
-2

>  <PUBCHEM_EXACT_MASS>
1062.525

>  <PUBCHEM_MOLECULAR_FORMULA>
C51H82O23

>  <PUBCHEM_MOLECULAR_WEIGHT>
1063.194

>  <PUBCHEM_OPENEYE_CAN_SMILES>
CC1C2C(CC3C2(CCC4C3CC=C5C4(CCC(C5)OC6C(C(C(C(O6)CO)OC7C(C(C(C(O7)C)O)O)O)O)OC8C(C(C(C(O8)CO)O)O)O)C)C)OC19CCC(O9)(C)COC1C(C(C(C(O1)CO)O)O)O

>  <PUBCHEM_OPENEYE_ISO_SMILES>
CC1C2C(CC3C2(CCC4C3CC=C5C4(CCC(C5)OC6C(C(C(C(O6)CO)OC7C(C(C(C(O7)C)O)O)O)O)OC8C(C(C(C(O8)CO)O)O)O)C)C)OC19CCC(O9)(C)COC1C(C(C(C(O1)CO)O)O)O

>  <PUBCHEM_CACTVS_TPSA>
355

>  <PUBCHEM_MONOISOTOPIC_WEIGHT>
1062.525

>  <PUBCHEM_TOTAL_CHARGE>
0

>  <PUBCHEM_HEAVY_ATOM_COUNT>
74

>  <PUBCHEM_ATOM_DEF_STEREO_COUNT>
0

>  <PUBCHEM_ATOM_UDEF_STEREO_COUNT>
31

>  <PUBCHEM_BOND_DEF_STEREO_COUNT>
0

>  <PUBCHEM_BOND_UDEF_STEREO_COUNT>
0

>  <PUBCHEM_ISOTOPIC_ATOM_COUNT>
0

>  <PUBCHEM_COMPONENT_COUNT>
1

>  <PUBCHEM_CACTVS_TAUTO_COUNT>
1

>  <PUBCHEM_COORDINATE_TYPE>
1
5
255

>  <PUBCHEM_BONDANNOTATIONS>
24  36  3
25  75  3
26  76  3
27  77  3
28  78  3
30  81  3
31  82  3
33  39  3
35  44  3
43  49  3
48  109  3
51  115  3
52  116  3
53  117  3
54  118  3
55  119  3
56  120  3
57  121  3
58  122  3
59  123  3
60  124  3
62  127  3
64  133  3
65  134  3
66  137  3
67  138  3
68  139  3
69  140  3
70  142  3
71  144  3
72  145  3

$$$$
