275074
 OpenBabel06101807152D

 60 61  0  0  0  0  0  0  0  0999 V2000
    8.8070    6.3100    0.0000 S   0  0  0  0  0  0  0  0  0  0  0  0
    7.9409   13.8100    0.0000 S   0  0  0  0  0  0  0  0  0  0  0  0
    1.4030    7.3380    0.0000 S   0  0  0  0  0  0  0  0  0  0  0  0
    7.0749   14.3100    0.0000 F   0  0  0  0  0  0  0  0  0  0  0  0
   10.5390   10.3100    0.0000 O   0  0  0  0  0  0  0  0  0  0  0  0
    8.4409   14.6760    0.0000 O   0  0  0  0  0  0  0  0  0  0  0  0
    7.4409   12.9440    0.0000 O   0  0  0  0  0  0  0  0  0  0  0  0
    2.2690    7.8380    0.0000 O   0  0  0  0  0  0  0  0  0  0  0  0
    0.5369    6.8380    0.0000 O   0  0  0  0  0  0  0  0  0  0  0  0
    0.9030    8.2040    0.0000 O   0  0  0  0  0  0  0  0  0  0  0  0
    1.9030    6.4720    0.0000 O   0  0  0  0  0  0  0  0  0  0  0  0
    7.9409    1.8100    0.0000 N   0  0  0  0  0  0  0  0  0  0  0  0
    6.2089    1.8100    0.0000 N   0  0  0  0  0  0  0  0  0  0  0  0
    8.8070   10.3100    0.0000 N   0  0  0  0  0  0  0  0  0  0  0  0
    8.8070    3.3100    0.0000 N   0  0  0  0  0  0  0  0  0  0  0  0
    5.3429    3.3100    0.0000 N   0  0  0  0  0  0  0  0  0  0  0  0
    7.0749    0.3100    0.0000 N   0  0  0  0  0  0  0  0  0  0  0  0
    7.9409    4.8100    0.0000 C   0  0  0  0  0  0  0  0  0  0  0  0
    7.0749    4.3100    0.0000 C   0  0  0  0  0  0  0  0  0  0  0  0
    7.9409    5.8100    0.0000 C   0  0  0  0  0  0  0  0  0  0  0  0
    7.0749    3.3100    0.0000 C   0  0  0  0  0  0  0  0  0  0  0  0
    7.9409    2.8100    0.0000 C   0  0  0  0  0  0  0  0  0  0  0  0
    6.2089    2.8100    0.0000 C   0  0  0  0  0  0  0  0  0  0  0  0
    8.8070    7.3100    0.0000 C   0  0  0  0  0  0  0  0  0  0  0  0
    8.8070    9.3100    0.0000 C   0  0  0  0  0  0  0  0  0  0  0  0
    9.6730    7.8100    0.0000 C   0  0  0  0  0  0  0  0  0  0  0  0
    7.9409    7.8100    0.0000 C   0  0  0  0  0  0  0  0  0  0  0  0
    9.6730    8.8100    0.0000 C   0  0  0  0  0  0  0  0  0  0  0  0
    7.9409    8.8100    0.0000 C   0  0  0  0  0  0  0  0  0  0  0  0
    9.6730   11.8100    0.0000 C   0  0  0  0  0  0  0  0  0  0  0  0
    7.0749    1.3100    0.0000 C   0  0  0  0  0  0  0  0  0  0  0  0
    9.6730   10.8100    0.0000 C   0  0  0  0  0  0  0  0  0  0  0  0
    8.8070   13.3100    0.0000 C   0  0  0  0  0  0  0  0  0  0  0  0
    8.8070   12.3100    0.0000 C   0  0  0  0  0  0  0  0  0  0  0  0
   10.5390   12.3100    0.0000 C   0  0  0  0  0  0  0  0  0  0  0  0
    9.6730   13.8100    0.0000 C   0  0  0  0  0  0  0  0  0  0  0  0
   10.5390   13.3100    0.0000 C   0  0  0  0  0  0  0  0  0  0  0  0
    8.1530    4.2274    0.0000 H   0  0  0  0  0  0  0  0  0  0  0  0
    8.5515    4.9177    0.0000 H   0  0  0  0  0  0  0  0  0  0  0  0
    6.8629    4.8926    0.0000 H   0  0  0  0  0  0  0  0  0  0  0  0
    6.4643    4.2023    0.0000 H   0  0  0  0  0  0  0  0  0  0  0  0
    7.7289    6.3926    0.0000 H   0  0  0  0  0  0  0  0  0  0  0  0
    7.3304    5.7023    0.0000 H   0  0  0  0  0  0  0  0  0  0  0  0
   10.2099    7.5000    0.0000 H   0  0  0  0  0  0  0  0  0  0  0  0
    7.4040    7.5000    0.0000 H   0  0  0  0  0  0  0  0  0  0  0  0
   10.2099    9.1200    0.0000 H   0  0  0  0  0  0  0  0  0  0  0  0
    7.4040    9.1200    0.0000 H   0  0  0  0  0  0  0  0  0  0  0  0
    8.2700   10.6200    0.0000 H   0  0  0  0  0  0  0  0  0  0  0  0
    9.3439    3.0000    0.0000 H   0  0  0  0  0  0  0  0  0  0  0  0
    8.8070    3.9300    0.0000 H   0  0  0  0  0  0  0  0  0  0  0  0
    4.8059    3.0000    0.0000 H   0  0  0  0  0  0  0  0  0  0  0  0
    5.3429    3.9300    0.0000 H   0  0  0  0  0  0  0  0  0  0  0  0
    8.2700   12.0000    0.0000 H   0  0  0  0  0  0  0  0  0  0  0  0
   11.0759   12.0000    0.0000 H   0  0  0  0  0  0  0  0  0  0  0  0
    9.6730   14.4300    0.0000 H   0  0  0  0  0  0  0  0  0  0  0  0
   11.0759   13.6200    0.0000 H   0  0  0  0  0  0  0  0  0  0  0  0
    6.5380    0.0000    0.0000 H   0  0  0  0  0  0  0  0  0  0  0  0
    7.6118    0.0000    0.0000 H   0  0  0  0  0  0  0  0  0  0  0  0
    2.8059    7.5280    0.0000 H   0  0  0  0  0  0  0  0  0  0  0  0
    0.0000    7.1480    0.0000 H   0  0  0  0  0  0  0  0  0  0  0  0
  1 20  1  0  0  0  0
  1 24  1  0  0  0  0
  2  4  1  0  0  0  0
  2  6  2  0  0  0  0
  2  7  2  0  0  0  0
  2 33  1  0  0  0  0
  3  8  1  0  0  0  0
  3  9  1  0  0  0  0
  3 10  2  0  0  0  0
  3 11  2  0  0  0  0
  5 32  2  0  0  0  0
  8 59  1  0  0  0  0
  9 60  1  0  0  0  0
 12 22  2  0  0  0  0
 12 31  1  0  0  0  0
 13 23  1  0  0  0  0
 13 31  2  0  0  0  0
 14 25  1  0  0  0  0
 14 32  1  0  0  0  0
 14 48  1  0  0  0  0
 15 22  1  0  0  0  0
 15 49  1  0  0  0  0
 15 50  1  0  0  0  0
 16 23  1  0  0  0  0
 16 51  1  0  0  0  0
 16 52  1  0  0  0  0
 17 31  1  0  0  0  0
 17 57  1  0  0  0  0
 17 58  1  0  0  0  0
 18 19  1  0  0  0  0
 18 20  1  0  0  0  0
 18 38  1  0  0  0  0
 18 39  1  0  0  0  0
 19 21  1  0  0  0  0
 19 40  1  0  0  0  0
 19 41  1  0  0  0  0
 20 42  1  0  0  0  0
 20 43  1  0  0  0  0
 21 22  1  0  0  0  0
 21 23  2  0  0  0  0
 24 26  2  0  0  0  0
 24 27  1  0  0  0  0
 25 28  2  0  0  0  0
 25 29  1  0  0  0  0
 26 28  1  0  0  0  0
 26 44  1  0  0  0  0
 27 29  2  0  0  0  0
 27 45  1  0  0  0  0
 28 46  1  0  0  0  0
 29 47  1  0  0  0  0
 30 32  1  0  0  0  0
 30 34  2  0  0  0  0
 30 35  1  0  0  0  0
 33 34  1  0  0  0  0
 33 36  2  0  0  0  0
 34 53  1  0  0  0  0
 35 37  2  0  0  0  0
 35 54  1  0  0  0  0
 36 37  1  0  0  0  0
 36 55  1  0  0  0  0
 37 56  1  0  0  0  0
M  END
>  <PUBCHEM_COMPOUND_CID>
275074

>  <PUBCHEM_COMPOUND_CANONICALIZED>
1

>  <PUBCHEM_CACTVS_COMPLEXITY>
786

>  <PUBCHEM_CACTVS_HBOND_ACCEPTOR>
14

>  <PUBCHEM_CACTVS_HBOND_DONOR>
6

>  <PUBCHEM_CACTVS_ROTATABLE_BOND>
8

>  <PUBCHEM_CACTVS_SUBSKEYS>
AAADceB7uQBgAAAAAAAAAAAAAAAAAAAAAAA8YIAAAAAAAAAB0AAAHgQQCAQADAiF2gCx8ZbIEIqoAidydHDCgCklCrAJmDkgZNiIKDLg3dGEJQholALoyacYiACOAAQAgAAAAAAACAEAAAAAAAAAAAAAAA==

>  <PUBCHEM_IUPAC_OPENEYE_NAME>
sulfuric acid;3-[[4-[3-(2,4,6-triaminopyrimidin-5-yl)propylsulfanyl]phenyl]carbamoyl]benzenesulfonyl fluoride

>  <PUBCHEM_IUPAC_CAS_NAME>
3-[oxo-[4-[3-(2,4,6-triamino-5-pyrimidinyl)propylthio]anilino]methyl]benzenesulfonyl fluoride;sulfuric acid

>  <PUBCHEM_IUPAC_NAME>
sulfuric acid;3-[[4-[3-(2,4,6-triaminopyrimidin-5-yl)propylsulfanyl]phenyl]carbamoyl]benzenesulfonyl fluoride

>  <PUBCHEM_IUPAC_SYSTEMATIC_NAME>
sulfuric acid;3-[[4-[3-[2,4,6-tris(azanyl)pyrimidin-5-yl]propylsulfanyl]phenyl]carbamoyl]benzenesulfonyl fluoride

>  <PUBCHEM_IUPAC_TRADITIONAL_NAME>
sulfuric acid;3-[[4-[3-(2,4,6-triaminopyrimidin-5-yl)propylthio]phenyl]carbamoyl]benzenesulfonyl fluoride

>  <PUBCHEM_IUPAC_INCHI>
InChI=1S/C20H21FN6O3S2.H2O4S/c21-32(29,30)15-4-1-3-12(11-15)19(28)25-13-6-8-14(9-7-13)31-10-2-5-16-17(22)26-20(24)27-18(16)23;1-5(2,3)4/h1,3-4,6-9,11H,2,5,10H2,(H,25,28)(H6,22,23,24,26,27);(H2,1,2,3,4)

>  <PUBCHEM_IUPAC_INCHIKEY>
CKGQBIVHCLCRKA-UHFFFAOYSA-N

>  <PUBCHEM_EXACT_MASS>
574.077

>  <PUBCHEM_MOLECULAR_FORMULA>
C20H23FN6O7S3

>  <PUBCHEM_MOLECULAR_WEIGHT>
574.617

>  <PUBCHEM_OPENEYE_CAN_SMILES>
C1=CC(=CC(=C1)S(=O)(=O)F)C(=O)NC2=CC=C(C=C2)SCCCC3=C(N=C(N=C3N)N)N.OS(=O)(=O)O

>  <PUBCHEM_OPENEYE_ISO_SMILES>
C1=CC(=CC(=C1)S(=O)(=O)F)C(=O)NC2=CC=C(C=C2)SCCCC3=C(N=C(N=C3N)N)N.OS(=O)(=O)O

>  <PUBCHEM_CACTVS_TPSA>
284

>  <PUBCHEM_MONOISOTOPIC_WEIGHT>
574.077

>  <PUBCHEM_TOTAL_CHARGE>
0

>  <PUBCHEM_HEAVY_ATOM_COUNT>
37

>  <PUBCHEM_ATOM_DEF_STEREO_COUNT>
0

>  <PUBCHEM_ATOM_UDEF_STEREO_COUNT>
0

>  <PUBCHEM_BOND_DEF_STEREO_COUNT>
0

>  <PUBCHEM_BOND_UDEF_STEREO_COUNT>
0

>  <PUBCHEM_ISOTOPIC_ATOM_COUNT>
0

>  <PUBCHEM_COMPONENT_COUNT>
2

>  <PUBCHEM_CACTVS_TAUTO_COUNT>
20

>  <PUBCHEM_COORDINATE_TYPE>
1
5
255

>  <PUBCHEM_BONDANNOTATIONS>
12  22  8
12  31  8
13  23  8
13  31  8
21  22  8
21  23  8
24  26  8
24  27  8
25  28  8
25  29  8
26  28  8
27  29  8
30  34  8
30  35  8
33  34  8
33  36  8
35  37  8
36  37  8

$$$$
