276958
 OpenBabel06101807152D

 51 50  0  0  0  0  0  0  0  0999 V2000
    0.5369    0.9030    0.0000 O   0  0  0  0  0  0  0  0  0  0  0  0
    3.5680   10.0230    0.0000 O   0  0  0  0  0  0  0  0  0  0  0  0
    6.1661    8.5230    0.0000 O   0  5  0  0  0  0  0  0  0  0  0  0
    0.9699    8.5230    0.0000 O   0  5  0  0  0  0  0  0  0  0  0  0
    5.3001   10.0230    0.0000 O   0  0  0  0  0  0  0  0  0  0  0  0
    1.8360   10.0230    0.0000 O   0  0  0  0  0  0  0  0  0  0  0  0
    2.7020    5.5230    0.0000 O   0  5  0  0  0  0  0  0  0  0  0  0
    4.4340    5.5230    0.0000 O   0  0  0  0  0  0  0  0  0  0  0  0
    3.1350    1.4030    0.0000 N   0  0  0  0  0  0  0  0  0  0  0  0
    5.3001    9.0230    0.0000 N   0  3  0  0  0  0  0  0  0  0  0  0
    1.8360    9.0230    0.0000 N   0  3  0  0  0  0  0  0  0  0  0  0
    3.5680    6.0230    0.0000 N   0  3  0  0  0  0  0  0  0  0  0  0
    1.4030    1.4030    0.0000 C   0  0  0  0  0  0  0  0  0  0  0  0
    4.8671    1.4030    0.0000 C   0  0  0  0  0  0  0  0  0  0  0  0
    5.7331    1.9030    0.0000 C   0  0  0  0  0  0  0  0  0  0  0  0
    2.2690    1.9030    0.0000 C   0  0  0  0  0  0  0  0  0  0  0  0
    4.0010    1.9030    0.0000 C   0  0  0  0  0  0  0  0  0  0  0  0
    0.9030    2.2690    0.0000 C   0  0  0  0  0  0  0  0  0  0  0  0
    1.9030    0.5369    0.0000 C   0  0  0  0  0  0  0  0  0  0  0  0
    6.5991    1.4030    0.0000 C   0  0  0  0  0  0  0  0  0  0  0  0
    5.7331    2.9030    0.0000 C   0  0  0  0  0  0  0  0  0  0  0  0
    4.4340    8.5230    0.0000 C   0  0  0  0  0  0  0  0  0  0  0  0
    2.7020    8.5230    0.0000 C   0  0  0  0  0  0  0  0  0  0  0  0
    3.5680    9.0230    0.0000 C   0  0  0  0  0  0  0  0  0  0  0  0
    3.5680    7.0230    0.0000 C   0  0  0  0  0  0  0  0  0  0  0  0
    4.4340    7.5230    0.0000 C   0  0  0  0  0  0  0  0  0  0  0  0
    2.7020    7.5230    0.0000 C   0  0  0  0  0  0  0  0  0  0  0  0
    4.4685    0.9280    0.0000 H   0  0  0  0  0  0  0  0  0  0  0  0
    5.2656    0.9280    0.0000 H   0  0  0  0  0  0  0  0  0  0  0  0
    5.7331    1.2830    0.0000 H   0  0  0  0  0  0  0  0  0  0  0  0
    2.6675    2.3779    0.0000 H   0  0  0  0  0  0  0  0  0  0  0  0
    1.8705    2.3779    0.0000 H   0  0  0  0  0  0  0  0  0  0  0  0
    4.3996    2.3779    0.0000 H   0  0  0  0  0  0  0  0  0  0  0  0
    3.6025    2.3779    0.0000 H   0  0  0  0  0  0  0  0  0  0  0  0
    3.1350    0.7830    0.0000 H   0  0  0  0  0  0  0  0  0  0  0  0
    1.3660    0.2269    0.0000 H   0  0  0  0  0  0  0  0  0  0  0  0
    2.2130    0.0000    0.0000 H   0  0  0  0  0  0  0  0  0  0  0  0
    2.4399    0.8469    0.0000 H   0  0  0  0  0  0  0  0  0  0  0  0
    1.4399    2.5790    0.0000 H   0  0  0  0  0  0  0  0  0  0  0  0
    0.5930    2.8059    0.0000 H   0  0  0  0  0  0  0  0  0  0  0  0
    0.3660    1.9590    0.0000 H   0  0  0  0  0  0  0  0  0  0  0  0
    6.3531    2.9030    0.0000 H   0  0  0  0  0  0  0  0  0  0  0  0
    6.2891    0.8660    0.0000 H   0  0  0  0  0  0  0  0  0  0  0  0
    7.1360    1.0930    0.0000 H   0  0  0  0  0  0  0  0  0  0  0  0
    6.9091    1.9399    0.0000 H   0  0  0  0  0  0  0  0  0  0  0  0
    5.7331    3.5230    0.0000 H   0  0  0  0  0  0  0  0  0  0  0  0
    5.1131    2.9030    0.0000 H   0  0  0  0  0  0  0  0  0  0  0  0
    0.0000    1.2130    0.0000 H   0  0  0  0  0  0  0  0  0  0  0  0
    4.9710    7.2130    0.0000 H   0  0  0  0  0  0  0  0  0  0  0  0
    2.1651    7.2130    0.0000 H   0  0  0  0  0  0  0  0  0  0  0  0
    4.1050   10.3330    0.0000 H   0  0  0  0  0  0  0  0  0  0  0  0
  1 13  1  0  0  0  0
  1 48  1  0  0  0  0
  2 24  1  0  0  0  0
  2 51  1  0  0  0  0
  3 10  1  0  0  0  0
  4 11  1  0  0  0  0
  5 10  2  0  0  0  0
  6 11  2  0  0  0  0
  7 12  1  0  0  0  0
  8 12  2  0  0  0  0
  9 16  1  0  0  0  0
  9 17  1  0  0  0  0
  9 35  1  0  0  0  0
 10 22  1  0  0  0  0
 11 23  1  0  0  0  0
 12 25  1  0  0  0  0
 13 16  1  0  0  0  0
 13 18  1  0  0  0  0
 13 19  1  0  0  0  0
 14 15  1  0  0  0  0
 14 17  1  0  0  0  0
 14 28  1  0  0  0  0
 14 29  1  0  0  0  0
 15 20  1  0  0  0  0
 15 21  1  0  0  0  0
 15 30  1  0  0  0  0
 16 31  1  0  0  0  0
 16 32  1  0  0  0  0
 17 33  1  0  0  0  0
 17 34  1  0  0  0  0
 18 39  1  0  0  0  0
 18 40  1  0  0  0  0
 18 41  1  0  0  0  0
 19 36  1  0  0  0  0
 19 37  1  0  0  0  0
 19 38  1  0  0  0  0
 20 43  1  0  0  0  0
 20 44  1  0  0  0  0
 20 45  1  0  0  0  0
 21 42  1  0  0  0  0
 21 46  1  0  0  0  0
 21 47  1  0  0  0  0
 22 24  2  0  0  0  0
 22 26  1  0  0  0  0
 23 24  1  0  0  0  0
 23 27  2  0  0  0  0
 25 26  2  0  0  0  0
 25 27  1  0  0  0  0
 26 49  1  0  0  0  0
 27 50  1  0  0  0  0
M  CHG  6   3  -1   4  -1   7  -1  10   1  11   1  12   1
M  END
>  <PUBCHEM_COMPOUND_CID>
276958

>  <PUBCHEM_COMPOUND_CANONICALIZED>
1

>  <PUBCHEM_CACTVS_COMPLEXITY>
391

>  <PUBCHEM_CACTVS_HBOND_ACCEPTOR>
9

>  <PUBCHEM_CACTVS_HBOND_DONOR>
3

>  <PUBCHEM_CACTVS_ROTATABLE_BOND>
5

>  <PUBCHEM_CACTVS_SUBSKEYS>
AAADceBzvAAAAAAAAAAAAAAAAAAAAAAAAAAwAAAAAAAAAAABAAAAHgAUCAAADUzBkAQyxoLQQgCBACRCQwCCAAAgIgAgiIANbIoKJiKS0dOEcABk0FGY2AewQAAIAEAAAAQAEAAAgAAACAAgAAAAAAAAAA==

>  <PUBCHEM_IUPAC_OPENEYE_NAME>
1-(isopentylamino)-2-methyl-propan-2-ol;picric acid

>  <PUBCHEM_IUPAC_CAS_NAME>
2-methyl-1-(3-methylbutylamino)-2-propanol;2,4,6-trinitrophenol

>  <PUBCHEM_IUPAC_NAME>
2-methyl-1-(3-methylbutylamino)propan-2-ol;2,4,6-trinitrophenol

>  <PUBCHEM_IUPAC_SYSTEMATIC_NAME>
2-methyl-1-(3-methylbutylamino)propan-2-ol;2,4,6-trinitrophenol

>  <PUBCHEM_IUPAC_TRADITIONAL_NAME>
1-(isoamylamino)-2-methyl-propan-2-ol;picric acid

>  <PUBCHEM_IUPAC_INCHI>
InChI=1S/C9H21NO.C6H3N3O7/c1-8(2)5-6-10-7-9(3,4)11;10-6-4(8(13)14)1-3(7(11)12)2-5(6)9(15)16/h8,10-11H,5-7H2,1-4H3;1-2,10H

>  <PUBCHEM_IUPAC_INCHIKEY>
ZENIWYVEQSMOPY-UHFFFAOYSA-N

>  <PUBCHEM_EXACT_MASS>
388.159

>  <PUBCHEM_MOLECULAR_FORMULA>
C15H24N4O8

>  <PUBCHEM_MOLECULAR_WEIGHT>
388.377

>  <PUBCHEM_OPENEYE_CAN_SMILES>
CC(C)CCNCC(C)(C)O.C1=C(C=C(C(=C1[N+](=O)[O-])O)[N+](=O)[O-])[N+](=O)[O-]

>  <PUBCHEM_OPENEYE_ISO_SMILES>
CC(C)CCNCC(C)(C)O.C1=C(C=C(C(=C1[N+](=O)[O-])O)[N+](=O)[O-])[N+](=O)[O-]

>  <PUBCHEM_CACTVS_TPSA>
190

>  <PUBCHEM_MONOISOTOPIC_WEIGHT>
388.159

>  <PUBCHEM_TOTAL_CHARGE>
0

>  <PUBCHEM_HEAVY_ATOM_COUNT>
27

>  <PUBCHEM_ATOM_DEF_STEREO_COUNT>
0

>  <PUBCHEM_ATOM_UDEF_STEREO_COUNT>
0

>  <PUBCHEM_BOND_DEF_STEREO_COUNT>
0

>  <PUBCHEM_BOND_UDEF_STEREO_COUNT>
0

>  <PUBCHEM_ISOTOPIC_ATOM_COUNT>
0

>  <PUBCHEM_COMPONENT_COUNT>
2

>  <PUBCHEM_CACTVS_TAUTO_COUNT>
3

>  <PUBCHEM_COORDINATE_TYPE>
1
5
255

>  <PUBCHEM_BONDANNOTATIONS>
22  24  8
22  26  8
23  24  8
23  27  8
25  26  8
25  27  8

$$$$
