3003983
 OpenBabel06101807152D

 38 40  0  0  0  0  0  0  0  0999 V2000
    4.5000   -2.1507    0.0000 Cl  0  0  0  0  0  0  0  0  0  0  0  0
    8.0836   -1.2233    0.0000 S   0  0  0  0  0  0  0  0  0  0  0  0
    3.5000   -0.4186    0.0000 O   0  0  0  0  0  0  0  0  0  0  0  0
    5.0000    0.4474    0.0000 O   0  0  0  0  0  0  0  0  0  0  0  0
    8.0836    0.3861    0.0000 N   0  0  0  0  0  0  0  0  0  0  0  0
    6.5000   -0.4186    0.0000 N   0  0  0  0  0  0  0  0  0  0  0  0
    9.8958    0.5814    0.0000 C   0  0  0  0  0  0  0  0  0  0  0  0
    9.0298    0.0814    0.0000 C   0  0  0  0  0  0  0  0  0  0  0  0
   10.7619    0.0814    0.0000 C   0  0  0  0  0  0  0  0  0  0  0  0
    9.0298   -0.9186    0.0000 C   0  0  0  0  0  0  0  0  0  0  0  0
   10.7619   -0.9186    0.0000 C   0  0  0  0  0  0  0  0  0  0  0  0
    9.8958   -1.4186    0.0000 C   0  0  0  0  0  0  0  0  0  0  0  0
    9.8798    1.6229    0.0000 C   0  0  0  0  0  0  0  0  0  0  0  0
    7.5000   -0.4186    0.0000 C   0  0  0  0  0  0  0  0  0  0  0  0
   11.6719    0.5882    0.0000 C   0  0  0  0  0  0  0  0  0  0  0  0
   10.7778    2.1507    0.0000 C   0  0  0  0  0  0  0  0  0  0  0  0
   11.6799    1.6298    0.0000 C   0  0  0  0  0  0  0  0  0  0  0  0
    6.0000   -1.2846    0.0000 C   0  0  0  0  0  0  0  0  0  0  0  0
    6.5000   -2.1507    0.0000 C   0  0  0  0  0  0  0  0  0  0  0  0
    5.0000   -1.2846    0.0000 C   0  0  0  0  0  0  0  0  0  0  0  0
    4.5000   -0.4186    0.0000 C   0  0  0  0  0  0  0  0  0  0  0  0
    3.0000    0.4474    0.0000 C   0  0  0  0  0  0  0  0  0  0  0  0
    2.0000    0.4474    0.0000 C   0  0  0  0  0  0  0  0  0  0  0  0
   11.2988   -1.2286    0.0000 H   0  0  0  0  0  0  0  0  0  0  0  0
    9.8958   -2.0386    0.0000 H   0  0  0  0  0  0  0  0  0  0  0  0
    9.3393    1.9267    0.0000 H   0  0  0  0  0  0  0  0  0  0  0  0
   12.2052    0.2721    0.0000 H   0  0  0  0  0  0  0  0  0  0  0  0
   10.7754    2.7706    0.0000 H   0  0  0  0  0  0  0  0  0  0  0  0
    6.1900    0.1183    0.0000 H   0  0  0  0  0  0  0  0  0  0  0  0
   12.2180    1.9378    0.0000 H   0  0  0  0  0  0  0  0  0  0  0  0
    5.9631   -2.4607    0.0000 H   0  0  0  0  0  0  0  0  0  0  0  0
    6.8100   -2.6876    0.0000 H   0  0  0  0  0  0  0  0  0  0  0  0
    7.0369   -1.8407    0.0000 H   0  0  0  0  0  0  0  0  0  0  0  0
    3.5826    0.6595    0.0000 H   0  0  0  0  0  0  0  0  0  0  0  0
    2.8923    1.0580    0.0000 H   0  0  0  0  0  0  0  0  0  0  0  0
    2.0000    1.0674    0.0000 H   0  0  0  0  0  0  0  0  0  0  0  0
    1.3800    0.4474    0.0000 H   0  0  0  0  0  0  0  0  0  0  0  0
    2.0000   -0.1726    0.0000 H   0  0  0  0  0  0  0  0  0  0  0  0
  1 20  1  0  0  0  0
  2 10  1  0  0  0  0
  2 14  1  0  0  0  0
  3 21  1  0  0  0  0
  3 22  1  0  0  0  0
  4 21  2  0  0  0  0
  5  8  1  0  0  0  0
  5 14  2  0  0  0  0
  6 14  1  0  0  0  0
  6 18  1  0  0  0  0
  6 29  1  0  0  0  0
  7  8  1  0  0  0  0
  7  9  1  0  0  0  0
  7 13  2  0  0  0  0
  8 10  2  0  0  0  0
  9 11  1  0  0  0  0
  9 15  2  0  0  0  0
 10 12  1  0  0  0  0
 11 12  2  0  0  0  0
 11 24  1  0  0  0  0
 12 25  1  0  0  0  0
 13 16  1  0  0  0  0
 13 26  1  0  0  0  0
 15 17  1  0  0  0  0
 15 27  1  0  0  0  0
 16 17  2  0  0  0  0
 16 28  1  0  0  0  0
 17 30  1  0  0  0  0
 18 19  1  0  0  0  0
 18 20  2  0  0  0  0
 19 31  1  0  0  0  0
 19 32  1  0  0  0  0
 19 33  1  0  0  0  0
 20 21  1  0  0  0  0
 22 23  1  0  0  0  0
 22 34  1  0  0  0  0
 22 35  1  0  0  0  0
 23 36  1  0  0  0  0
 23 37  1  0  0  0  0
 23 38  1  0  0  0  0
M  END
>  <PUBCHEM_COMPOUND_CID>
3003983

>  <PUBCHEM_COMPOUND_CANONICALIZED>
1

>  <PUBCHEM_CACTVS_COMPLEXITY>
485

>  <PUBCHEM_CACTVS_HBOND_ACCEPTOR>
5

>  <PUBCHEM_CACTVS_HBOND_DONOR>
1

>  <PUBCHEM_CACTVS_ROTATABLE_BOND>
5

>  <PUBCHEM_CACTVS_SUBSKEYS>
AAADccB7MABEAAAAAAAAAAAAAAAAAWAAAAAwYAAAAAAAAFjB9AAAHgYQAAAADAqh3gIz2fLIFAisAyTybACD8KlhCDlJmDwgRdjIJKLguZGGMAhokAJI6WcQgIAOkAAAwAASAQAgAAGAACQCAAAAAAAAAA==

>  <PUBCHEM_IUPAC_OPENEYE_NAME>
ethyl (E)-3-(benzo[e][1,3]benzothiazol-2-ylamino)-2-chloro-but-2-enoate

>  <PUBCHEM_IUPAC_CAS_NAME>
(E)-3-(2-benzo[e][1,3]benzothiazolylamino)-2-chloro-2-butenoic acid ethyl ester

>  <PUBCHEM_IUPAC_NAME>
ethyl (E)-3-(benzo[e][1,3]benzothiazol-2-ylamino)-2-chlorobut-2-enoate

>  <PUBCHEM_IUPAC_SYSTEMATIC_NAME>
ethyl (E)-3-(benzo[e][1,3]benzothiazol-2-ylamino)-2-chloranyl-but-2-enoate

>  <PUBCHEM_IUPAC_TRADITIONAL_NAME>
(E)-3-(benzo[e][1,3]benzothiazol-2-ylamino)-2-chloro-but-2-enoic acid ethyl ester

>  <PUBCHEM_IUPAC_INCHI>
InChI=1S/C17H15ClN2O2S/c1-3-22-16(21)14(18)10(2)19-17-20-15-12-7-5-4-6-11(12)8-9-13(15)23-17/h4-9H,3H2,1-2H3,(H,19,20)/b14-10+

>  <PUBCHEM_IUPAC_INCHIKEY>
ORANXPAQAAJTLA-GXDHUFHOSA-N

>  <PUBCHEM_XLOGP3_AA>
6.1

>  <PUBCHEM_EXACT_MASS>
346.054

>  <PUBCHEM_MOLECULAR_FORMULA>
C17H15ClN2O2S

>  <PUBCHEM_MOLECULAR_WEIGHT>
346.829

>  <PUBCHEM_OPENEYE_CAN_SMILES>
CCOC(=O)C(=C(C)NC1=NC2=C(S1)C=CC3=CC=CC=C32)Cl

>  <PUBCHEM_OPENEYE_ISO_SMILES>
CCOC(=O)/C(=C(/C)\NC1=NC2=C(S1)C=CC3=CC=CC=C32)/Cl

>  <PUBCHEM_CACTVS_TPSA>
79.5

>  <PUBCHEM_MONOISOTOPIC_WEIGHT>
346.054

>  <PUBCHEM_TOTAL_CHARGE>
0

>  <PUBCHEM_HEAVY_ATOM_COUNT>
23

>  <PUBCHEM_ATOM_DEF_STEREO_COUNT>
0

>  <PUBCHEM_ATOM_UDEF_STEREO_COUNT>
0

>  <PUBCHEM_BOND_DEF_STEREO_COUNT>
1

>  <PUBCHEM_BOND_UDEF_STEREO_COUNT>
0

>  <PUBCHEM_ISOTOPIC_ATOM_COUNT>
0

>  <PUBCHEM_COMPONENT_COUNT>
1

>  <PUBCHEM_CACTVS_TAUTO_COUNT>
8

>  <PUBCHEM_COORDINATE_TYPE>
1
5
255

>  <PUBCHEM_BONDANNOTATIONS>
10  12  8
11  12  8
13  16  8
15  17  8
16  17  8
2  10  8
2  14  8
5  14  8
5  8  8
7  13  8
7  8  8
7  9  8
8  10  8
9  11  8
9  15  8

$$$$
