3014646
 OpenBabel06101807152D

 45 46  0  0  0  0  0  0  0  0999 V2000
    7.1962    2.8170    0.0000 O   0  0  0  0  0  0  0  0  0  0  0  0
    3.7320    2.8170    0.0000 O   0  0  0  0  0  0  0  0  0  0  0  0
    5.4641   -0.1830    0.0000 O   0  0  0  0  0  0  0  0  0  0  0  0
    2.8660    1.3170    0.0000 O   0  0  0  0  0  0  0  0  0  0  0  0
    5.4641    2.8170    0.0000 C   0  0  0  0  0  0  0  0  0  0  0  0
    6.3301    1.3170    0.0000 C   0  0  0  0  0  0  0  0  0  0  0  0
    6.3301    2.3170    0.0000 C   0  0  0  0  0  0  0  0  0  0  0  0
    4.5981    2.3170    0.0000 C   0  0  0  0  0  0  0  0  0  0  0  0
    5.4641    0.8170    0.0000 C   0  0  0  0  0  0  0  0  0  0  0  0
    4.5981    1.3170    0.0000 C   0  0  0  0  0  0  0  0  0  0  0  0
    5.9641    3.6830    0.0000 C   0  0  0  0  0  0  0  0  0  0  0  0
    4.9641    3.6830    0.0000 C   0  0  0  0  0  0  0  0  0  0  0  0
    6.8301    0.4510    0.0000 C   0  0  0  0  0  0  0  0  0  0  0  0
    7.3301    1.3170    0.0000 C   0  0  0  0  0  0  0  0  0  0  0  0
    3.7320    0.8170    0.0000 C   0  0  0  0  0  0  0  0  0  0  0  0
    3.7320   -0.1830    0.0000 C   0  0  0  0  0  0  0  0  0  0  0  0
    2.8660   -0.6830    0.0000 C   0  0  0  0  0  0  0  0  0  0  0  0
    2.8660   -1.6830    0.0000 C   0  0  0  0  0  0  0  0  0  0  0  0
    2.0000   -2.1830    0.0000 C   0  0  0  0  0  0  0  0  0  0  0  0
    3.7320   -2.1830    0.0000 C   0  0  0  0  0  0  0  0  0  0  0  0
    2.0000   -3.1830    0.0000 C   0  0  0  0  0  0  0  0  0  0  0  0
    3.7320   -3.1830    0.0000 C   0  0  0  0  0  0  0  0  0  0  0  0
    2.8660   -3.6830    0.0000 C   0  0  0  0  0  0  0  0  0  0  0  0
    5.5010    3.9930    0.0000 H   0  0  0  0  0  0  0  0  0  0  0  0
    6.5010    3.3730    0.0000 H   0  0  0  0  0  0  0  0  0  0  0  0
    6.2741    4.2200    0.0000 H   0  0  0  0  0  0  0  0  0  0  0  0
    5.4272    3.9930    0.0000 H   0  0  0  0  0  0  0  0  0  0  0  0
    4.6541    4.2200    0.0000 H   0  0  0  0  0  0  0  0  0  0  0  0
    4.4272    3.3730    0.0000 H   0  0  0  0  0  0  0  0  0  0  0  0
    6.2932    0.1410    0.0000 H   0  0  0  0  0  0  0  0  0  0  0  0
    7.1401   -0.0860    0.0000 H   0  0  0  0  0  0  0  0  0  0  0  0
    7.3671    0.7610    0.0000 H   0  0  0  0  0  0  0  0  0  0  0  0
    7.3301    0.6970    0.0000 H   0  0  0  0  0  0  0  0  0  0  0  0
    7.9501    1.3170    0.0000 H   0  0  0  0  0  0  0  0  0  0  0  0
    7.3301    1.9370    0.0000 H   0  0  0  0  0  0  0  0  0  0  0  0
    3.9441   -0.7656    0.0000 H   0  0  0  0  0  0  0  0  0  0  0  0
    4.3426   -0.0754    0.0000 H   0  0  0  0  0  0  0  0  0  0  0  0
    3.7320    3.4370    0.0000 H   0  0  0  0  0  0  0  0  0  0  0  0
    2.6540   -0.1004    0.0000 H   0  0  0  0  0  0  0  0  0  0  0  0
    2.2554   -0.7907    0.0000 H   0  0  0  0  0  0  0  0  0  0  0  0
    1.4631   -1.8730    0.0000 H   0  0  0  0  0  0  0  0  0  0  0  0
    4.2690   -1.8730    0.0000 H   0  0  0  0  0  0  0  0  0  0  0  0
    1.4631   -3.4930    0.0000 H   0  0  0  0  0  0  0  0  0  0  0  0
    4.2690   -3.4930    0.0000 H   0  0  0  0  0  0  0  0  0  0  0  0
    2.8660   -4.3030    0.0000 H   0  0  0  0  0  0  0  0  0  0  0  0
  1  7  2  0  0  0  0
  2  8  1  0  0  0  0
  2 38  1  0  0  0  0
  3  9  2  0  0  0  0
  4 15  2  0  0  0  0
  5  7  1  0  0  0  0
  5  8  1  0  0  0  0
  5 11  1  0  0  0  0
  5 12  1  0  0  0  0
  6  7  1  0  0  0  0
  6  9  1  0  0  0  0
  6 13  1  0  0  0  0
  6 14  1  0  0  0  0
  8 10  2  0  0  0  0
  9 10  1  0  0  0  0
 10 15  1  0  0  0  0
 11 25  1  0  0  0  0
 11 26  1  0  0  0  0
 11 27  1  0  0  0  0
 12 24  1  0  0  0  0
 12 28  1  0  0  0  0
 12 29  1  0  0  0  0
 13 30  1  0  0  0  0
 13 31  1  0  0  0  0
 13 32  1  0  0  0  0
 14 33  1  0  0  0  0
 14 34  1  0  0  0  0
 14 35  1  0  0  0  0
 15 16  1  0  0  0  0
 16 17  1  0  0  0  0
 16 36  1  0  0  0  0
 16 37  1  0  0  0  0
 17 18  1  0  0  0  0
 17 39  1  0  0  0  0
 17 40  1  0  0  0  0
 18 19  2  0  0  0  0
 18 20  1  0  0  0  0
 19 21  1  0  0  0  0
 19 41  1  0  0  0  0
 20 22  2  0  0  0  0
 20 42  1  0  0  0  0
 21 23  2  0  0  0  0
 21 43  1  0  0  0  0
 22 23  1  0  0  0  0
 22 44  1  0  0  0  0
 23 45  1  0  0  0  0
M  END
>  <PUBCHEM_COMPOUND_CID>
3014646

>  <PUBCHEM_COMPOUND_CANONICALIZED>
1

>  <PUBCHEM_CACTVS_COMPLEXITY>
560

>  <PUBCHEM_CACTVS_HBOND_ACCEPTOR>
4

>  <PUBCHEM_CACTVS_HBOND_DONOR>
1

>  <PUBCHEM_CACTVS_ROTATABLE_BOND>
4

>  <PUBCHEM_CACTVS_SUBSKEYS>
AAADceB4OAAAAAAAAAAAAAAAAAAAAAAAAAAwQAAAAAAAAAABAAAAGgAACAAADgSAmAAyAIAAAgCIAqBSAAACAAAgIAAIiAEAAMgIIDaIERCAYAAkoAAIiQeIzuCvAAAAAAAAAAAAAAAAAAAAAAAAAAAAAA==

>  <PUBCHEM_IUPAC_OPENEYE_NAME>
5-hydroxy-2,2,6,6-tetramethyl-4-(3-phenylpropanoyl)cyclohex-4-ene-1,3-dione

>  <PUBCHEM_IUPAC_CAS_NAME>
5-hydroxy-2,2,6,6-tetramethyl-4-(1-oxo-3-phenylpropyl)cyclohex-4-ene-1,3-dione

>  <PUBCHEM_IUPAC_NAME>
5-hydroxy-2,2,6,6-tetramethyl-4-(3-phenylpropanoyl)cyclohex-4-ene-1,3-dione

>  <PUBCHEM_IUPAC_SYSTEMATIC_NAME>
2,2,6,6-tetramethyl-5-oxidanyl-4-(3-phenylpropanoyl)cyclohex-4-ene-1,3-dione

>  <PUBCHEM_IUPAC_TRADITIONAL_NAME>
4-hydrocinnamoyl-5-hydroxy-2,2,6,6-tetramethyl-cyclohex-4-ene-1,3-quinone

>  <PUBCHEM_IUPAC_INCHI>
InChI=1S/C19H22O4/c1-18(2)15(21)14(16(22)19(3,4)17(18)23)13(20)11-10-12-8-6-5-7-9-12/h5-9,21H,10-11H2,1-4H3

>  <PUBCHEM_IUPAC_INCHIKEY>
KUWGTESSHWPSOB-UHFFFAOYSA-N

>  <PUBCHEM_XLOGP3_AA>
3.7

>  <PUBCHEM_EXACT_MASS>
314.152

>  <PUBCHEM_MOLECULAR_FORMULA>
C19H22O4

>  <PUBCHEM_MOLECULAR_WEIGHT>
314.381

>  <PUBCHEM_OPENEYE_CAN_SMILES>
CC1(C(=C(C(=O)C(C1=O)(C)C)C(=O)CCC2=CC=CC=C2)O)C

>  <PUBCHEM_OPENEYE_ISO_SMILES>
CC1(C(=C(C(=O)C(C1=O)(C)C)C(=O)CCC2=CC=CC=C2)O)C

>  <PUBCHEM_CACTVS_TPSA>
71.4

>  <PUBCHEM_MONOISOTOPIC_WEIGHT>
314.152

>  <PUBCHEM_TOTAL_CHARGE>
0

>  <PUBCHEM_HEAVY_ATOM_COUNT>
23

>  <PUBCHEM_ATOM_DEF_STEREO_COUNT>
0

>  <PUBCHEM_ATOM_UDEF_STEREO_COUNT>
0

>  <PUBCHEM_BOND_DEF_STEREO_COUNT>
0

>  <PUBCHEM_BOND_UDEF_STEREO_COUNT>
0

>  <PUBCHEM_ISOTOPIC_ATOM_COUNT>
0

>  <PUBCHEM_COMPONENT_COUNT>
1

>  <PUBCHEM_CACTVS_TAUTO_COUNT>
5

>  <PUBCHEM_COORDINATE_TYPE>
1
5
255

>  <PUBCHEM_BONDANNOTATIONS>
18  19  8
18  20  8
19  21  8
20  22  8
21  23  8
22  23  8

$$$$
