301777
 OpenBabel06101807152D

 39 42  0  0  1  0  0  0  0  0999 V2000
    5.9507   -2.7623    0.0000 O   0  0  0  0  0  0  0  0  0  0  0  0
    3.7230   -0.9153    0.0000 O   0  0  0  0  0  0  0  0  0  0  0  0
    4.5447    2.2500    0.0000 O   0  0  0  0  0  0  0  0  0  0  0  0
    2.0000   -0.4832    0.0000 O   0  0  0  0  0  0  0  0  0  0  0  0
    5.6146   -1.8263    0.0000 C   0  0  3  0  0  0  0  0  0  0  0  0
    5.4786   -0.8416    0.0000 C   0  0  3  0  0  0  0  0  0  0  0  0
    6.5929   -2.0029    0.0000 C   0  0  3  0  0  0  0  0  0  0  0  0
    6.3796   -0.4077    0.0000 C   0  0  3  0  0  0  0  0  0  0  0  0
    7.0647   -1.1280    0.0000 C   0  0  0  0  0  0  0  0  0  0  0  0
    4.5777   -0.4077    0.0000 C   0  0  3  0  0  0  0  0  0  0  0  0
    4.3551    0.5672    0.0000 C   0  0  3  0  0  0  0  0  0  0  0  0
    4.6305   -1.6486    0.0000 C   0  0  0  0  0  0  0  0  0  0  0  0
    6.6021    0.5672    0.0000 C   0  0  0  0  0  0  0  0  0  0  0  0
    4.9786    1.3491    0.0000 C   0  0  3  0  0  0  0  0  0  0  0  0
    3.3648    0.6538    0.0000 C   0  0  3  0  0  0  0  0  0  0  0  0
    5.9786    1.3491    0.0000 C   0  0  0  0  0  0  0  0  0  0  0  0
    2.9749   -0.2606    0.0000 C   0  0  0  0  0  0  0  0  0  0  0  0
    2.8504    1.5114    0.0000 C   0  0  0  0  0  0  0  0  0  0  0  0
    7.5770    0.7898    0.0000 C   0  0  0  0  0  0  0  0  0  0  0  0
    4.7916   -1.3421    0.0000 H   0  0  0  0  0  0  0  0  0  0  0  0
    7.2952   -2.4817    0.0000 H   0  0  0  0  0  0  0  0  0  0  0  0
    7.1993   -0.1826    0.0000 H   0  0  0  0  0  0  0  0  0  0  0  0
    7.5765   -1.4780    0.0000 H   0  0  0  0  0  0  0  0  0  0  0  0
    7.4666   -0.6558    0.0000 H   0  0  0  0  0  0  0  0  0  0  0  0
    4.6147   -1.2569    0.0000 H   0  0  0  0  0  0  0  0  0  0  0  0
    4.0200    1.3484    0.0000 H   0  0  0  0  0  0  0  0  0  0  0  0
    4.7407   -1.0385    0.0000 H   0  0  0  0  0  0  0  0  0  0  0  0
    4.0204   -1.5384    0.0000 H   0  0  0  0  0  0  0  0  0  0  0  0
    4.5204   -2.2587    0.0000 H   0  0  0  0  0  0  0  0  0  0  0  0
    5.4309    2.0688    0.0000 H   0  0  0  0  0  0  0  0  0  0  0  0
    3.8155    1.3745    0.0000 H   0  0  0  0  0  0  0  0  0  0  0  0
    6.5372    1.6181    0.0000 H   0  0  0  0  0  0  0  0  0  0  0  0
    5.8407    1.9535    0.0000 H   0  0  0  0  0  0  0  0  0  0  0  0
    3.3821    1.8303    0.0000 H   0  0  0  0  0  0  0  0  0  0  0  0
    2.5315    2.0430    0.0000 H   0  0  0  0  0  0  0  0  0  0  0  0
    2.3188    1.1924    0.0000 H   0  0  0  0  0  0  0  0  0  0  0  0
    7.9988    0.3353    0.0000 H   0  0  0  0  0  0  0  0  0  0  0  0
    7.7598    1.3822    0.0000 H   0  0  0  0  0  0  0  0  0  0  0  0
    4.8940    2.7623    0.0000 H   0  0  0  0  0  0  0  0  0  0  0  0
  1  5  1  0  0  0  0
  1  7  1  0  0  0  0
  2 10  1  0  0  0  0
  2 17  1  0  0  0  0
  3 14  1  0  0  0  0
  3 39  1  0  0  0  0
  4 17  2  0  0  0  0
  5  6  1  0  0  0  0
  5  7  1  0  0  0  0
  5 12  1  0  0  0  0
  6  8  1  0  0  0  0
  6 10  1  0  0  0  0
  6 20  1  0  0  0  0
  7  9  1  0  0  0  0
  7 21  1  0  0  0  0
  8  9  1  0  0  0  0
  8 13  1  0  0  0  0
  8 22  1  0  0  0  0
  9 23  1  0  0  0  0
  9 24  1  0  0  0  0
 10 11  1  0  0  0  0
 10 25  1  0  0  0  0
 11 14  1  0  0  0  0
 11 15  1  0  0  0  0
 11 26  1  0  0  0  0
 12 27  1  0  0  0  0
 12 28  1  0  0  0  0
 12 29  1  0  0  0  0
 13 16  1  0  0  0  0
 13 19  2  0  0  0  0
 14 16  1  0  0  0  0
 14 30  1  0  0  0  0
 15 17  1  0  0  0  0
 15 18  1  0  0  0  0
 15 31  1  0  0  0  0
 16 32  1  0  0  0  0
 16 33  1  0  0  0  0
 18 34  1  0  0  0  0
 18 35  1  0  0  0  0
 18 36  1  0  0  0  0
 19 37  1  0  0  0  0
 19 38  1  0  0  0  0
M  END
>  <PUBCHEM_COMPOUND_CID>
301777

>  <PUBCHEM_COMPOUND_CANONICALIZED>
1

>  <PUBCHEM_CACTVS_COMPLEXITY>
473

>  <PUBCHEM_CACTVS_HBOND_ACCEPTOR>
4

>  <PUBCHEM_CACTVS_HBOND_DONOR>
1

>  <PUBCHEM_CACTVS_ROTATABLE_BOND>
0

>  <PUBCHEM_CACTVS_SUBSKEYS>
AAADceBwOAAAAAAAAAAAAAAAEgAAAaIAAAAkAAAABgAAAADQAAAAGgAACAAADVSggAICCAAABgCIAgDSCAAAAAAgAAAAAAEAAAgAEBIAAQACQAAFwAAAAAHK6PyOgAAAAAAAAAAAAAAAAAAAAYAADAAAAA==

>  <PUBCHEM_IUPAC_INCHI>
InChI=1S/C15H20O4/c1-6-4-9(16)11-7(2)14(17)18-13(11)12-8(6)5-10-15(12,3)19-10/h7-13,16H,1,4-5H2,2-3H3

>  <PUBCHEM_IUPAC_INCHIKEY>
VHMXKQUYGYSNAU-UHFFFAOYSA-N

>  <PUBCHEM_XLOGP3_AA>
1

>  <PUBCHEM_EXACT_MASS>
264.136

>  <PUBCHEM_MOLECULAR_FORMULA>
C15H20O4

>  <PUBCHEM_MOLECULAR_WEIGHT>
264.321

>  <PUBCHEM_OPENEYE_CAN_SMILES>
CC1C2C(CC(=C)C3CC4C(C3C2OC1=O)(O4)C)O

>  <PUBCHEM_OPENEYE_ISO_SMILES>
CC1C2C(CC(=C)C3CC4C(C3C2OC1=O)(O4)C)O

>  <PUBCHEM_CACTVS_TPSA>
59.1

>  <PUBCHEM_MONOISOTOPIC_WEIGHT>
264.136

>  <PUBCHEM_TOTAL_CHARGE>
0

>  <PUBCHEM_HEAVY_ATOM_COUNT>
19

>  <PUBCHEM_ATOM_DEF_STEREO_COUNT>
0

>  <PUBCHEM_ATOM_UDEF_STEREO_COUNT>
8

>  <PUBCHEM_BOND_DEF_STEREO_COUNT>
0

>  <PUBCHEM_BOND_UDEF_STEREO_COUNT>
0

>  <PUBCHEM_ISOTOPIC_ATOM_COUNT>
0

>  <PUBCHEM_COMPONENT_COUNT>
1

>  <PUBCHEM_CACTVS_TAUTO_COUNT>
2

>  <PUBCHEM_COORDINATE_TYPE>
1
5
255

>  <PUBCHEM_BONDANNOTATIONS>
10  25  3
11  26  3
14  30  3
15  31  3
5  12  3
6  20  3
7  21  3
8  22  3

$$$$
