3037774
 OpenBabel06101807152D

 39 40  0  0  1  0  0  0  0  0999 V2000
    4.4591   -1.2874    0.0000 P   0  0  3  0  0  0  0  0  0  0  0  0
    3.0403   -2.2808    0.0000 P   0  0  0  0  0  0  0  0  0  0  0  0
    5.4553   -1.2002    0.0000 O   0  0  0  0  0  0  0  0  0  0  0  0
    3.4629   -1.3745    0.0000 O   0  0  0  0  0  0  0  0  0  0  0  0
    4.5462   -2.2836    0.0000 O   0  0  0  0  0  0  0  0  0  0  0  0
    4.3719   -0.2912    0.0000 O   0  0  0  0  0  0  0  0  0  0  0  0
    2.6176   -3.1871    0.0000 O   0  0  0  0  0  0  0  0  0  0  0  0
    2.1340   -1.8582    0.0000 O   0  0  0  0  0  0  0  0  0  0  0  0
    3.9466   -2.7034    0.0000 O   0  0  0  0  0  0  0  0  0  0  0  0
    7.2506    0.2981    0.0000 C   0  0  1  0  0  0  0  0  0  0  0  0
    6.7728    2.2466    0.0000 C   0  0  0  0  0  0  0  0  0  0  0  0
    7.5094    1.2640    0.0000 C   0  0  1  0  0  0  0  0  0  0  0  0
    5.8779   -0.2939    0.0000 C   0  0  2  0  0  0  0  0  0  0  0  0
    8.6495   -0.2107    0.0000 C   0  0  0  0  0  0  0  0  0  0  0  0
    5.5359    0.6458    0.0000 C   0  0  0  0  0  0  0  0  0  0  0  0
    8.9084    0.7552    0.0000 C   0  0  0  0  0  0  0  0  0  0  0  0
    6.9918   -0.6678    0.0000 C   0  0  0  0  0  0  0  0  0  0  0  0
    6.8773    3.2412    0.0000 C   0  0  0  0  0  0  0  0  0  0  0  0
    5.8592    2.6534    0.0000 C   0  0  0  0  0  0  0  0  0  0  0  0
    7.7294    2.0851    0.0000 H   0  0  0  0  0  0  0  0  0  0  0  0
    6.3098   -0.7387    0.0000 H   0  0  0  0  0  0  0  0  0  0  0  0
    8.4546   -0.7993    0.0000 H   0  0  0  0  0  0  0  0  0  0  0  0
    9.2435   -0.3885    0.0000 H   0  0  0  0  0  0  0  0  0  0  0  0
    5.3416    1.2346    0.0000 H   0  0  0  0  0  0  0  0  0  0  0  0
    4.9501    0.4426    0.0000 H   0  0  0  0  0  0  0  0  0  0  0  0
    9.5023    0.5774    0.0000 H   0  0  0  0  0  0  0  0  0  0  0  0
    9.1033    1.3438    0.0000 H   0  0  0  0  0  0  0  0  0  0  0  0
    6.3929   -0.5073    0.0000 H   0  0  0  0  0  0  0  0  0  0  0  0
    6.8313   -1.2667    0.0000 H   0  0  0  0  0  0  0  0  0  0  0  0
    7.5906   -0.8283    0.0000 H   0  0  0  0  0  0  0  0  0  0  0  0
    7.4939    3.1764    0.0000 H   0  0  0  0  0  0  0  0  0  0  0  0
    6.9421    3.8578    0.0000 H   0  0  0  0  0  0  0  0  0  0  0  0
    6.2607    3.3060    0.0000 H   0  0  0  0  0  0  0  0  0  0  0  0
    6.1114    3.2198    0.0000 H   0  0  0  0  0  0  0  0  0  0  0  0
    5.2928    2.9056    0.0000 H   0  0  0  0  0  0  0  0  0  0  0  0
    5.6071    2.0870    0.0000 H   0  0  0  0  0  0  0  0  0  0  0  0
    5.1081   -2.5456    0.0000 H   0  0  0  0  0  0  0  0  0  0  0  0
    2.0000   -3.2412    0.0000 H   0  0  0  0  0  0  0  0  0  0  0  0
    2.0799   -1.2406    0.0000 H   0  0  0  0  0  0  0  0  0  0  0  0
  1  3  1  0  0  0  0
  1  4  1  0  0  0  0
  1  5  1  0  0  0  0
  1  6  2  0  0  0  0
  2  4  1  0  0  0  0
  2  7  1  0  0  0  0
  2  8  1  0  0  0  0
  2  9  2  0  0  0  0
  5 37  1  0  0  0  0
  7 38  1  0  0  0  0
  8 39  1  0  0  0  0
 10 11  1  0  0  0  0
 10 13  1  6  0  0  0
 10 14  1  0  0  0  0
 10 17  1  0  0  0  0
 11 12  1  0  0  0  0
 11 18  1  0  0  0  0
 11 19  1  0  0  0  0
 12 15  1  0  0  0  0
 12 16  1  0  0  0  0
 12 20  1  1  0  0  0
 13  3  1  0  0  0  0
 13 15  1  0  0  0  0
 13 21  1  6  0  0  0
 14 16  1  0  0  0  0
 14 22  1  0  0  0  0
 14 23  1  0  0  0  0
 15 24  1  0  0  0  0
 15 25  1  0  0  0  0
 16 26  1  0  0  0  0
 16 27  1  0  0  0  0
 17 28  1  0  0  0  0
 17 29  1  0  0  0  0
 17 30  1  0  0  0  0
 18 31  1  0  0  0  0
 18 32  1  0  0  0  0
 18 33  1  0  0  0  0
 19 34  1  0  0  0  0
 19 35  1  0  0  0  0
 19 36  1  0  0  0  0
M  END
>  <PUBCHEM_COMPOUND_CID>
3037774

>  <PUBCHEM_COMPOUND_CANONICALIZED>
1

>  <PUBCHEM_CACTVS_COMPLEXITY>
471

>  <PUBCHEM_CACTVS_HBOND_ACCEPTOR>
7

>  <PUBCHEM_CACTVS_HBOND_DONOR>
3

>  <PUBCHEM_CACTVS_ROTATABLE_BOND>
4

>  <PUBCHEM_CACTVS_SUBSKEYS>
AAADceBwOAMAAAAAAAAAAAAAAAAAAYMAAAAwAAAAAAAAAAAAAAAAGgAACCAADxSggAICAAAAARAAQAAAAIAAAAAAAAAAAAAAAAAAAAIAAAAAAAAEAAAAAAGAwPAPgAAAAAAAAACAAAIAABAAAYAADAAAAA==

>  <PUBCHEM_IUPAC_OPENEYE_NAME>
phosphono [(1S,2S,4R)-1,7,7-trimethylnorbornan-2-yl] hydrogen phosphate

>  <PUBCHEM_IUPAC_CAS_NAME>
phosphono [(1R,3S,4S)-4,7,7-trimethyl-3-bicyclo[2.2.1]heptanyl] hydrogen phosphate

>  <PUBCHEM_IUPAC_NAME>
phosphono [(1R,3S,4S)-4,7,7-trimethyl-3-bicyclo[2.2.1]heptanyl] hydrogen phosphate

>  <PUBCHEM_IUPAC_SYSTEMATIC_NAME>
phosphono [(1R,3S,4S)-4,7,7-trimethyl-3-bicyclo[2.2.1]heptanyl] hydrogen phosphate

>  <PUBCHEM_IUPAC_TRADITIONAL_NAME>
phosphono [(1S,2S,4R)-1,7,7-trimethylnorbornan-2-yl] hydrogen phosphate

>  <PUBCHEM_IUPAC_INCHI>
InChI=1S/C10H20O7P2/c1-9(2)7-4-5-10(9,3)8(6-7)16-19(14,15)17-18(11,12)13/h7-8H,4-6H2,1-3H3,(H,14,15)(H2,11,12,13)/t7-,8+,10-/m1/s1

>  <PUBCHEM_IUPAC_INCHIKEY>
VZPAJODTZAAANV-KHQFGBGNSA-N

>  <PUBCHEM_XLOGP3_AA>
0.3

>  <PUBCHEM_EXACT_MASS>
314.068

>  <PUBCHEM_MOLECULAR_FORMULA>
C10H20O7P2

>  <PUBCHEM_MOLECULAR_WEIGHT>
314.211

>  <PUBCHEM_OPENEYE_CAN_SMILES>
CC1(C2CCC1(C(C2)OP(=O)(O)OP(=O)(O)O)C)C

>  <PUBCHEM_OPENEYE_ISO_SMILES>
C[C@]12CC[C@@H](C1(C)C)C[C@@H]2OP(=O)(O)OP(=O)(O)O

>  <PUBCHEM_CACTVS_TPSA>
113

>  <PUBCHEM_MONOISOTOPIC_WEIGHT>
314.068

>  <PUBCHEM_TOTAL_CHARGE>
0

>  <PUBCHEM_HEAVY_ATOM_COUNT>
19

>  <PUBCHEM_ATOM_DEF_STEREO_COUNT>
3

>  <PUBCHEM_ATOM_UDEF_STEREO_COUNT>
0

>  <PUBCHEM_BOND_DEF_STEREO_COUNT>
0

>  <PUBCHEM_BOND_UDEF_STEREO_COUNT>
0

>  <PUBCHEM_ISOTOPIC_ATOM_COUNT>
0

>  <PUBCHEM_COMPONENT_COUNT>
1

>  <PUBCHEM_CACTVS_TAUTO_COUNT>
1

>  <PUBCHEM_COORDINATE_TYPE>
1
5
255

>  <PUBCHEM_BONDANNOTATIONS>
10  17  5
12  20  5
13  3  5

$$$$
