305322
 OpenBabel06101807152D

 38 41  0  0  1  0  0  0  0  0999 V2000
    5.5863    2.2576    0.0000 O   0  0  0  0  0  0  0  0  0  0  0  0
    2.0747    1.1644    0.0000 O   0  0  0  0  0  0  0  0  0  0  0  0
    5.5388    1.1644    0.0000 O   0  0  0  0  0  0  0  0  0  0  0  0
    2.0000   -3.8114    0.0000 O   0  5  0  0  0  0  0  0  0  0  0  0
    3.7312   -3.8668    0.0000 O   0  0  0  0  0  0  0  0  0  0  0  0
    3.8067    1.1644    0.0000 N   0  0  0  0  0  0  0  0  0  0  0  0
    2.8816   -3.3394    0.0000 N   0  3  0  0  0  0  0  0  0  0  0  0
    4.6728    2.6644    0.0000 C   0  0  3  0  0  0  0  0  0  0  0  0
    4.7773    3.6589    0.0000 C   0  0  0  0  0  0  0  0  0  0  0  0
    3.8067    2.1644    0.0000 C   0  0  0  0  0  0  0  0  0  0  0  0
    5.7554    3.8668    0.0000 C   0  0  0  0  0  0  0  0  0  0  0  0
    6.2554    3.0008    0.0000 C   0  0  0  0  0  0  0  0  0  0  0  0
    3.8067   -0.8356    0.0000 C   0  0  0  0  0  0  0  0  0  0  0  0
    2.9407   -0.3356    0.0000 C   0  0  0  0  0  0  0  0  0  0  0  0
    2.9407    0.6644    0.0000 C   0  0  0  0  0  0  0  0  0  0  0  0
    4.6728   -0.3356    0.0000 C   0  0  0  0  0  0  0  0  0  0  0  0
    4.6728    0.6644    0.0000 C   0  0  0  0  0  0  0  0  0  0  0  0
    3.7907   -1.8771    0.0000 C   0  0  0  0  0  0  0  0  0  0  0  0
    2.0812   -0.8304    0.0000 C   0  0  0  0  0  0  0  0  0  0  0  0
    5.5828   -0.8425    0.0000 C   0  0  0  0  0  0  0  0  0  0  0  0
    2.9136   -2.3399    0.0000 C   0  0  0  0  0  0  0  0  0  0  0  0
    4.6887   -2.4049    0.0000 C   0  0  0  0  0  0  0  0  0  0  0  0
    2.0678   -1.8220    0.0000 C   0  0  0  0  0  0  0  0  0  0  0  0
    5.5908   -1.8841    0.0000 C   0  0  0  0  0  0  0  0  0  0  0  0
    4.7172    1.8155    0.0000 H   0  0  0  0  0  0  0  0  0  0  0  0
    4.7125    4.2755    0.0000 H   0  0  0  0  0  0  0  0  0  0  0  0
    4.1573    3.6589    0.0000 H   0  0  0  0  0  0  0  0  0  0  0  0
    3.5947    2.7470    0.0000 H   0  0  0  0  0  0  0  0  0  0  0  0
    3.1961    2.0567    0.0000 H   0  0  0  0  0  0  0  0  0  0  0  0
    6.3218    4.1190    0.0000 H   0  0  0  0  0  0  0  0  0  0  0  0
    5.5638    4.4565    0.0000 H   0  0  0  0  0  0  0  0  0  0  0  0
    6.6703    2.5400    0.0000 H   0  0  0  0  0  0  0  0  0  0  0  0
    6.7570    3.3652    0.0000 H   0  0  0  0  0  0  0  0  0  0  0  0
    1.5466   -0.5164    0.0000 H   0  0  0  0  0  0  0  0  0  0  0  0
    6.1161   -0.5263    0.0000 H   0  0  0  0  0  0  0  0  0  0  0  0
    4.6863   -3.0249    0.0000 H   0  0  0  0  0  0  0  0  0  0  0  0
    1.5249   -2.1214    0.0000 H   0  0  0  0  0  0  0  0  0  0  0  0
    6.1289   -2.1920    0.0000 H   0  0  0  0  0  0  0  0  0  0  0  0
  1  8  1  0  0  0  0
  1 12  1  0  0  0  0
  2 15  2  0  0  0  0
  3 17  2  0  0  0  0
  4  7  1  0  0  0  0
  5  7  2  0  0  0  0
  6 10  1  0  0  0  0
  6 15  1  0  0  0  0
  6 17  1  0  0  0  0
  7 21  1  0  0  0  0
  8  9  1  0  0  0  0
  8 10  1  0  0  0  0
  8 25  1  0  0  0  0
  9 11  1  0  0  0  0
  9 26  1  0  0  0  0
  9 27  1  0  0  0  0
 10 28  1  0  0  0  0
 10 29  1  0  0  0  0
 11 12  1  0  0  0  0
 11 30  1  0  0  0  0
 11 31  1  0  0  0  0
 12 32  1  0  0  0  0
 12 33  1  0  0  0  0
 13 14  2  0  0  0  0
 13 16  1  0  0  0  0
 13 18  1  0  0  0  0
 14 15  1  0  0  0  0
 14 19  1  0  0  0  0
 16 17  1  0  0  0  0
 16 20  2  0  0  0  0
 18 21  2  0  0  0  0
 18 22  1  0  0  0  0
 19 23  2  0  0  0  0
 19 34  1  0  0  0  0
 20 24  1  0  0  0  0
 20 35  1  0  0  0  0
 21 23  1  0  0  0  0
 22 24  2  0  0  0  0
 22 36  1  0  0  0  0
 23 37  1  0  0  0  0
 24 38  1  0  0  0  0
M  CHG  2   4  -1   7   1
M  END
>  <PUBCHEM_COMPOUND_CID>
305322

>  <PUBCHEM_COMPOUND_CANONICALIZED>
1

>  <PUBCHEM_CACTVS_COMPLEXITY>
560

>  <PUBCHEM_CACTVS_HBOND_ACCEPTOR>
5

>  <PUBCHEM_CACTVS_HBOND_DONOR>
0

>  <PUBCHEM_CACTVS_ROTATABLE_BOND>
2

>  <PUBCHEM_CACTVS_SUBSKEYS>
AAADccB7OAAAAAAAAAAAAAAAAAAAASAAAAA8YIAAAAAAAADxUAAAHgAEAAAADBzhmAYwwMMQRACJAiVSUwCCAAAkAgAoiAEIZMoKIDKAlZGHIQhkhiCYyYeYm8KeiAACQAASAAAQAASAACQAAAAAAAAAAA==

>  <PUBCHEM_IUPAC_OPENEYE_NAME>
6-nitro-2-(tetrahydrofuran-2-ylmethyl)benzo[de]isoquinoline-1,3-dione

>  <PUBCHEM_IUPAC_CAS_NAME>
6-nitro-2-(2-oxolanylmethyl)benzo[de]isoquinoline-1,3-dione

>  <PUBCHEM_IUPAC_NAME>
6-nitro-2-(oxolan-2-ylmethyl)benzo[de]isoquinoline-1,3-dione

>  <PUBCHEM_IUPAC_SYSTEMATIC_NAME>
6-nitro-2-(oxolan-2-ylmethyl)benzo[de]isoquinoline-1,3-dione

>  <PUBCHEM_IUPAC_TRADITIONAL_NAME>
6-nitro-2-(tetrahydrofurfuryl)benzo[de]isoquinoline-1,3-quinone

>  <PUBCHEM_IUPAC_INCHI>
InChI=1S/C17H14N2O5/c20-16-12-5-1-4-11-14(19(22)23)7-6-13(15(11)12)17(21)18(16)9-10-3-2-8-24-10/h1,4-7,10H,2-3,8-9H2

>  <PUBCHEM_IUPAC_INCHIKEY>
NGYYHWDFIZTGMZ-UHFFFAOYSA-N

>  <PUBCHEM_XLOGP3_AA>
2.4

>  <PUBCHEM_EXACT_MASS>
326.09

>  <PUBCHEM_MOLECULAR_FORMULA>
C17H14N2O5

>  <PUBCHEM_MOLECULAR_WEIGHT>
326.308

>  <PUBCHEM_OPENEYE_CAN_SMILES>
C1CC(OC1)CN2C(=O)C3=C4C(=C(C=C3)[N+](=O)[O-])C=CC=C4C2=O

>  <PUBCHEM_OPENEYE_ISO_SMILES>
C1CC(OC1)CN2C(=O)C3=C4C(=C(C=C3)[N+](=O)[O-])C=CC=C4C2=O

>  <PUBCHEM_CACTVS_TPSA>
92.4

>  <PUBCHEM_MONOISOTOPIC_WEIGHT>
326.09

>  <PUBCHEM_TOTAL_CHARGE>
0

>  <PUBCHEM_HEAVY_ATOM_COUNT>
24

>  <PUBCHEM_ATOM_DEF_STEREO_COUNT>
0

>  <PUBCHEM_ATOM_UDEF_STEREO_COUNT>
1

>  <PUBCHEM_BOND_DEF_STEREO_COUNT>
0

>  <PUBCHEM_BOND_UDEF_STEREO_COUNT>
0

>  <PUBCHEM_ISOTOPIC_ATOM_COUNT>
0

>  <PUBCHEM_COMPONENT_COUNT>
1

>  <PUBCHEM_CACTVS_TAUTO_COUNT>
1

>  <PUBCHEM_COORDINATE_TYPE>
1
5
255

>  <PUBCHEM_BONDANNOTATIONS>
13  14  8
13  16  8
13  18  8
14  19  8
16  20  8
18  21  8
18  22  8
19  23  8
20  24  8
21  23  8
22  24  8
8  25  3

$$$$
