3084583
 OpenBabel06101807152D

 43 47  0  0  1  0  0  0  0  0999 V2000
    4.9934    0.2174    0.0000 O   0  0  0  0  0  0  0  0  0  0  0  0
    2.3006   -1.2266    0.0000 O   0  0  0  0  0  0  0  0  0  0  0  0
    2.5664    0.8051    0.0000 O   0  0  0  0  0  0  0  0  0  0  0  0
    5.2405    3.9122    0.0000 O   0  0  0  0  0  0  0  0  0  0  0  0
    3.7986   -4.5497    0.0000 O   0  0  0  0  0  0  0  0  0  0  0  0
    3.3754    0.2174    0.0000 C   0  0  3  0  0  0  0  0  0  0  0  0
    4.1844   -0.3704    0.0000 C   0  0  3  0  0  0  0  0  0  0  0  0
    3.6844    1.1684    0.0000 C   0  0  0  0  0  0  0  0  0  0  0  0
    2.4174   -0.1916    0.0000 C   0  0  0  0  0  0  0  0  0  0  0  0
    4.6844    1.1684    0.0000 C   0  0  0  0  0  0  0  0  0  0  0  0
    4.0915   -1.4079    0.0000 C   0  0  0  0  0  0  0  0  0  0  0  0
    5.2191    2.0624    0.0000 C   0  0  0  0  0  0  0  0  0  0  0  0
    3.1432   -1.8389    0.0000 C   0  0  0  0  0  0  0  0  0  0  0  0
    3.1498    2.0624    0.0000 C   0  0  0  0  0  0  0  0  0  0  0  0
    4.7053    2.9684    0.0000 C   0  0  0  0  0  0  0  0  0  0  0  0
    6.3255    3.9122    0.0000 C   0  0  0  0  0  0  0  0  0  0  0  0
    3.6636    2.9684    0.0000 C   0  0  0  0  0  0  0  0  0  0  0  0
    4.9838   -2.0252    0.0000 C   0  0  0  0  0  0  0  0  0  0  0  0
    6.3038    2.0373    0.0000 C   0  0  0  0  0  0  0  0  0  0  0  0
    6.8607    2.9684    0.0000 C   0  0  0  0  0  0  0  0  0  0  0  0
    3.0215   -2.9170    0.0000 C   0  0  0  0  0  0  0  0  0  0  0  0
    4.8871   -3.1059    0.0000 C   0  0  0  0  0  0  0  0  0  0  0  0
    7.1934    4.4089    0.0000 C   0  0  0  0  0  0  0  0  0  0  0  0
    6.3293    4.9122    0.0000 C   0  0  0  0  0  0  0  0  0  0  0  0
    3.8993   -3.5548    0.0000 C   0  0  0  0  0  0  0  0  0  0  0  0
    4.7237   -0.6763    0.0000 H   0  0  0  0  0  0  0  0  0  0  0  0
    2.2752    0.4119    0.0000 H   0  0  0  0  0  0  0  0  0  0  0  0
    1.7985   -0.2285    0.0000 H   0  0  0  0  0  0  0  0  0  0  0  0
    2.5298    2.0552    0.0000 H   0  0  0  0  0  0  0  0  0  0  0  0
    2.0000    0.5530    0.0000 H   0  0  0  0  0  0  0  0  0  0  0  0
    3.3516    3.5042    0.0000 H   0  0  0  0  0  0  0  0  0  0  0  0
    5.5453   -1.7621    0.0000 H   0  0  0  0  0  0  0  0  0  0  0  0
    6.6034    1.4944    0.0000 H   0  0  0  0  0  0  0  0  0  0  0  0
    7.4807    2.9612    0.0000 H   0  0  0  0  0  0  0  0  0  0  0  0
    2.4542   -3.1670    0.0000 H   0  0  0  0  0  0  0  0  0  0  0  0
    5.3928   -3.4645    0.0000 H   0  0  0  0  0  0  0  0  0  0  0  0
    7.5014    3.8707    0.0000 H   0  0  0  0  0  0  0  0  0  0  0  0
    6.9493    4.9098    0.0000 H   0  0  0  0  0  0  0  0  0  0  0  0
    6.3317    5.5322    0.0000 H   0  0  0  0  0  0  0  0  0  0  0  0
    5.7093    4.9146    0.0000 H   0  0  0  0  0  0  0  0  0  0  0  0
    7.7316    4.7168    0.0000 H   0  0  0  0  0  0  0  0  0  0  0  0
    6.8855    4.9470    0.0000 H   0  0  0  0  0  0  0  0  0  0  0  0
    4.3016   -4.9122    0.0000 H   0  0  0  0  0  0  0  0  0  0  0  0
  1  7  1  0  0  0  0
  1 10  1  0  0  0  0
  2  9  1  0  0  0  0
  2 13  1  0  0  0  0
  3  6  1  0  0  0  0
  3 30  1  0  0  0  0
  4 15  1  0  0  0  0
  4 16  1  0  0  0  0
  5 25  1  0  0  0  0
  5 43  1  0  0  0  0
  6  7  1  0  0  0  0
  6  8  1  0  0  0  0
  6  9  1  0  0  0  0
  7 11  1  0  0  0  0
  7 26  1  0  0  0  0
  8 10  2  0  0  0  0
  8 14  1  0  0  0  0
  9 27  1  0  0  0  0
  9 28  1  0  0  0  0
 10 12  1  0  0  0  0
 11 13  2  0  0  0  0
 11 18  1  0  0  0  0
 12 15  2  0  0  0  0
 12 19  1  0  0  0  0
 13 21  1  0  0  0  0
 14 17  2  0  0  0  0
 14 29  1  0  0  0  0
 15 17  1  0  0  0  0
 16 20  1  0  0  0  0
 16 23  1  0  0  0  0
 16 24  1  0  0  0  0
 17 31  1  0  0  0  0
 18 22  2  0  0  0  0
 18 32  1  0  0  0  0
 19 20  2  0  0  0  0
 19 33  1  0  0  0  0
 20 34  1  0  0  0  0
 21 25  2  0  0  0  0
 21 35  1  0  0  0  0
 22 25  1  0  0  0  0
 22 36  1  0  0  0  0
 23 37  1  0  0  0  0
 23 41  1  0  0  0  0
 23 42  1  0  0  0  0
 24 38  1  0  0  0  0
 24 39  1  0  0  0  0
 24 40  1  0  0  0  0
M  END
>  <PUBCHEM_COMPOUND_CID>
3084583

>  <PUBCHEM_COMPOUND_CANONICALIZED>
1

>  <PUBCHEM_CACTVS_COMPLEXITY>
574

>  <PUBCHEM_CACTVS_HBOND_ACCEPTOR>
5

>  <PUBCHEM_CACTVS_HBOND_DONOR>
2

>  <PUBCHEM_CACTVS_ROTATABLE_BOND>
0

>  <PUBCHEM_CACTVS_SUBSKEYS>
AAADceB4OAAAAAAAAAAAAAAAAAAAASAAAAA0YIEAAAAAAEiRQAAAGgAACAAADFSgmAIyBoAABgCAAiBCAAACCAAgIAAIiAAGCIgNJyKGMRqCeCClwBULuAfA4PwOoAACCAAIAABAAAQQABAAAAAAAAAAAA==

>  <PUBCHEM_IUPAC_INCHI>
InChI=1S/C20H18O5/c1-19(2)8-7-12-15(25-19)6-5-14-17(12)24-18-13-4-3-11(21)9-16(13)23-10-20(14,18)22/h3-9,18,21-22H,10H2,1-2H3

>  <PUBCHEM_IUPAC_INCHIKEY>
LPBAKOAUSJMTEN-UHFFFAOYSA-N

>  <PUBCHEM_XLOGP3_AA>
2.5

>  <PUBCHEM_EXACT_MASS>
338.115

>  <PUBCHEM_MOLECULAR_FORMULA>
C20H18O5

>  <PUBCHEM_MOLECULAR_WEIGHT>
338.359

>  <PUBCHEM_OPENEYE_CAN_SMILES>
CC1(C=CC2=C(O1)C=CC3=C2OC4C3(COC5=C4C=CC(=C5)O)O)C

>  <PUBCHEM_OPENEYE_ISO_SMILES>
CC1(C=CC2=C(O1)C=CC3=C2OC4C3(COC5=C4C=CC(=C5)O)O)C

>  <PUBCHEM_CACTVS_TPSA>
68.2

>  <PUBCHEM_MONOISOTOPIC_WEIGHT>
338.115

>  <PUBCHEM_TOTAL_CHARGE>
0

>  <PUBCHEM_HEAVY_ATOM_COUNT>
25

>  <PUBCHEM_ATOM_DEF_STEREO_COUNT>
0

>  <PUBCHEM_ATOM_UDEF_STEREO_COUNT>
2

>  <PUBCHEM_BOND_DEF_STEREO_COUNT>
0

>  <PUBCHEM_BOND_UDEF_STEREO_COUNT>
0

>  <PUBCHEM_ISOTOPIC_ATOM_COUNT>
0

>  <PUBCHEM_COMPONENT_COUNT>
1

>  <PUBCHEM_CACTVS_TAUTO_COUNT>
3

>  <PUBCHEM_COORDINATE_TYPE>
1
5
255

>  <PUBCHEM_BONDANNOTATIONS>
7  1  3
10  12  8
11  13  8
11  18  8
12  15  8
13  21  8
14  17  8
15  17  8
18  22  8
21  25  8
22  25  8
6  3  3
8  10  8
8  14  8

$$$$
