3085241
 OpenBabel06101807152D

 59 63  0  0  1  0  0  0  0  0999 V2000
    4.8884   -1.1203    0.0000 O   0  0  0  0  0  0  0  0  0  0  0  0
    5.3025   -0.7609    0.0000 O   0  0  0  0  0  0  0  0  0  0  0  0
    4.3766    2.0927    0.0000 O   0  0  0  0  0  0  0  0  0  0  0  0
    2.5664    0.7780    0.0000 O   0  0  0  0  0  0  0  0  0  0  0  0
    6.1562   -1.7574    0.0000 O   0  0  0  0  0  0  0  0  0  0  0  0
    7.2450    0.8294    0.0000 O   0  0  0  0  0  0  0  0  0  0  0  0
    4.9073   -2.0135    0.0000 O   0  0  0  0  0  0  0  0  0  0  0  0
    4.9934    0.1902    0.0000 C   0  0  3  0  0  0  0  0  0  0  0  0
    5.9875    0.1928    0.0000 C   0  0  3  0  0  0  0  0  0  0  0  0
    4.1844   -0.3976    0.0000 C   0  0  1  0  0  0  0  0  0  0  0  0
    4.6844    1.1412    0.0000 C   0  0  3  0  0  0  0  0  0  0  0  0
    3.6844    1.1412    0.0000 C   0  0  3  0  0  0  0  0  0  0  0  0
    3.3754    0.1902    0.0000 C   0  0  3  0  0  0  0  0  0  0  0  0
    5.8473   -0.8064    0.0000 C   0  0  3  0  0  0  0  0  0  0  0  0
    6.2939    1.1384    0.0000 C   0  0  1  0  0  0  0  0  0  0  0  0
    5.3281    0.7918    0.0000 C   0  0  0  0  0  0  0  0  0  0  0  0
    5.4902    1.7234    0.0000 C   0  0  0  0  0  0  0  0  0  0  0  0
    4.0915   -1.4351    0.0000 C   0  0  1  0  0  0  0  0  0  0  0  0
    2.4174   -0.2188    0.0000 C   0  0  0  0  0  0  0  0  0  0  0  0
    6.9875    0.1953    0.0000 C   0  0  0  0  0  0  0  0  0  0  0  0
    3.0966    1.9502    0.0000 C   0  0  0  0  0  0  0  0  0  0  0  0
    6.8817    1.9475    0.0000 C   0  0  0  0  0  0  0  0  0  0  0  0
    3.1432   -1.8661    0.0000 C   0  0  3  0  0  0  0  0  0  0  0  0
    2.3006   -1.2538    0.0000 C   0  0  0  0  0  0  0  0  0  0  0  0
    7.8762    1.8429    0.0000 C   0  0  0  0  0  0  0  0  0  0  0  0
    6.4749    2.8610    0.0000 C   0  0  0  0  0  0  0  0  0  0  0  0
    3.0426   -2.8610    0.0000 C   0  0  0  0  0  0  0  0  0  0  0  0
    5.9420    0.8780    0.0000 H   0  0  0  0  0  0  0  0  0  0  0  0
    5.3497    1.4114    0.0000 H   0  0  0  0  0  0  0  0  0  0  0  0
    5.9057    2.1836    0.0000 H   0  0  0  0  0  0  0  0  0  0  0  0
    5.0762    2.1850    0.0000 H   0  0  0  0  0  0  0  0  0  0  0  0
    4.0327   -2.0523    0.0000 H   0  0  0  0  0  0  0  0  0  0  0  0
    2.2752    0.3847    0.0000 H   0  0  0  0  0  0  0  0  0  0  0  0
    1.7985   -0.2557    0.0000 H   0  0  0  0  0  0  0  0  0  0  0  0
    6.9891   -0.4247    0.0000 H   0  0  0  0  0  0  0  0  0  0  0  0
    7.6075    0.1970    0.0000 H   0  0  0  0  0  0  0  0  0  0  0  0
    6.9859    0.8153    0.0000 H   0  0  0  0  0  0  0  0  0  0  0  0
    3.5982    2.3147    0.0000 H   0  0  0  0  0  0  0  0  0  0  0  0
    2.7322    2.4518    0.0000 H   0  0  0  0  0  0  0  0  0  0  0  0
    2.5951    1.5858    0.0000 H   0  0  0  0  0  0  0  0  0  0  0  0
    6.2651    2.0123    0.0000 H   0  0  0  0  0  0  0  0  0  0  0  0
    2.3674   -2.2133    0.0000 H   0  0  0  0  0  0  0  0  0  0  0  0
    5.4941   -1.3505    0.0000 H   0  0  0  0  0  0  0  0  0  0  0  0
    1.7055   -1.0799    0.0000 H   0  0  0  0  0  0  0  0  0  0  0  0
    2.0273   -1.8104    0.0000 H   0  0  0  0  0  0  0  0  0  0  0  0
    4.7921    2.5529    0.0000 H   0  0  0  0  0  0  0  0  0  0  0  0
    2.0000    0.5258    0.0000 H   0  0  0  0  0  0  0  0  0  0  0  0
    6.7627   -1.8864    0.0000 H   0  0  0  0  0  0  0  0  0  0  0  0
    7.7057    1.2443    0.0000 H   0  0  0  0  0  0  0  0  0  0  0  0
    4.8496   -2.6308    0.0000 H   0  0  0  0  0  0  0  0  0  0  0  0
    7.0413    3.1132    0.0000 H   0  0  0  0  0  0  0  0  0  0  0  0
    6.2228    3.4274    0.0000 H   0  0  0  0  0  0  0  0  0  0  0  0
    5.9086    2.6088    0.0000 H   0  0  0  0  0  0  0  0  0  0  0  0
    7.8114    1.2263    0.0000 H   0  0  0  0  0  0  0  0  0  0  0  0
    8.4928    1.7781    0.0000 H   0  0  0  0  0  0  0  0  0  0  0  0
    7.9410    2.4595    0.0000 H   0  0  0  0  0  0  0  0  0  0  0  0
    2.4257   -2.7986    0.0000 H   0  0  0  0  0  0  0  0  0  0  0  0
    2.9801   -3.4778    0.0000 H   0  0  0  0  0  0  0  0  0  0  0  0
    3.6594   -2.9234    0.0000 H   0  0  0  0  0  0  0  0  0  0  0  0
  1 14  1  0  0  0  0
  2  8  1  0  0  0  0
  2 43  1  0  0  0  0
  3 11  1  0  0  0  0
  3 46  1  0  0  0  0
  4 13  1  0  0  0  0
  4 47  1  0  0  0  0
  5 14  1  0  0  0  0
  5 48  1  0  0  0  0
  6 49  1  0  0  0  0
  7 50  1  0  0  0  0
  8  9  1  0  0  0  0
  8 11  1  0  0  0  0
  9 14  1  0  0  0  0
  9 20  1  0  0  0  0
 10  1  1  0  0  0  0
 10  8  1  1  0  0  0
 10 13  1  0  0  0  0
 11 12  1  0  0  0  0
 11 17  1  0  0  0  0
 12 13  1  0  0  0  0
 12 16  1  0  0  0  0
 12 21  1  0  0  0  0
 13 19  1  0  0  0  0
 14 16  1  0  0  0  0
 15  6  1  0  0  0  0
 15  9  1  6  0  0  0
 15 17  1  0  0  0  0
 15 22  1  0  0  0  0
 16 28  1  0  0  0  0
 16 29  1  0  0  0  0
 17 30  1  0  0  0  0
 17 31  1  0  0  0  0
 18  7  1  0  0  0  0
 18 10  1  1  0  0  0
 18 23  1  0  0  0  0
 18 32  1  0  0  0  0
 19 24  1  0  0  0  0
 19 33  1  0  0  0  0
 19 34  1  0  0  0  0
 20 35  1  0  0  0  0
 20 36  1  0  0  0  0
 20 37  1  0  0  0  0
 21 38  1  0  0  0  0
 21 39  1  0  0  0  0
 21 40  1  0  0  0  0
 22 25  1  0  0  0  0
 22 26  1  0  0  0  0
 22 41  1  0  0  0  0
 23 24  1  0  0  0  0
 23 27  1  0  0  0  0
 23 42  1  0  0  0  0
 24 44  1  0  0  0  0
 24 45  1  0  0  0  0
 25 54  1  0  0  0  0
 25 55  1  0  0  0  0
 25 56  1  0  0  0  0
 26 51  1  0  0  0  0
 26 52  1  0  0  0  0
 26 53  1  0  0  0  0
 27 57  1  0  0  0  0
 27 58  1  0  0  0  0
 27 59  1  0  0  0  0
M  END
>  <PUBCHEM_COMPOUND_CID>
3085241

>  <PUBCHEM_COMPOUND_CANONICALIZED>
1

>  <PUBCHEM_CACTVS_COMPLEXITY>
759

>  <PUBCHEM_CACTVS_HBOND_ACCEPTOR>
7

>  <PUBCHEM_CACTVS_HBOND_DONOR>
6

>  <PUBCHEM_CACTVS_ROTATABLE_BOND>
1

>  <PUBCHEM_CACTVS_SUBSKEYS>
AAADcfB4OAAAAAAAAAAAAAAAAAAAAaMEAAA0QAAABgAAAGCQAAAAGgAACAAAD1SggAICCAAABgAAAAAAAAAAAAAAAAAAAAAAAAAREAIAAAACQAAFAAAHAAHA4PwPgAAAAAAAAADCAAYQADCAAYQADCAAAA==

>  <PUBCHEM_IUPAC_INCHI>
InChI=1S/C20H32O7/c1-10(2)15(22)9-17(24)13(4)8-18(25)14(15,5)20(17,26)19(27-18)12(21)11(3)6-7-16(13,19)23/h10-12,21-26H,6-9H2,1-5H3/t11?,12-,13?,14?,15+,16?,17?,18?,19-,20?/m1/s1

>  <PUBCHEM_IUPAC_INCHIKEY>
TVHZPQAYPSOHQT-RTWQWHHJSA-N

>  <PUBCHEM_XLOGP3_AA>
-0.8

>  <PUBCHEM_EXACT_MASS>
384.215

>  <PUBCHEM_MOLECULAR_FORMULA>
C20H32O7

>  <PUBCHEM_MOLECULAR_WEIGHT>
384.469

>  <PUBCHEM_OPENEYE_CAN_SMILES>
CC1CCC2(C3(CC4(C5(C(CC3(C5(C2(C1O)O4)O)O)(C(C)C)O)C)O)C)O

>  <PUBCHEM_OPENEYE_ISO_SMILES>
CC1CCC2([C@]3([C@@H]1O)C4(C5([C@](CC4(C2(CC5(O3)O)C)O)(C(C)C)O)C)O)O

>  <PUBCHEM_CACTVS_TPSA>
131

>  <PUBCHEM_MONOISOTOPIC_WEIGHT>
384.215

>  <PUBCHEM_TOTAL_CHARGE>
0

>  <PUBCHEM_HEAVY_ATOM_COUNT>
27

>  <PUBCHEM_ATOM_DEF_STEREO_COUNT>
3

>  <PUBCHEM_ATOM_UDEF_STEREO_COUNT>
7

>  <PUBCHEM_BOND_DEF_STEREO_COUNT>
0

>  <PUBCHEM_BOND_UDEF_STEREO_COUNT>
0

>  <PUBCHEM_ISOTOPIC_ATOM_COUNT>
0

>  <PUBCHEM_COMPONENT_COUNT>
1

>  <PUBCHEM_CACTVS_TAUTO_COUNT>
1

>  <PUBCHEM_COORDINATE_TYPE>
1
5
255

>  <PUBCHEM_BONDANNOTATIONS>
10  1  6
12  21  3
8  2  3
23  42  3
11  3  3
13  4  3
14  5  3
15  6  5
18  7  6
9  20  3

$$$$
