3085404
 OpenBabel06101807152D

 42 42  0  0  1  0  0  0  0  0999 V2000
    2.4824    0.5115    0.0000 O   0  0  0  0  0  0  0  0  0  0  0  0
    3.4483    5.1164    0.0000 O   0  0  0  0  0  0  0  0  0  0  0  0
    4.6730    3.8916    0.0000 O   0  0  0  0  0  0  0  0  0  0  0  0
    5.8284   -0.3851    0.0000 O   0  0  0  0  0  0  0  0  0  0  0  0
    5.3801    1.2879    0.0000 O   0  0  0  0  0  0  0  0  0  0  0  0
    6.0179   -3.0240    0.0000 O   0  0  0  0  0  0  0  0  0  0  0  0
    5.5003   -4.9559    0.0000 O   0  0  0  0  0  0  0  0  0  0  0  0
    3.8272   -4.5076    0.0000 O   0  0  0  0  0  0  0  0  0  0  0  0
    3.0000    2.4433    0.0000 N   0  0  0  0  0  0  0  0  0  0  0  0
    3.8966   -0.9027    0.0000 N   0  0  0  0  0  0  0  0  0  0  0  0
    3.0000    3.4433    0.0000 C   0  0  3  0  0  0  0  0  0  0  0  0
    2.0000    3.4433    0.0000 C   0  0  0  0  0  0  0  0  0  0  0  0
    2.0000    2.4433    0.0000 C   0  0  0  0  0  0  0  0  0  0  0  0
    3.7071    1.7362    0.0000 C   0  0  0  0  0  0  0  0  0  0  0  0
    3.4483    0.7703    0.0000 C   0  0  3  0  0  0  0  0  0  0  0  0
    4.1554    0.0632    0.0000 C   0  0  3  0  0  0  0  0  0  0  0  0
    3.7071    4.1504    0.0000 C   0  0  0  0  0  0  0  0  0  0  0  0
    4.6037   -1.6098    0.0000 C   0  0  0  0  0  0  0  0  0  0  0  0
    5.1213    0.3220    0.0000 C   0  0  0  0  0  0  0  0  0  0  0  0
    4.3449   -2.5758    0.0000 C   0  0  0  0  0  0  0  0  0  0  0  0
    5.0520   -3.2829    0.0000 C   0  0  3  0  0  0  0  0  0  0  0  0
    4.7932   -4.2488    0.0000 C   0  0  0  0  0  0  0  0  0  0  0  0
    3.7853    3.1181    0.0000 H   0  0  0  0  0  0  0  0  0  0  0  0
    2.0000    4.0633    0.0000 H   0  0  0  0  0  0  0  0  0  0  0  0
    1.3800    3.4433    0.0000 H   0  0  0  0  0  0  0  0  0  0  0  0
    1.3800    2.4433    0.0000 H   0  0  0  0  0  0  0  0  0  0  0  0
    2.0000    1.8233    0.0000 H   0  0  0  0  0  0  0  0  0  0  0  0
    4.2690    1.4742    0.0000 H   0  0  0  0  0  0  0  0  0  0  0  0
    4.0627    2.2441    0.0000 H   0  0  0  0  0  0  0  0  0  0  0  0
    3.2283   -0.0507    0.0000 H   0  0  0  0  0  0  0  0  0  0  0  0
    4.7564   -0.5378    0.0000 H   0  0  0  0  0  0  0  0  0  0  0  0
    3.2977   -1.0632    0.0000 H   0  0  0  0  0  0  0  0  0  0  0  0
    5.1656   -1.8719    0.0000 H   0  0  0  0  0  0  0  0  0  0  0  0
    4.9593   -1.1020    0.0000 H   0  0  0  0  0  0  0  0  0  0  0  0
    2.3219   -0.0874    0.0000 H   0  0  0  0  0  0  0  0  0  0  0  0
    3.7830   -2.3137    0.0000 H   0  0  0  0  0  0  0  0  0  0  0  0
    3.9892   -3.0836    0.0000 H   0  0  0  0  0  0  0  0  0  0  0  0
    3.8867    5.5548    0.0000 H   0  0  0  0  0  0  0  0  0  0  0  0
    5.6530   -3.8839    0.0000 H   0  0  0  0  0  0  0  0  0  0  0  0
    6.4273   -0.2246    0.0000 H   0  0  0  0  0  0  0  0  0  0  0  0
    6.4563   -3.4625    0.0000 H   0  0  0  0  0  0  0  0  0  0  0  0
    5.3398   -5.5548    0.0000 H   0  0  0  0  0  0  0  0  0  0  0  0
  1 15  1  0  0  0  0
  1 35  1  0  0  0  0
  2 17  1  0  0  0  0
  2 38  1  0  0  0  0
  3 17  2  0  0  0  0
  4 19  1  0  0  0  0
  4 40  1  0  0  0  0
  5 19  2  0  0  0  0
  6 21  1  0  0  0  0
  6 41  1  0  0  0  0
  7 22  1  0  0  0  0
  7 42  1  0  0  0  0
  8 22  2  0  0  0  0
  9 11  1  0  0  0  0
  9 13  1  0  0  0  0
  9 14  1  0  0  0  0
 10 16  1  0  0  0  0
 10 18  1  0  0  0  0
 10 32  1  0  0  0  0
 11 12  1  0  0  0  0
 11 17  1  0  0  0  0
 11 23  1  0  0  0  0
 12 13  1  0  0  0  0
 12 24  1  0  0  0  0
 12 25  1  0  0  0  0
 13 26  1  0  0  0  0
 13 27  1  0  0  0  0
 14 15  1  0  0  0  0
 14 28  1  0  0  0  0
 14 29  1  0  0  0  0
 15 16  1  0  0  0  0
 15 30  1  0  0  0  0
 16 19  1  0  0  0  0
 16 31  1  0  0  0  0
 18 20  1  0  0  0  0
 18 33  1  0  0  0  0
 18 34  1  0  0  0  0
 20 21  1  0  0  0  0
 20 36  1  0  0  0  0
 20 37  1  0  0  0  0
 21 22  1  0  0  0  0
 21 39  1  0  0  0  0
M  END
>  <PUBCHEM_COMPOUND_CID>
3085404

>  <PUBCHEM_COMPOUND_CANONICALIZED>
1

>  <PUBCHEM_CACTVS_COMPLEXITY>
429

>  <PUBCHEM_CACTVS_HBOND_ACCEPTOR>
10

>  <PUBCHEM_CACTVS_HBOND_DONOR>
6

>  <PUBCHEM_CACTVS_ROTATABLE_BOND>
10

>  <PUBCHEM_CACTVS_SUBSKEYS>
AAADceBzPAAAAAAAAAAAAAAAAABYAAAAAAAAAAAAAAAAAAAAAAAAHgAQCAAACDzhgAYACAPAAgAIAACQCAIAAAAAAAAAAIHIAAADEBQAwCAEQAAHMACRAAAkAAAAAAAAAAAAAAAAAAAAAAAAAAAAAAAAAA==

>  <PUBCHEM_IUPAC_OPENEYE_NAME>
1-[3-carboxy-3-[(3-carboxy-3-hydroxy-propyl)amino]-2-hydroxy-propyl]azetidine-2-carboxylic acid

>  <PUBCHEM_IUPAC_CAS_NAME>
1-[3-carboxy-3-[(3-carboxy-3-hydroxypropyl)amino]-2-hydroxypropyl]-2-azetidinecarboxylic acid

>  <PUBCHEM_IUPAC_NAME>
1-[3-carboxy-3-[(3-carboxy-3-hydroxypropyl)amino]-2-hydroxypropyl]azetidine-2-carboxylic acid

>  <PUBCHEM_IUPAC_SYSTEMATIC_NAME>
1-[3-[[3,4-bis(oxidanyl)-4-oxidanylidene-butyl]amino]-2,4-bis(oxidanyl)-4-oxidanylidene-butyl]azetidine-2-carboxylic acid

>  <PUBCHEM_IUPAC_TRADITIONAL_NAME>
1-[3-carboxy-3-[(3-carboxy-3-hydroxy-propyl)amino]-2-hydroxy-propyl]azetidine-2-carboxylic acid

>  <PUBCHEM_IUPAC_INCHI>
InChI=1S/C12H20N2O8/c15-7(11(19)20)1-3-13-9(12(21)22)8(16)5-14-4-2-6(14)10(17)18/h6-9,13,15-16H,1-5H2,(H,17,18)(H,19,20)(H,21,22)

>  <PUBCHEM_IUPAC_INCHIKEY>
GJRGEVKCJPPZIT-UHFFFAOYSA-N

>  <PUBCHEM_XLOGP3_AA>
-6.7

>  <PUBCHEM_EXACT_MASS>
320.122

>  <PUBCHEM_MOLECULAR_FORMULA>
C12H20N2O8

>  <PUBCHEM_MOLECULAR_WEIGHT>
320.298

>  <PUBCHEM_OPENEYE_CAN_SMILES>
C1CN(C1C(=O)O)CC(C(C(=O)O)NCCC(C(=O)O)O)O

>  <PUBCHEM_OPENEYE_ISO_SMILES>
C1CN(C1C(=O)O)CC(C(C(=O)O)NCCC(C(=O)O)O)O

>  <PUBCHEM_CACTVS_TPSA>
168

>  <PUBCHEM_MONOISOTOPIC_WEIGHT>
320.122

>  <PUBCHEM_TOTAL_CHARGE>
0

>  <PUBCHEM_HEAVY_ATOM_COUNT>
22

>  <PUBCHEM_ATOM_DEF_STEREO_COUNT>
0

>  <PUBCHEM_ATOM_UDEF_STEREO_COUNT>
4

>  <PUBCHEM_BOND_DEF_STEREO_COUNT>
0

>  <PUBCHEM_BOND_UDEF_STEREO_COUNT>
0

>  <PUBCHEM_ISOTOPIC_ATOM_COUNT>
0

>  <PUBCHEM_COMPONENT_COUNT>
1

>  <PUBCHEM_CACTVS_TAUTO_COUNT>
1

>  <PUBCHEM_COORDINATE_TYPE>
1
5
255

>  <PUBCHEM_BONDANNOTATIONS>
11  23  3
15  30  3
16  31  3
21  39  3

$$$$
