318730
 OpenBabel06101807152D

 51 54  0  0  1  0  0  0  0  0999 V2000
    5.1350   -0.3521    0.0000 O   0  0  0  0  0  0  0  0  0  0  0  0
    6.8671   -0.3521    0.0000 O   0  0  0  0  0  0  0  0  0  0  0  0
    5.1350   -3.3520    0.0000 O   0  0  0  0  0  0  0  0  0  0  0  0
    3.4030   -2.3521    0.0000 O   0  0  0  0  0  0  0  0  0  0  0  0
    6.8671   -2.3521    0.0000 O   0  0  0  0  0  0  0  0  0  0  0  0
    2.5369   -0.8521    0.0000 O   0  0  0  0  0  0  0  0  0  0  0  0
    8.6158   -0.3377    0.0000 O   0  0  0  0  0  0  0  0  0  0  0  0
    5.1208    2.7271    0.0000 O   0  0  0  0  0  0  0  0  0  0  0  0
    8.6620    3.6620    0.0000 O   0  0  0  0  0  0  0  0  0  0  0  0
   10.3636   -0.3925    0.0000 O   0  0  0  0  0  0  0  0  0  0  0  0
    5.1350   -2.3521    0.0000 C   0  0  3  0  0  0  0  0  0  0  0  0
    4.2690   -1.8520    0.0000 C   0  0  3  0  0  0  0  0  0  0  0  0
    6.0010   -1.8520    0.0000 C   0  0  3  0  0  0  0  0  0  0  0  0
    4.2690   -0.8521    0.0000 C   0  0  3  0  0  0  0  0  0  0  0  0
    6.0010   -0.8521    0.0000 C   0  0  3  0  0  0  0  0  0  0  0  0
    3.4030   -0.3521    0.0000 C   0  0  0  0  0  0  0  0  0  0  0  0
    6.8671    0.6479    0.0000 C   0  0  0  0  0  0  0  0  0  0  0  0
    7.7671    1.1722    0.0000 C   0  0  0  0  0  0  0  0  0  0  0  0
    7.7787    2.1722    0.0000 C   0  0  0  0  0  0  0  0  0  0  0  0
    8.6273    0.6623    0.0000 C   0  0  0  0  0  0  0  0  0  0  0  0
    5.9670    1.1722    0.0000 C   0  0  0  0  0  0  0  0  0  0  0  0
    9.4991    1.1522    0.0000 C   0  0  0  0  0  0  0  0  0  0  0  0
    9.5106    2.1521    0.0000 C   0  0  0  0  0  0  0  0  0  0  0  0
    8.6504    2.6621    0.0000 C   0  0  0  0  0  0  0  0  0  0  0  0
    6.8910    2.7171    0.0000 C   0  0  0  0  0  0  0  0  0  0  0  0
    5.9790    2.2138    0.0000 C   0  0  0  0  0  0  0  0  0  0  0  0
   10.3868    0.6072    0.0000 C   0  0  0  0  0  0  0  0  0  0  0  0
   10.4107    2.6764    0.0000 C   0  0  0  0  0  0  0  0  0  0  0  0
   11.3108    2.1521    0.0000 C   0  0  0  0  0  0  0  0  0  0  0  0
   11.2987    1.1106    0.0000 C   0  0  0  0  0  0  0  0  0  0  0  0
   12.1806    2.6454    0.0000 C   0  0  0  0  0  0  0  0  0  0  0  0
    5.6720   -2.6620    0.0000 H   0  0  0  0  0  0  0  0  0  0  0  0
    4.2690   -2.4720    0.0000 H   0  0  0  0  0  0  0  0  0  0  0  0
    6.5380   -1.5420    0.0000 H   0  0  0  0  0  0  0  0  0  0  0  0
    4.2690   -0.2321    0.0000 H   0  0  0  0  0  0  0  0  0  0  0  0
    6.0010   -0.2321    0.0000 H   0  0  0  0  0  0  0  0  0  0  0  0
    3.8015    0.1229    0.0000 H   0  0  0  0  0  0  0  0  0  0  0  0
    3.0044    0.1229    0.0000 H   0  0  0  0  0  0  0  0  0  0  0  0
    4.5981   -3.6620    0.0000 H   0  0  0  0  0  0  0  0  0  0  0  0
    3.4030   -2.9720    0.0000 H   0  0  0  0  0  0  0  0  0  0  0  0
    6.8671   -2.9720    0.0000 H   0  0  0  0  0  0  0  0  0  0  0  0
    5.4277    0.8664    0.0000 H   0  0  0  0  0  0  0  0  0  0  0  0
    2.0000   -0.5421    0.0000 H   0  0  0  0  0  0  0  0  0  0  0  0
    6.9053    3.3370    0.0000 H   0  0  0  0  0  0  0  0  0  0  0  0
   10.4107    3.2964    0.0000 H   0  0  0  0  0  0  0  0  0  0  0  0
   11.8308    0.7923    0.0000 H   0  0  0  0  0  0  0  0  0  0  0  0
   12.4865    2.1061    0.0000 H   0  0  0  0  0  0  0  0  0  0  0  0
   12.7199    2.9513    0.0000 H   0  0  0  0  0  0  0  0  0  0  0  0
   11.8748    3.1848    0.0000 H   0  0  0  0  0  0  0  0  0  0  0  0
    5.1304    3.3470    0.0000 H   0  0  0  0  0  0  0  0  0  0  0  0
   10.8933   -0.7148    0.0000 H   0  0  0  0  0  0  0  0  0  0  0  0
  1 14  1  0  0  0  0
  1 15  1  0  0  0  0
  2 15  1  0  0  0  0
  2 17  1  0  0  0  0
  3 11  1  0  0  0  0
  3 39  1  0  0  0  0
  4 12  1  0  0  0  0
  4 40  1  0  0  0  0
  5 13  1  0  0  0  0
  5 41  1  0  0  0  0
  6 16  1  0  0  0  0
  6 43  1  0  0  0  0
  7 20  2  0  0  0  0
  8 26  1  0  0  0  0
  8 50  1  0  0  0  0
  9 24  2  0  0  0  0
 10 27  1  0  0  0  0
 10 51  1  0  0  0  0
 11 12  1  0  0  0  0
 11 13  1  0  0  0  0
 11 32  1  0  0  0  0
 12 14  1  0  0  0  0
 12 33  1  0  0  0  0
 13 15  1  0  0  0  0
 13 34  1  0  0  0  0
 14 16  1  0  0  0  0
 14 35  1  0  0  0  0
 15 36  1  0  0  0  0
 16 37  1  0  0  0  0
 16 38  1  0  0  0  0
 17 18  1  0  0  0  0
 17 21  2  0  0  0  0
 18 19  2  0  0  0  0
 18 20  1  0  0  0  0
 19 24  1  0  0  0  0
 19 25  1  0  0  0  0
 20 22  1  0  0  0  0
 21 26  1  0  0  0  0
 21 42  1  0  0  0  0
 22 23  2  0  0  0  0
 22 27  1  0  0  0  0
 23 24  1  0  0  0  0
 23 28  1  0  0  0  0
 25 26  2  0  0  0  0
 25 44  1  0  0  0  0
 27 30  2  0  0  0  0
 28 29  2  0  0  0  0
 28 45  1  0  0  0  0
 29 30  1  0  0  0  0
 29 31  1  0  0  0  0
 30 46  1  0  0  0  0
 31 47  1  0  0  0  0
 31 48  1  0  0  0  0
 31 49  1  0  0  0  0
M  END
>  <PUBCHEM_COMPOUND_CID>
318730

>  <PUBCHEM_COMPOUND_CANONICALIZED>
1

>  <PUBCHEM_CACTVS_COMPLEXITY>
700

>  <PUBCHEM_CACTVS_HBOND_ACCEPTOR>
10

>  <PUBCHEM_CACTVS_HBOND_DONOR>
6

>  <PUBCHEM_CACTVS_ROTATABLE_BOND>
3

>  <PUBCHEM_CACTVS_SUBSKEYS>
AAADceB4PAAAAAAAAAAAAAAAAAAAAAAAAAA0YMEAAAAAAADBQAAAGgAACAAADBSwmAMyDoAABgCIAqBSAAACCAAkIAAAiAEGCMgdNzaGNRqieWCl4BUPuYfL7PzO4AADCAAYAADAAAYQADAAAAAAAAAAAA==

>  <PUBCHEM_IUPAC_OPENEYE_NAME>
1,6-dihydroxy-3-methyl-8-[3,4,5-trihydroxy-6-(hydroxymethyl)tetrahydropyran-2-yl]oxy-anthracene-9,10-dione

>  <PUBCHEM_IUPAC_CAS_NAME>
1,6-dihydroxy-3-methyl-8-[[3,4,5-trihydroxy-6-(hydroxymethyl)-2-oxanyl]oxy]anthracene-9,10-dione

>  <PUBCHEM_IUPAC_NAME>
1,6-dihydroxy-3-methyl-8-[3,4,5-trihydroxy-6-(hydroxymethyl)oxan-2-yl]oxyanthracene-9,10-dione

>  <PUBCHEM_IUPAC_SYSTEMATIC_NAME>
1-[6-(hydroxymethyl)-3,4,5-tris(oxidanyl)oxan-2-yl]oxy-6-methyl-3,8-bis(oxidanyl)anthracene-9,10-dione

>  <PUBCHEM_IUPAC_TRADITIONAL_NAME>
1,6-dihydroxy-3-methyl-8-(3,4,5-trihydroxy-6-methylol-tetrahydropyran-2-yl)oxy-9,10-anthraquinone

>  <PUBCHEM_IUPAC_INCHI>
InChI=1S/C21H20O10/c1-7-2-9-14(11(24)3-7)18(27)15-10(16(9)25)4-8(23)5-12(15)30-21-20(29)19(28)17(26)13(6-22)31-21/h2-5,13,17,19-24,26,28-29H,6H2,1H3

>  <PUBCHEM_IUPAC_INCHIKEY>
HSWIRQIYASIOBE-UHFFFAOYSA-N

>  <PUBCHEM_XLOGP3_AA>
0.9

>  <PUBCHEM_EXACT_MASS>
432.106

>  <PUBCHEM_MOLECULAR_FORMULA>
C21H20O10

>  <PUBCHEM_MOLECULAR_WEIGHT>
432.381

>  <PUBCHEM_OPENEYE_CAN_SMILES>
CC1=CC(=C2C(=C1)C(=O)C3=CC(=CC(=C3C2=O)OC4C(C(C(C(O4)CO)O)O)O)O)O

>  <PUBCHEM_OPENEYE_ISO_SMILES>
CC1=CC(=C2C(=C1)C(=O)C3=CC(=CC(=C3C2=O)OC4C(C(C(C(O4)CO)O)O)O)O)O

>  <PUBCHEM_CACTVS_TPSA>
174

>  <PUBCHEM_MONOISOTOPIC_WEIGHT>
432.106

>  <PUBCHEM_TOTAL_CHARGE>
0

>  <PUBCHEM_HEAVY_ATOM_COUNT>
31

>  <PUBCHEM_ATOM_DEF_STEREO_COUNT>
0

>  <PUBCHEM_ATOM_UDEF_STEREO_COUNT>
5

>  <PUBCHEM_BOND_DEF_STEREO_COUNT>
0

>  <PUBCHEM_BOND_UDEF_STEREO_COUNT>
0

>  <PUBCHEM_ISOTOPIC_ATOM_COUNT>
0

>  <PUBCHEM_COMPONENT_COUNT>
1

>  <PUBCHEM_CACTVS_TAUTO_COUNT>
57

>  <PUBCHEM_COORDINATE_TYPE>
1
5
255

>  <PUBCHEM_BONDANNOTATIONS>
14  16  3
17  18  8
17  21  8
18  19  8
19  25  8
15  2  3
21  26  8
22  23  8
22  27  8
23  28  8
25  26  8
27  30  8
28  29  8
29  30  8
11  3  3
12  4  3
13  5  3

$$$$
