325518
 OpenBabel06101807152D

 57 60  0  0  1  0  0  0  0  0999 V2000
    7.4260   -3.1074    0.0000 O   0  0  0  0  0  0  0  0  0  0  0  0
    3.9061   -3.1074    0.0000 O   0  0  0  0  0  0  0  0  0  0  0  0
    7.4144   -0.0381    0.0000 O   0  0  0  0  0  0  0  0  0  0  0  0
    5.6660   -0.0727    0.0000 O   0  0  0  0  0  0  0  0  0  0  0  0
   10.0680   -2.5452    0.0000 O   0  0  0  0  0  0  0  0  0  0  0  0
   11.7884    0.4615    0.0000 O   0  0  0  0  0  0  0  0  0  0  0  0
    8.3321   -1.5519    0.0000 C   0  0  3  0  0  0  0  0  0  0  0  0
    6.5320   -1.5727    0.0000 C   0  0  0  0  0  0  0  0  0  0  0  0
    8.3321   -2.5935    0.0000 C   0  0  0  0  0  0  0  0  0  0  0  0
    7.4260   -1.0380    0.0000 C   0  0  0  0  0  0  0  0  0  0  0  0
    3.0000   -2.5935    0.0000 C   0  0  0  0  0  0  0  0  0  0  0  0
    9.1962   -1.0485    0.0000 C   0  0  0  0  0  0  0  0  0  0  0  0
    6.5320   -2.5727    0.0000 C   0  0  0  0  0  0  0  0  0  0  0  0
    4.8000   -1.5727    0.0000 C   0  0  0  0  0  0  0  0  0  0  0  0
    4.8000   -2.5727    0.0000 C   0  0  0  0  0  0  0  0  0  0  0  0
    5.6660   -1.0727    0.0000 C   0  0  0  0  0  0  0  0  0  0  0  0
    5.6660   -3.0727    0.0000 C   0  0  0  0  0  0  0  0  0  0  0  0
    3.0000   -1.5519    0.0000 C   0  0  0  0  0  0  0  0  0  0  0  0
    3.9061   -1.0380    0.0000 C   0  0  0  0  0  0  0  0  0  0  0  0
    9.1923   -0.0485    0.0000 C   0  0  0  0  0  0  0  0  0  0  0  0
   10.0641   -1.5452    0.0000 C   0  0  0  0  0  0  0  0  0  0  0  0
    2.0000   -2.5974    0.0000 C   0  0  0  0  0  0  0  0  0  0  0  0
    2.5033   -3.4614    0.0000 C   0  0  0  0  0  0  0  0  0  0  0  0
   10.0564    0.4548    0.0000 C   0  0  0  0  0  0  0  0  0  0  0  0
   10.9282   -1.0419    0.0000 C   0  0  0  0  0  0  0  0  0  0  0  0
   10.9243   -0.0419    0.0000 C   0  0  0  0  0  0  0  0  0  0  0  0
   10.0525    1.4548    0.0000 C   0  0  0  0  0  0  0  0  0  0  0  0
   10.9166    1.9581    0.0000 C   0  0  0  0  0  0  0  0  0  0  0  0
   10.9128    2.9581    0.0000 C   0  0  0  0  0  0  0  0  0  0  0  0
   11.7769    3.4614    0.0000 C   0  0  0  0  0  0  0  0  0  0  0  0
   10.0448    3.4548    0.0000 C   0  0  0  0  0  0  0  0  0  0  0  0
    8.3285   -0.9319    0.0000 H   0  0  0  0  0  0  0  0  0  0  0  0
    8.5411   -3.1772    0.0000 H   0  0  0  0  0  0  0  0  0  0  0  0
    8.9429   -2.4874    0.0000 H   0  0  0  0  0  0  0  0  0  0  0  0
    5.6660   -3.6927    0.0000 H   0  0  0  0  0  0  0  0  0  0  0  0
    2.4643   -1.2398    0.0000 H   0  0  0  0  0  0  0  0  0  0  0  0
    3.9132   -0.4181    0.0000 H   0  0  0  0  0  0  0  0  0  0  0  0
    8.6542    0.2594    0.0000 H   0  0  0  0  0  0  0  0  0  0  0  0
    1.9976   -1.9774    0.0000 H   0  0  0  0  0  0  0  0  0  0  0  0
    1.3800   -2.5997    0.0000 H   0  0  0  0  0  0  0  0  0  0  0  0
    2.0024   -3.2174    0.0000 H   0  0  0  0  0  0  0  0  0  0  0  0
    1.9652   -3.1535    0.0000 H   0  0  0  0  0  0  0  0  0  0  0  0
    2.1954   -3.9996    0.0000 H   0  0  0  0  0  0  0  0  0  0  0  0
    3.0415   -3.7694    0.0000 H   0  0  0  0  0  0  0  0  0  0  0  0
   11.4663   -1.3498    0.0000 H   0  0  0  0  0  0  0  0  0  0  0  0
    9.8382    2.0366    0.0000 H   0  0  0  0  0  0  0  0  0  0  0  0
    9.4424    1.3448    0.0000 H   0  0  0  0  0  0  0  0  0  0  0  0
    5.1291    0.2373    0.0000 H   0  0  0  0  0  0  0  0  0  0  0  0
   11.4548    1.6502    0.0000 H   0  0  0  0  0  0  0  0  0  0  0  0
   10.6061   -2.8531    0.0000 H   0  0  0  0  0  0  0  0  0  0  0  0
   12.3266    0.1535    0.0000 H   0  0  0  0  0  0  0  0  0  0  0  0
   12.0889    2.9257    0.0000 H   0  0  0  0  0  0  0  0  0  0  0  0
   10.3528    3.9929    0.0000 H   0  0  0  0  0  0  0  0  0  0  0  0
    9.5067    3.7627    0.0000 H   0  0  0  0  0  0  0  0  0  0  0  0
    9.7369    2.9166    0.0000 H   0  0  0  0  0  0  0  0  0  0  0  0
   12.3126    3.7735    0.0000 H   0  0  0  0  0  0  0  0  0  0  0  0
   11.4648    3.9972    0.0000 H   0  0  0  0  0  0  0  0  0  0  0  0
  1  9  1  0  0  0  0
  1 13  1  0  0  0  0
  2 11  1  0  0  0  0
  2 15  1  0  0  0  0
  3 10  2  0  0  0  0
  4 16  1  0  0  0  0
  4 48  1  0  0  0  0
  5 21  1  0  0  0  0
  5 50  1  0  0  0  0
  6 26  1  0  0  0  0
  6 51  1  0  0  0  0
  7  9  1  0  0  0  0
  7 10  1  0  0  0  0
  7 12  1  0  0  0  0
  7 32  1  0  0  0  0
  8 10  1  0  0  0  0
  8 13  2  0  0  0  0
  8 16  1  0  0  0  0
  9 33  1  0  0  0  0
  9 34  1  0  0  0  0
 11 18  1  0  0  0  0
 11 22  1  0  0  0  0
 11 23  1  0  0  0  0
 12 20  1  0  0  0  0
 12 21  2  0  0  0  0
 13 17  1  0  0  0  0
 14 15  1  0  0  0  0
 14 16  2  0  0  0  0
 14 19  1  0  0  0  0
 15 17  2  0  0  0  0
 17 35  1  0  0  0  0
 18 19  2  0  0  0  0
 18 36  1  0  0  0  0
 19 37  1  0  0  0  0
 20 24  2  0  0  0  0
 20 38  1  0  0  0  0
 21 25  1  0  0  0  0
 22 39  1  0  0  0  0
 22 40  1  0  0  0  0
 22 41  1  0  0  0  0
 23 42  1  0  0  0  0
 23 43  1  0  0  0  0
 23 44  1  0  0  0  0
 24 26  1  0  0  0  0
 24 27  1  0  0  0  0
 25 26  2  0  0  0  0
 25 45  1  0  0  0  0
 27 28  1  0  0  0  0
 27 46  1  0  0  0  0
 27 47  1  0  0  0  0
 28 29  2  0  0  0  0
 28 49  1  0  0  0  0
 29 30  1  0  0  0  0
 29 31  1  0  0  0  0
 30 52  1  0  0  0  0
 30 56  1  0  0  0  0
 30 57  1  0  0  0  0
 31 53  1  0  0  0  0
 31 54  1  0  0  0  0
 31 55  1  0  0  0  0
M  END
>  <PUBCHEM_COMPOUND_CID>
325518

>  <PUBCHEM_COMPOUND_CANONICALIZED>
1

>  <PUBCHEM_CACTVS_COMPLEXITY>
738

>  <PUBCHEM_CACTVS_HBOND_ACCEPTOR>
6

>  <PUBCHEM_CACTVS_HBOND_DONOR>
3

>  <PUBCHEM_CACTVS_ROTATABLE_BOND>
3

>  <PUBCHEM_CACTVS_SUBSKEYS>
AAADceB4OAAAAAAAAAAAAAAAAAAAAAAAAAA0YIEAAAAAAACRQAAAGgAACAAADUSgmAIyBoAABgCIAqBSAAACCAAkIAAIiAEGCMgMJzaGNRqCeWCl4BUIuQfK7PzOoAACCAAIAABAAAQQABAAAAAAAAAAAA==

>  <PUBCHEM_IUPAC_OPENEYE_NAME>
7-[2,4-dihydroxy-5-(3-methylbut-2-enyl)phenyl]-5-hydroxy-2,2-dimethyl-7,8-dihydropyrano[3,2-g]chromen-6-one

>  <PUBCHEM_IUPAC_CAS_NAME>
7-[2,4-dihydroxy-5-(3-methylbut-2-enyl)phenyl]-5-hydroxy-2,2-dimethyl-7,8-dihydropyrano[3,2-g][1]benzopyran-6-one

>  <PUBCHEM_IUPAC_NAME>
7-[2,4-dihydroxy-5-(3-methylbut-2-enyl)phenyl]-5-hydroxy-2,2-dimethyl-7,8-dihydropyrano[3,2-g]chromen-6-one

>  <PUBCHEM_IUPAC_SYSTEMATIC_NAME>
2,2-dimethyl-7-[5-(3-methylbut-2-enyl)-2,4-bis(oxidanyl)phenyl]-5-oxidanyl-7,8-dihydropyrano[3,2-g]chromen-6-one

>  <PUBCHEM_IUPAC_TRADITIONAL_NAME>
7-[2,4-dihydroxy-5-(3-methylbut-2-enyl)phenyl]-5-hydroxy-2,2-dimethyl-7,8-dihydropyrano[3,2-g]chromen-6-one

>  <PUBCHEM_IUPAC_INCHI>
InChI=1S/C25H26O6/c1-13(2)5-6-14-9-16(19(27)10-18(14)26)17-12-30-21-11-20-15(7-8-25(3,4)31-20)23(28)22(21)24(17)29/h5,7-11,17,26-28H,6,12H2,1-4H3

>  <PUBCHEM_IUPAC_INCHIKEY>
BAKSOIVZFARRJC-UHFFFAOYSA-N

>  <PUBCHEM_XLOGP3_AA>
5.4

>  <PUBCHEM_EXACT_MASS>
422.173

>  <PUBCHEM_MOLECULAR_FORMULA>
C25H26O6

>  <PUBCHEM_MOLECULAR_WEIGHT>
422.477

>  <PUBCHEM_OPENEYE_CAN_SMILES>
CC(=CCC1=C(C=C(C(=C1)C2COC3=C(C2=O)C(=C4C=CC(OC4=C3)(C)C)O)O)O)C

>  <PUBCHEM_OPENEYE_ISO_SMILES>
CC(=CCC1=C(C=C(C(=C1)C2COC3=C(C2=O)C(=C4C=CC(OC4=C3)(C)C)O)O)O)C

>  <PUBCHEM_CACTVS_TPSA>
96.2

>  <PUBCHEM_MONOISOTOPIC_WEIGHT>
422.173

>  <PUBCHEM_TOTAL_CHARGE>
0

>  <PUBCHEM_HEAVY_ATOM_COUNT>
31

>  <PUBCHEM_ATOM_DEF_STEREO_COUNT>
0

>  <PUBCHEM_ATOM_UDEF_STEREO_COUNT>
1

>  <PUBCHEM_BOND_DEF_STEREO_COUNT>
0

>  <PUBCHEM_BOND_UDEF_STEREO_COUNT>
0

>  <PUBCHEM_ISOTOPIC_ATOM_COUNT>
0

>  <PUBCHEM_COMPONENT_COUNT>
1

>  <PUBCHEM_CACTVS_TAUTO_COUNT>
106

>  <PUBCHEM_COORDINATE_TYPE>
1
5
255

>  <PUBCHEM_BONDANNOTATIONS>
12  20  8
12  21  8
13  17  8
14  15  8
14  16  8
15  17  8
20  24  8
21  25  8
24  26  8
25  26  8
7  12  3
8  13  8
8  16  8

$$$$
