3320869
 OpenBabel06101807152D

 87 90  0  0  1  0  0  0  0  0999 V2000
   11.3312   -0.4587    0.0000 O   0  0  0  0  0  0  0  0  0  0  0  0
   10.3312   -1.4587    0.0000 O   0  0  0  0  0  0  0  0  0  0  0  0
    8.5991   -1.4587    0.0000 O   0  0  0  0  0  0  0  0  0  0  0  0
    9.0711    0.8014    0.0000 O   0  0  0  0  0  0  0  0  0  0  0  0
   12.7991    1.7795    0.0000 O   0  0  0  0  0  0  0  0  0  0  0  0
   10.8312    2.0801    0.0000 O   0  0  0  0  0  0  0  0  0  0  0  0
    6.0010   -1.9587    0.0000 O   0  0  0  0  0  0  0  0  0  0  0  0
   14.4934    1.4194    0.0000 O   0  0  0  0  0  0  0  0  0  0  0  0
   10.3312   -3.4587    0.0000 O   0  0  0  0  0  0  0  0  0  0  0  0
    8.5991   -4.4587    0.0000 O   0  0  0  0  0  0  0  0  0  0  0  0
    6.8671   -3.4587    0.0000 O   0  0  0  0  0  0  0  0  0  0  0  0
    4.2690   -1.9587    0.0000 O   0  0  0  0  0  0  0  0  0  0  0  0
    8.6370   -0.0986    0.0000 O   0  0  0  0  0  0  0  0  0  0  0  0
   13.2150    3.7358    0.0000 O   0  0  0  0  0  0  0  0  0  0  0  0
   15.1171    4.3538    0.0000 O   0  0  0  0  0  0  0  0  0  0  0  0
   16.6034    3.0156    0.0000 O   0  0  0  0  0  0  0  0  0  0  0  0
    6.0010    0.0413    0.0000 O   0  0  0  0  0  0  0  0  0  0  0  0
    4.2690    1.0413    0.0000 O   0  0  0  0  0  0  0  0  0  0  0  0
    2.5369    0.0413    0.0000 O   0  0  0  0  0  0  0  0  0  0  0  0
   15.9796    0.0811    0.0000 O   0  0  0  0  0  0  0  0  0  0  0  0
    2.5369   -2.9587    0.0000 O   0  0  0  0  0  0  0  0  0  0  0  0
   10.3312   -0.4587    0.0000 C   0  0  3  0  0  0  0  0  0  0  0  0
   10.0221    0.4924    0.0000 C   0  0  3  0  0  0  0  0  0  0  0  0
   10.8312    1.0801    0.0000 C   0  0  3  0  0  0  0  0  0  0  0  0
   11.6402    0.4924    0.0000 C   0  0  3  0  0  0  0  0  0  0  0  0
    9.4651   -1.9587    0.0000 C   0  0  3  0  0  0  0  0  0  0  0  0
    9.4651   -2.9587    0.0000 C   0  0  3  0  0  0  0  0  0  0  0  0
    7.7331   -1.9587    0.0000 C   0  0  3  0  0  0  0  0  0  0  0  0
    8.5991   -3.4587    0.0000 C   0  0  3  0  0  0  0  0  0  0  0  0
    7.7331   -2.9587    0.0000 C   0  0  3  0  0  0  0  0  0  0  0  0
   12.5912    0.8014    0.0000 C   0  0  0  0  0  0  0  0  0  0  0  0
    9.3801   -0.7677    0.0000 C   0  0  0  0  0  0  0  0  0  0  0  0
    6.8671   -1.4587    0.0000 C   0  0  0  0  0  0  0  0  0  0  0  0
   13.7502    2.0885    0.0000 C   0  0  3  0  0  0  0  0  0  0  0  0
   13.9581    3.0667    0.0000 C   0  0  3  0  0  0  0  0  0  0  0  0
   14.9092    3.3757    0.0000 C   0  0  3  0  0  0  0  0  0  0  0  0
    5.1350   -1.4587    0.0000 C   0  0  3  0  0  0  0  0  0  0  0  0
   15.6523    2.7066    0.0000 C   0  0  3  0  0  0  0  0  0  0  0  0
    5.1350   -0.4587    0.0000 C   0  0  3  0  0  0  0  0  0  0  0  0
   15.4444    1.7284    0.0000 C   0  0  3  0  0  0  0  0  0  0  0  0
    4.2690    0.0413    0.0000 C   0  0  3  0  0  0  0  0  0  0  0  0
    3.4030   -0.4587    0.0000 C   0  0  3  0  0  0  0  0  0  0  0  0
    3.4030   -1.4587    0.0000 C   0  0  3  0  0  0  0  0  0  0  0  0
   16.1876    1.0593    0.0000 C   0  0  0  0  0  0  0  0  0  0  0  0
    2.5369   -1.9587    0.0000 C   0  0  0  0  0  0  0  0  0  0  0  0
    9.5837    0.0539    0.0000 H   0  0  0  0  0  0  0  0  0  0  0  0
   10.2787    1.3616    0.0000 H   0  0  0  0  0  0  0  0  0  0  0  0
   12.0786    0.0539    0.0000 H   0  0  0  0  0  0  0  0  0  0  0  0
   10.0021   -2.2687    0.0000 H   0  0  0  0  0  0  0  0  0  0  0  0
    9.4651   -3.5787    0.0000 H   0  0  0  0  0  0  0  0  0  0  0  0
    7.7331   -1.3387    0.0000 H   0  0  0  0  0  0  0  0  0  0  0  0
    8.0622   -3.7687    0.0000 H   0  0  0  0  0  0  0  0  0  0  0  0
    7.1962   -2.6487    0.0000 H   0  0  0  0  0  0  0  0  0  0  0  0
   12.6775    0.1874    0.0000 H   0  0  0  0  0  0  0  0  0  0  0  0
   13.2109    0.7797    0.0000 H   0  0  0  0  0  0  0  0  0  0  0  0
    8.8915   -1.1494    0.0000 H   0  0  0  0  0  0  0  0  0  0  0  0
    9.6712   -1.3152    0.0000 H   0  0  0  0  0  0  0  0  0  0  0  0
    7.2656   -0.9838    0.0000 H   0  0  0  0  0  0  0  0  0  0  0  0
    6.4685   -0.9838    0.0000 H   0  0  0  0  0  0  0  0  0  0  0  0
   13.6213    1.4821    0.0000 H   0  0  0  0  0  0  0  0  0  0  0  0
   13.3685    2.8751    0.0000 H   0  0  0  0  0  0  0  0  0  0  0  0
   14.4484    3.7906    0.0000 H   0  0  0  0  0  0  0  0  0  0  0  0
    8.9422    1.4078    0.0000 H   0  0  0  0  0  0  0  0  0  0  0  0
    5.1350   -2.0787    0.0000 H   0  0  0  0  0  0  0  0  0  0  0  0
   15.7812    3.3130    0.0000 H   0  0  0  0  0  0  0  0  0  0  0  0
   10.2942    2.3901    0.0000 H   0  0  0  0  0  0  0  0  0  0  0  0
    5.1350    0.1613    0.0000 H   0  0  0  0  0  0  0  0  0  0  0  0
   15.3155    1.1220    0.0000 H   0  0  0  0  0  0  0  0  0  0  0  0
    3.7320    0.3513    0.0000 H   0  0  0  0  0  0  0  0  0  0  0  0
    2.8660   -0.7687    0.0000 H   0  0  0  0  0  0  0  0  0  0  0  0
    3.4030   -2.0787    0.0000 H   0  0  0  0  0  0  0  0  0  0  0  0
   10.3312   -4.0787    0.0000 H   0  0  0  0  0  0  0  0  0  0  0  0
    8.0622   -4.7687    0.0000 H   0  0  0  0  0  0  0  0  0  0  0  0
    6.8671   -4.0787    0.0000 H   0  0  0  0  0  0  0  0  0  0  0  0
    8.0473   -0.2902    0.0000 H   0  0  0  0  0  0  0  0  0  0  0  0
   16.7624    0.8270    0.0000 H   0  0  0  0  0  0  0  0  0  0  0  0
   16.5161    1.5851    0.0000 H   0  0  0  0  0  0  0  0  0  0  0  0
    2.3249   -1.3761    0.0000 H   0  0  0  0  0  0  0  0  0  0  0  0
    1.9264   -2.0664    0.0000 H   0  0  0  0  0  0  0  0  0  0  0  0
   13.3439    4.3423    0.0000 H   0  0  0  0  0  0  0  0  0  0  0  0
   14.6563    4.7687    0.0000 H   0  0  0  0  0  0  0  0  0  0  0  0
   16.7323    3.6220    0.0000 H   0  0  0  0  0  0  0  0  0  0  0  0
    6.5380   -0.2687    0.0000 H   0  0  0  0  0  0  0  0  0  0  0  0
    3.7320    1.3513    0.0000 H   0  0  0  0  0  0  0  0  0  0  0  0
    2.0000   -0.2687    0.0000 H   0  0  0  0  0  0  0  0  0  0  0  0
   16.4404   -0.3337    0.0000 H   0  0  0  0  0  0  0  0  0  0  0  0
    2.0000   -3.2687    0.0000 H   0  0  0  0  0  0  0  0  0  0  0  0
  1 22  1  0  0  0  0
  1 25  1  0  0  0  0
  2 22  1  0  0  0  0
  2 26  1  0  0  0  0
  3 26  1  0  0  0  0
  3 28  1  0  0  0  0
  4 23  1  0  0  0  0
  4 63  1  0  0  0  0
  5 31  1  0  0  0  0
  5 34  1  0  0  0  0
  6 24  1  0  0  0  0
  6 66  1  0  0  0  0
  7 33  1  0  0  0  0
  7 37  1  0  0  0  0
  8 34  1  0  0  0  0
  8 40  1  0  0  0  0
  9 27  1  0  0  0  0
  9 72  1  0  0  0  0
 10 29  1  0  0  0  0
 10 73  1  0  0  0  0
 11 30  1  0  0  0  0
 11 74  1  0  0  0  0
 12 37  1  0  0  0  0
 12 43  1  0  0  0  0
 13 32  1  0  0  0  0
 13 75  1  0  0  0  0
 14 35  1  0  0  0  0
 14 80  1  0  0  0  0
 15 36  1  0  0  0  0
 15 81  1  0  0  0  0
 16 38  1  0  0  0  0
 16 82  1  0  0  0  0
 17 39  1  0  0  0  0
 17 83  1  0  0  0  0
 18 41  1  0  0  0  0
 18 84  1  0  0  0  0
 19 42  1  0  0  0  0
 19 85  1  0  0  0  0
 20 44  1  0  0  0  0
 20 86  1  0  0  0  0
 21 45  1  0  0  0  0
 21 87  1  0  0  0  0
 22 23  1  0  0  0  0
 22 32  1  0  0  0  0
 23 24  1  0  0  0  0
 23 46  1  0  0  0  0
 24 25  1  0  0  0  0
 24 47  1  0  0  0  0
 25 31  1  0  0  0  0
 25 48  1  0  0  0  0
 26 27  1  0  0  0  0
 26 49  1  0  0  0  0
 27 29  1  0  0  0  0
 27 50  1  0  0  0  0
 28 30  1  0  0  0  0
 28 33  1  0  0  0  0
 28 51  1  0  0  0  0
 29 30  1  0  0  0  0
 29 52  1  0  0  0  0
 30 53  1  0  0  0  0
 31 54  1  0  0  0  0
 31 55  1  0  0  0  0
 32 56  1  0  0  0  0
 32 57  1  0  0  0  0
 33 58  1  0  0  0  0
 33 59  1  0  0  0  0
 34 35  1  0  0  0  0
 34 60  1  0  0  0  0
 35 36  1  0  0  0  0
 35 61  1  0  0  0  0
 36 38  1  0  0  0  0
 36 62  1  0  0  0  0
 37 39  1  0  0  0  0
 37 64  1  0  0  0  0
 38 40  1  0  0  0  0
 38 65  1  0  0  0  0
 39 41  1  0  0  0  0
 39 67  1  0  0  0  0
 40 44  1  0  0  0  0
 40 68  1  0  0  0  0
 41 42  1  0  0  0  0
 41 69  1  0  0  0  0
 42 43  1  0  0  0  0
 42 70  1  0  0  0  0
 43 45  1  0  0  0  0
 43 71  1  0  0  0  0
 44 76  1  0  0  0  0
 44 77  1  0  0  0  0
 45 78  1  0  0  0  0
 45 79  1  0  0  0  0
M  END
>  <PUBCHEM_COMPOUND_CID>
3320869

>  <PUBCHEM_COMPOUND_CANONICALIZED>
1

>  <PUBCHEM_CACTVS_COMPLEXITY>
933

>  <PUBCHEM_CACTVS_HBOND_ACCEPTOR>
21

>  <PUBCHEM_CACTVS_HBOND_DONOR>
14

>  <PUBCHEM_CACTVS_ROTATABLE_BOND>
11

>  <PUBCHEM_CACTVS_SUBSKEYS>
AAADcfB4PgAAAAAAAAAAAAAAAAAAASAAAAAkSJAAAAAAAAAAAAAAGgAACAAACBSwgAMACAAABgAAAAAAAAAAAAAAAAAAAAAAAAAREAIAAAAiQAAFAAAHAAHAYAwAAAAAAAAAAAAAAAAAAAAAAAAAAAAAAA==

>  <PUBCHEM_IUPAC_OPENEYE_NAME>
2-[[6-[3,4-dihydroxy-2-(hydroxymethyl)-5-[[3,4,5-trihydroxy-6-(hydroxymethyl)tetrahydropyran-2-yl]oxymethyl]tetrahydrofuran-2-yl]oxy-3,4,5-trihydroxy-tetrahydropyran-2-yl]methoxy]-6-(hydroxymethyl)tetrahydropyran-3,4,5-triol

>  <PUBCHEM_IUPAC_CAS_NAME>
2-[[6-[[3,4-dihydroxy-2-(hydroxymethyl)-5-[[3,4,5-trihydroxy-6-(hydroxymethyl)-2-oxanyl]oxymethyl]-2-oxolanyl]oxy]-3,4,5-trihydroxy-2-oxanyl]methoxy]-6-(hydroxymethyl)oxane-3,4,5-triol

>  <PUBCHEM_IUPAC_NAME>
2-[[6-[3,4-dihydroxy-2-(hydroxymethyl)-5-[[3,4,5-trihydroxy-6-(hydroxymethyl)oxan-2-yl]oxymethyl]oxolan-2-yl]oxy-3,4,5-trihydroxyoxan-2-yl]methoxy]-6-(hydroxymethyl)oxane-3,4,5-triol

>  <PUBCHEM_IUPAC_SYSTEMATIC_NAME>
2-(hydroxymethyl)-6-[[6-[2-(hydroxymethyl)-5-[[6-(hydroxymethyl)-3,4,5-tris(oxidanyl)oxan-2-yl]oxymethyl]-3,4-bis(oxidanyl)oxolan-2-yl]oxy-3,4,5-tris(oxidanyl)oxan-2-yl]methoxy]oxane-3,4,5-triol

>  <PUBCHEM_IUPAC_TRADITIONAL_NAME>
2-[[6-[3,4-dihydroxy-2-methylol-5-[(3,4,5-trihydroxy-6-methylol-tetrahydropyran-2-yl)oxymethyl]tetrahydrofuran-2-yl]oxy-3,4,5-trihydroxy-tetrahydropyran-2-yl]methoxy]-6-methylol-tetrahydropyran-3,4,5-triol

>  <PUBCHEM_IUPAC_INCHI>
InChI=1S/C24H42O21/c25-1-6-10(28)14(32)17(35)21(41-6)39-3-8-12(30)16(34)19(37)23(43-8)45-24(5-27)20(38)13(31)9(44-24)4-40-22-18(36)15(33)11(29)7(2-26)42-22/h6-23,25-38H,1-5H2

>  <PUBCHEM_IUPAC_INCHIKEY>
VGKIRQHUZIZMIP-UHFFFAOYSA-N

>  <PUBCHEM_XLOGP3>
-8

>  <PUBCHEM_EXACT_MASS>
666.222

>  <PUBCHEM_MOLECULAR_FORMULA>
C24H42O21

>  <PUBCHEM_MOLECULAR_WEIGHT>
666.579

>  <PUBCHEM_OPENEYE_CAN_SMILES>
C(C1C(C(C(C(O1)OCC2C(C(C(C(O2)OC3(C(C(C(O3)COC4C(C(C(C(O4)CO)O)O)O)O)O)CO)O)O)O)O)O)O)O

>  <PUBCHEM_OPENEYE_ISO_SMILES>
C(C1C(C(C(C(O1)OCC2C(C(C(C(O2)OC3(C(C(C(O3)COC4C(C(C(C(O4)CO)O)O)O)O)O)CO)O)O)O)O)O)O)O

>  <PUBCHEM_CACTVS_TPSA>
348

>  <PUBCHEM_MONOISOTOPIC_WEIGHT>
666.222

>  <PUBCHEM_TOTAL_CHARGE>
0

>  <PUBCHEM_HEAVY_ATOM_COUNT>
45

>  <PUBCHEM_ATOM_DEF_STEREO_COUNT>
0

>  <PUBCHEM_ATOM_UDEF_STEREO_COUNT>
19

>  <PUBCHEM_BOND_DEF_STEREO_COUNT>
0

>  <PUBCHEM_BOND_UDEF_STEREO_COUNT>
0

>  <PUBCHEM_ISOTOPIC_ATOM_COUNT>
0

>  <PUBCHEM_COMPONENT_COUNT>
1

>  <PUBCHEM_CACTVS_TAUTO_COUNT>
1

>  <PUBCHEM_COORDINATE_TYPE>
1
5
255

>  <PUBCHEM_BONDANNOTATIONS>
29  10  3
30  11  3
35  14  3
36  15  3
38  16  3
39  17  3
41  18  3
42  19  3
26  2  3
22  32  3
25  31  3
28  33  3
23  4  3
40  44  3
43  45  3
34  5  3
24  6  3
37  7  3
27  9  3

$$$$
