332208
 OpenBabel06101807152D

 39 41  0  0  0  0  0  0  0  0999 V2000
    4.6660   -0.0000    0.0000 O   0  0  0  0  0  0  0  0  0  0  0  0
    8.9962    0.5000    0.0000 O   0  0  0  0  0  0  0  0  0  0  0  0
    7.2641   -2.5000    0.0000 O   0  0  0  0  0  0  0  0  0  0  0  0
    8.9962   -1.5000    0.0000 O   0  0  0  0  0  0  0  0  0  0  0  0
    4.6660    3.0000    0.0000 O   0  0  0  0  0  0  0  0  0  0  0  0
    6.3981   -0.0000    0.0000 C   0  0  0  0  0  0  0  0  0  0  0  0
    5.5321    0.5000    0.0000 C   0  0  0  0  0  0  0  0  0  0  0  0
    3.8000    1.5000    0.0000 C   0  0  0  0  0  0  0  0  0  0  0  0
    3.8000    0.5000    0.0000 C   0  0  0  0  0  0  0  0  0  0  0  0
    6.3981   -1.0000    0.0000 C   0  0  0  0  0  0  0  0  0  0  0  0
    7.2641    0.5000    0.0000 C   0  0  0  0  0  0  0  0  0  0  0  0
    8.1301   -0.0000    0.0000 C   0  0  0  0  0  0  0  0  0  0  0  0
    7.2641   -1.5000    0.0000 C   0  0  0  0  0  0  0  0  0  0  0  0
    8.1301   -1.0000    0.0000 C   0  0  0  0  0  0  0  0  0  0  0  0
    5.5321    1.5000    0.0000 C   0  0  0  0  0  0  0  0  0  0  0  0
    4.6660    2.0000    0.0000 C   0  0  0  0  0  0  0  0  0  0  0  0
    2.9061    2.0347    0.0000 C   0  0  0  0  0  0  0  0  0  0  0  0
    2.9061   -0.0347    0.0000 C   0  0  0  0  0  0  0  0  0  0  0  0
    2.0000    1.5208    0.0000 C   0  0  0  0  0  0  0  0  0  0  0  0
    2.0000    0.4792    0.0000 C   0  0  0  0  0  0  0  0  0  0  0  0
    8.9962    1.5000    0.0000 C   0  0  0  0  0  0  0  0  0  0  0  0
    6.3981   -3.0000    0.0000 C   0  0  0  0  0  0  0  0  0  0  0  0
    9.8622   -1.0000    0.0000 C   0  0  0  0  0  0  0  0  0  0  0  0
    5.8612   -1.3100    0.0000 H   0  0  0  0  0  0  0  0  0  0  0  0
    7.2641    1.1200    0.0000 H   0  0  0  0  0  0  0  0  0  0  0  0
    6.0690    1.8100    0.0000 H   0  0  0  0  0  0  0  0  0  0  0  0
    2.9132    2.6546    0.0000 H   0  0  0  0  0  0  0  0  0  0  0  0
    2.9132   -0.6546    0.0000 H   0  0  0  0  0  0  0  0  0  0  0  0
    1.4643    1.8329    0.0000 H   0  0  0  0  0  0  0  0  0  0  0  0
    1.4643    0.1671    0.0000 H   0  0  0  0  0  0  0  0  0  0  0  0
    9.6162    1.5000    0.0000 H   0  0  0  0  0  0  0  0  0  0  0  0
    8.9962    2.1200    0.0000 H   0  0  0  0  0  0  0  0  0  0  0  0
    8.3762    1.5000    0.0000 H   0  0  0  0  0  0  0  0  0  0  0  0
    6.0881   -2.4631    0.0000 H   0  0  0  0  0  0  0  0  0  0  0  0
    5.8612   -3.3100    0.0000 H   0  0  0  0  0  0  0  0  0  0  0  0
    6.7081   -3.5369    0.0000 H   0  0  0  0  0  0  0  0  0  0  0  0
   10.1722   -1.5369    0.0000 H   0  0  0  0  0  0  0  0  0  0  0  0
   10.3991   -0.6900    0.0000 H   0  0  0  0  0  0  0  0  0  0  0  0
    9.5522   -0.4631    0.0000 H   0  0  0  0  0  0  0  0  0  0  0  0
  1  7  1  0  0  0  0
  1  9  1  0  0  0  0
  2 12  1  0  0  0  0
  2 21  1  0  0  0  0
  3 13  1  0  0  0  0
  3 22  1  0  0  0  0
  4 14  1  0  0  0  0
  4 23  1  0  0  0  0
  5 16  2  0  0  0  0
  6  7  1  0  0  0  0
  6 10  2  0  0  0  0
  6 11  1  0  0  0  0
  7 15  2  0  0  0  0
  8  9  1  0  0  0  0
  8 16  1  0  0  0  0
  8 17  2  0  0  0  0
  9 18  2  0  0  0  0
 10 13  1  0  0  0  0
 10 24  1  0  0  0  0
 11 12  2  0  0  0  0
 11 25  1  0  0  0  0
 12 14  1  0  0  0  0
 13 14  2  0  0  0  0
 15 16  1  0  0  0  0
 15 26  1  0  0  0  0
 17 19  1  0  0  0  0
 17 27  1  0  0  0  0
 18 20  1  0  0  0  0
 18 28  1  0  0  0  0
 19 20  2  0  0  0  0
 19 29  1  0  0  0  0
 20 30  1  0  0  0  0
 21 31  1  0  0  0  0
 21 32  1  0  0  0  0
 21 33  1  0  0  0  0
 22 34  1  0  0  0  0
 22 35  1  0  0  0  0
 22 36  1  0  0  0  0
 23 37  1  0  0  0  0
 23 38  1  0  0  0  0
 23 39  1  0  0  0  0
M  END
>  <PUBCHEM_COMPOUND_CID>
332208

>  <PUBCHEM_COMPOUND_CANONICALIZED>
1

>  <PUBCHEM_CACTVS_COMPLEXITY>
446

>  <PUBCHEM_CACTVS_HBOND_ACCEPTOR>
5

>  <PUBCHEM_CACTVS_HBOND_DONOR>
0

>  <PUBCHEM_CACTVS_ROTATABLE_BOND>
4

>  <PUBCHEM_CACTVS_SUBSKEYS>
AAADceB4OAAAAAAAAAAAAAAAAAAAAAAAAAAwYIAAAAAAAACBQAAAGgAAAAAADASAmAIyBoAABACIAqBSAAACCAAkIAAIiAEGiMgNJzaENRqCOWKl4BUKqYfI6LyOIAABCAAIQABAAAIQABCAAAAAAAAAAA==

>  <PUBCHEM_IUPAC_OPENEYE_NAME>
2-(3,4,5-trimethoxyphenyl)chromen-4-one

>  <PUBCHEM_IUPAC_CAS_NAME>
2-(3,4,5-trimethoxyphenyl)-1-benzopyran-4-one

>  <PUBCHEM_IUPAC_NAME>
2-(3,4,5-trimethoxyphenyl)chromen-4-one

>  <PUBCHEM_IUPAC_SYSTEMATIC_NAME>
2-(3,4,5-trimethoxyphenyl)chromen-4-one

>  <PUBCHEM_IUPAC_TRADITIONAL_NAME>
2-(3,4,5-trimethoxyphenyl)chromone

>  <PUBCHEM_IUPAC_INCHI>
InChI=1S/C18H16O5/c1-20-16-8-11(9-17(21-2)18(16)22-3)15-10-13(19)12-6-4-5-7-14(12)23-15/h4-10H,1-3H3

>  <PUBCHEM_IUPAC_INCHIKEY>
QCXAJQVDUHKDEL-UHFFFAOYSA-N

>  <PUBCHEM_XLOGP3>
3.5

>  <PUBCHEM_EXACT_MASS>
312.1

>  <PUBCHEM_MOLECULAR_FORMULA>
C18H16O5

>  <PUBCHEM_MOLECULAR_WEIGHT>
312.321

>  <PUBCHEM_OPENEYE_CAN_SMILES>
COC1=CC(=CC(=C1OC)OC)C2=CC(=O)C3=CC=CC=C3O2

>  <PUBCHEM_OPENEYE_ISO_SMILES>
COC1=CC(=CC(=C1OC)OC)C2=CC(=O)C3=CC=CC=C3O2

>  <PUBCHEM_CACTVS_TPSA>
54

>  <PUBCHEM_MONOISOTOPIC_WEIGHT>
312.1

>  <PUBCHEM_TOTAL_CHARGE>
0

>  <PUBCHEM_HEAVY_ATOM_COUNT>
23

>  <PUBCHEM_ATOM_DEF_STEREO_COUNT>
0

>  <PUBCHEM_ATOM_UDEF_STEREO_COUNT>
0

>  <PUBCHEM_BOND_DEF_STEREO_COUNT>
0

>  <PUBCHEM_BOND_UDEF_STEREO_COUNT>
0

>  <PUBCHEM_ISOTOPIC_ATOM_COUNT>
0

>  <PUBCHEM_COMPONENT_COUNT>
1

>  <PUBCHEM_CACTVS_TAUTO_COUNT>
1

>  <PUBCHEM_COORDINATE_TYPE>
1
5
255

>  <PUBCHEM_BONDANNOTATIONS>
1  7  8
1  9  8
10  13  8
11  12  8
12  14  8
13  14  8
15  16  8
17  19  8
18  20  8
19  20  8
6  10  8
6  11  8
7  15  8
8  16  8
8  17  8
8  9  8
9  18  8

$$$$
