332530
 OpenBabel06101807152D

 39 41  0  0  0  0  0  0  0  0999 V2000
    5.5301   -1.2602    0.0000 O   0  0  0  0  0  0  0  0  0  0  0  0
    7.2785    1.7744    0.0000 O   0  0  0  0  0  0  0  0  0  0  0  0
    2.0000    0.7639    0.0000 O   0  0  0  0  0  0  0  0  0  0  0  0
    2.0000   -1.2844    0.0000 O   0  0  0  0  0  0  0  0  0  0  0  0
    5.5301    1.7398    0.0000 O   0  0  0  0  0  0  0  0  0  0  0  0
    9.0602   -1.2844    0.0000 O   0  0  0  0  0  0  0  0  0  0  0  0
    6.3961    0.2398    0.0000 C   0  0  0  0  0  0  0  0  0  0  0  0
    4.6641    0.2398    0.0000 C   0  0  0  0  0  0  0  0  0  0  0  0
    6.3961   -0.7602    0.0000 C   0  0  0  0  0  0  0  0  0  0  0  0
    4.6641   -0.7602    0.0000 C   0  0  0  0  0  0  0  0  0  0  0  0
    5.5301    0.7398    0.0000 C   0  0  0  0  0  0  0  0  0  0  0  0
    7.2901    0.7744    0.0000 C   0  0  0  0  0  0  0  0  0  0  0  0
    3.7702    0.7744    0.0000 C   0  0  0  0  0  0  0  0  0  0  0  0
    3.7702   -1.2949    0.0000 C   0  0  0  0  0  0  0  0  0  0  0  0
    7.2901   -1.2949    0.0000 C   0  0  0  0  0  0  0  0  0  0  0  0
    2.8641    0.2606    0.0000 C   0  0  0  0  0  0  0  0  0  0  0  0
    2.8641   -0.7810    0.0000 C   0  0  0  0  0  0  0  0  0  0  0  0
    8.1962   -0.7810    0.0000 C   0  0  0  0  0  0  0  0  0  0  0  0
    8.1962    0.2606    0.0000 C   0  0  0  0  0  0  0  0  0  0  0  0
    8.1387    2.2844    0.0000 C   0  0  0  0  0  0  0  0  0  0  0  0
    2.0038    1.7639    0.0000 C   0  0  0  0  0  0  0  0  0  0  0  0
    2.0038   -2.2844    0.0000 C   0  0  0  0  0  0  0  0  0  0  0  0
    9.9282   -0.7877    0.0000 C   0  0  0  0  0  0  0  0  0  0  0  0
    3.7773    1.3944    0.0000 H   0  0  0  0  0  0  0  0  0  0  0  0
    3.7773   -1.9148    0.0000 H   0  0  0  0  0  0  0  0  0  0  0  0
    7.2829   -1.9148    0.0000 H   0  0  0  0  0  0  0  0  0  0  0  0
    8.7319    0.5727    0.0000 H   0  0  0  0  0  0  0  0  0  0  0  0
    8.4549    1.7510    0.0000 H   0  0  0  0  0  0  0  0  0  0  0  0
    8.6720    2.6006    0.0000 H   0  0  0  0  0  0  0  0  0  0  0  0
    7.8225    2.8177    0.0000 H   0  0  0  0  0  0  0  0  0  0  0  0
    2.6238    1.7615    0.0000 H   0  0  0  0  0  0  0  0  0  0  0  0
    2.0062    2.3839    0.0000 H   0  0  0  0  0  0  0  0  0  0  0  0
    1.3839    1.7663    0.0000 H   0  0  0  0  0  0  0  0  0  0  0  0
    1.3839   -2.2868    0.0000 H   0  0  0  0  0  0  0  0  0  0  0  0
    2.0062   -2.9044    0.0000 H   0  0  0  0  0  0  0  0  0  0  0  0
    2.6238   -2.2820    0.0000 H   0  0  0  0  0  0  0  0  0  0  0  0
   10.2361   -1.3258    0.0000 H   0  0  0  0  0  0  0  0  0  0  0  0
   10.4663   -0.4798    0.0000 H   0  0  0  0  0  0  0  0  0  0  0  0
    9.6203   -0.2496    0.0000 H   0  0  0  0  0  0  0  0  0  0  0  0
  1  9  1  0  0  0  0
  1 10  1  0  0  0  0
  2 12  1  0  0  0  0
  2 20  1  0  0  0  0
  3 16  1  0  0  0  0
  3 21  1  0  0  0  0
  4 17  1  0  0  0  0
  4 22  1  0  0  0  0
  5 11  2  0  0  0  0
  6 18  1  0  0  0  0
  6 23  1  0  0  0  0
  7  9  2  0  0  0  0
  7 11  1  0  0  0  0
  7 12  1  0  0  0  0
  8 10  1  0  0  0  0
  8 11  1  0  0  0  0
  8 13  2  0  0  0  0
  9 15  1  0  0  0  0
 10 14  2  0  0  0  0
 12 19  2  0  0  0  0
 13 16  1  0  0  0  0
 13 24  1  0  0  0  0
 14 17  1  0  0  0  0
 14 25  1  0  0  0  0
 15 18  2  0  0  0  0
 15 26  1  0  0  0  0
 16 17  2  0  0  0  0
 18 19  1  0  0  0  0
 19 27  1  0  0  0  0
 20 28  1  0  0  0  0
 20 29  1  0  0  0  0
 20 30  1  0  0  0  0
 21 31  1  0  0  0  0
 21 32  1  0  0  0  0
 21 33  1  0  0  0  0
 22 34  1  0  0  0  0
 22 35  1  0  0  0  0
 22 36  1  0  0  0  0
 23 37  1  0  0  0  0
 23 38  1  0  0  0  0
 23 39  1  0  0  0  0
M  END
>  <PUBCHEM_COMPOUND_CID>
332530

>  <PUBCHEM_COMPOUND_CANONICALIZED>
1

>  <PUBCHEM_CACTVS_COMPLEXITY>
427

>  <PUBCHEM_CACTVS_HBOND_ACCEPTOR>
6

>  <PUBCHEM_CACTVS_HBOND_DONOR>
0

>  <PUBCHEM_CACTVS_ROTATABLE_BOND>
4

>  <PUBCHEM_CACTVS_SUBSKEYS>
AAADceB4OAAAAAAAAAAAAAAAAAAAAAAAAAA0YIAAAAAAAACRQAAAGgAAAAAADASAmAIyBoAABACIAqBSAAACCAAkIAAAiAEGiMgNJzaENRqCOWKl4BUKqYfK7PzOIQABCAAIQABCAAIQABCAAAAAAAAAAA==

>  <PUBCHEM_IUPAC_OPENEYE_NAME>
1,3,6,7-tetramethoxyxanthen-9-one

>  <PUBCHEM_IUPAC_CAS_NAME>
1,3,6,7-tetramethoxy-9-xanthenone

>  <PUBCHEM_IUPAC_NAME>
1,3,6,7-tetramethoxyxanthen-9-one

>  <PUBCHEM_IUPAC_SYSTEMATIC_NAME>
1,3,6,7-tetramethoxyxanthen-9-one

>  <PUBCHEM_IUPAC_TRADITIONAL_NAME>
1,3,6,7-tetramethoxyxanthone

>  <PUBCHEM_IUPAC_INCHI>
InChI=1S/C17H16O6/c1-19-9-5-14(22-4)16-15(6-9)23-11-8-13(21-3)12(20-2)7-10(11)17(16)18/h5-8H,1-4H3

>  <PUBCHEM_IUPAC_INCHIKEY>
SGQWQUYTTYVSBS-UHFFFAOYSA-N

>  <PUBCHEM_XLOGP3_AA>
2.8

>  <PUBCHEM_EXACT_MASS>
316.095

>  <PUBCHEM_MOLECULAR_FORMULA>
C17H16O6

>  <PUBCHEM_MOLECULAR_WEIGHT>
316.309

>  <PUBCHEM_OPENEYE_CAN_SMILES>
COC1=CC(=C2C(=C1)OC3=CC(=C(C=C3C2=O)OC)OC)OC

>  <PUBCHEM_OPENEYE_ISO_SMILES>
COC1=CC(=C2C(=C1)OC3=CC(=C(C=C3C2=O)OC)OC)OC

>  <PUBCHEM_CACTVS_TPSA>
63.2

>  <PUBCHEM_MONOISOTOPIC_WEIGHT>
316.095

>  <PUBCHEM_TOTAL_CHARGE>
0

>  <PUBCHEM_HEAVY_ATOM_COUNT>
23

>  <PUBCHEM_ATOM_DEF_STEREO_COUNT>
0

>  <PUBCHEM_ATOM_UDEF_STEREO_COUNT>
0

>  <PUBCHEM_BOND_DEF_STEREO_COUNT>
0

>  <PUBCHEM_BOND_UDEF_STEREO_COUNT>
0

>  <PUBCHEM_ISOTOPIC_ATOM_COUNT>
0

>  <PUBCHEM_COMPONENT_COUNT>
1

>  <PUBCHEM_CACTVS_TAUTO_COUNT>
1

>  <PUBCHEM_COORDINATE_TYPE>
1
5
255

>  <PUBCHEM_BONDANNOTATIONS>
1  10  8
1  9  8
10  14  8
12  19  8
13  16  8
14  17  8
15  18  8
16  17  8
18  19  8
7  11  8
7  12  8
7  9  8
8  10  8
8  11  8
8  13  8
9  15  8

$$$$
