342801
 OpenBabel06101807152D

 46 48  0  0  0  0  0  0  0  0999 V2000
    7.2901    0.5347    0.0000 O   0  0  0  0  0  0  0  0  0  0  0  0
    3.7702    0.5347    0.0000 O   0  0  0  0  0  0  0  0  0  0  0  0
    5.5301   -2.5000    0.0000 O   0  0  0  0  0  0  0  0  0  0  0  0
    2.0000    0.5242    0.0000 O   0  0  0  0  0  0  0  0  0  0  0  0
    5.5301    1.5000    0.0000 C   0  0  0  0  0  0  0  0  0  0  0  0
    5.5301    0.5000    0.0000 C   0  0  0  0  0  0  0  0  0  0  0  0
    6.3961    0.0000    0.0000 C   0  0  0  0  0  0  0  0  0  0  0  0
    8.1962    0.0208    0.0000 C   0  0  0  0  0  0  0  0  0  0  0  0
    6.3961   -1.0000    0.0000 C   0  0  0  0  0  0  0  0  0  0  0  0
    4.6641    0.0000    0.0000 C   0  0  0  0  0  0  0  0  0  0  0  0
    4.6641   -1.0000    0.0000 C   0  0  0  0  0  0  0  0  0  0  0  0
    4.5301    1.5000    0.0000 C   0  0  0  0  0  0  0  0  0  0  0  0
    6.5301    1.5000    0.0000 C   0  0  0  0  0  0  0  0  0  0  0  0
    5.5301   -1.5000    0.0000 C   0  0  0  0  0  0  0  0  0  0  0  0
    8.1962   -1.0208    0.0000 C   0  0  0  0  0  0  0  0  0  0  0  0
    7.2901   -1.5347    0.0000 C   0  0  0  0  0  0  0  0  0  0  0  0
    5.5301    2.5000    0.0000 C   0  0  0  0  0  0  0  0  0  0  0  0
    9.1962    0.0247    0.0000 C   0  0  0  0  0  0  0  0  0  0  0  0
    8.6928    0.8888    0.0000 C   0  0  0  0  0  0  0  0  0  0  0  0
    3.7702   -1.5347    0.0000 C   0  0  0  0  0  0  0  0  0  0  0  0
    2.8641   -1.0208    0.0000 C   0  0  0  0  0  0  0  0  0  0  0  0
    2.8641    0.0208    0.0000 C   0  0  0  0  0  0  0  0  0  0  0  0
    4.6641    3.0000    0.0000 C   0  0  0  0  0  0  0  0  0  0  0  0
    4.6641   -3.0000    0.0000 C   0  0  0  0  0  0  0  0  0  0  0  0
    6.5301    0.8800    0.0000 H   0  0  0  0  0  0  0  0  0  0  0  0
    7.1501    1.5000    0.0000 H   0  0  0  0  0  0  0  0  0  0  0  0
    6.5301    2.1200    0.0000 H   0  0  0  0  0  0  0  0  0  0  0  0
    4.5301    2.1200    0.0000 H   0  0  0  0  0  0  0  0  0  0  0  0
    3.9101    1.5000    0.0000 H   0  0  0  0  0  0  0  0  0  0  0  0
    4.5301    0.8800    0.0000 H   0  0  0  0  0  0  0  0  0  0  0  0
    8.7319   -1.3329    0.0000 H   0  0  0  0  0  0  0  0  0  0  0  0
    7.2829   -2.1546    0.0000 H   0  0  0  0  0  0  0  0  0  0  0  0
    6.0671    2.8100    0.0000 H   0  0  0  0  0  0  0  0  0  0  0  0
    9.2310    0.5808    0.0000 H   0  0  0  0  0  0  0  0  0  0  0  0
    9.0008    1.4269    0.0000 H   0  0  0  0  0  0  0  0  0  0  0  0
    8.1547    1.1967    0.0000 H   0  0  0  0  0  0  0  0  0  0  0  0
    9.1985   -0.5953    0.0000 H   0  0  0  0  0  0  0  0  0  0  0  0
    9.8162    0.0271    0.0000 H   0  0  0  0  0  0  0  0  0  0  0  0
    9.1938    0.6447    0.0000 H   0  0  0  0  0  0  0  0  0  0  0  0
    3.7773   -2.1546    0.0000 H   0  0  0  0  0  0  0  0  0  0  0  0
    2.3284   -1.3329    0.0000 H   0  0  0  0  0  0  0  0  0  0  0  0
    4.6641    3.6200    0.0000 H   0  0  0  0  0  0  0  0  0  0  0  0
    4.1272    2.6900    0.0000 H   0  0  0  0  0  0  0  0  0  0  0  0
    4.3541   -2.4631    0.0000 H   0  0  0  0  0  0  0  0  0  0  0  0
    4.1272   -3.3100    0.0000 H   0  0  0  0  0  0  0  0  0  0  0  0
    4.9741   -3.5369    0.0000 H   0  0  0  0  0  0  0  0  0  0  0  0
  1  7  1  0  0  0  0
  1  8  1  0  0  0  0
  2 10  1  0  0  0  0
  2 22  1  0  0  0  0
  3 14  1  0  0  0  0
  3 24  1  0  0  0  0
  4 22  2  0  0  0  0
  5  6  1  0  0  0  0
  5 12  1  0  0  0  0
  5 13  1  0  0  0  0
  5 17  1  0  0  0  0
  6  7  2  0  0  0  0
  6 10  1  0  0  0  0
  7  9  1  0  0  0  0
  8 15  1  0  0  0  0
  8 18  1  0  0  0  0
  8 19  1  0  0  0  0
  9 14  2  0  0  0  0
  9 16  1  0  0  0  0
 10 11  2  0  0  0  0
 11 14  1  0  0  0  0
 11 20  1  0  0  0  0
 12 28  1  0  0  0  0
 12 29  1  0  0  0  0
 12 30  1  0  0  0  0
 13 25  1  0  0  0  0
 13 26  1  0  0  0  0
 13 27  1  0  0  0  0
 15 16  2  0  0  0  0
 15 31  1  0  0  0  0
 16 32  1  0  0  0  0
 17 23  2  0  0  0  0
 17 33  1  0  0  0  0
 18 37  1  0  0  0  0
 18 38  1  0  0  0  0
 18 39  1  0  0  0  0
 19 34  1  0  0  0  0
 19 35  1  0  0  0  0
 19 36  1  0  0  0  0
 20 21  2  0  0  0  0
 20 40  1  0  0  0  0
 21 22  1  0  0  0  0
 21 41  1  0  0  0  0
 23 42  1  0  0  0  0
 23 43  1  0  0  0  0
 24 44  1  0  0  0  0
 24 45  1  0  0  0  0
 24 46  1  0  0  0  0
M  END
>  <PUBCHEM_COMPOUND_CID>
342801

>  <PUBCHEM_COMPOUND_CANONICALIZED>
1

>  <PUBCHEM_CACTVS_COMPLEXITY>
586

>  <PUBCHEM_CACTVS_HBOND_ACCEPTOR>
4

>  <PUBCHEM_CACTVS_HBOND_DONOR>
0

>  <PUBCHEM_CACTVS_ROTATABLE_BOND>
3

>  <PUBCHEM_CACTVS_SUBSKEYS>
AAADceB4OAAAAAAAAAAAAAAAAAAAAAAAAAAwQIAAAAAAAACBAAAAGgAAAAAADkSAmAICDoAABACIAiDSCAACCAAgIAAIiAAECMgMJyKEMBqCOiClwBUIqYeA4PwPoAACCAAIAABAAAQQABAAAAAAAAAAAA==

>  <PUBCHEM_IUPAC_OPENEYE_NAME>
10-(1,1-dimethylallyl)-5-methoxy-2,2-dimethyl-pyrano[3,2-g]chromen-8-one

>  <PUBCHEM_IUPAC_CAS_NAME>
5-methoxy-2,2-dimethyl-10-(2-methylbut-3-en-2-yl)-8-pyrano[3,2-g][1]benzopyranone

>  <PUBCHEM_IUPAC_NAME>
5-methoxy-2,2-dimethyl-10-(2-methylbut-3-en-2-yl)pyrano[3,2-g]chromen-8-one

>  <PUBCHEM_IUPAC_SYSTEMATIC_NAME>
5-methoxy-2,2-dimethyl-10-(2-methylbut-3-en-2-yl)pyrano[3,2-g]chromen-8-one

>  <PUBCHEM_IUPAC_TRADITIONAL_NAME>
10-(1,1-dimethylallyl)-5-methoxy-2,2-dimethyl-pyrano[3,2-g]chromen-8-one

>  <PUBCHEM_IUPAC_INCHI>
InChI=1S/C20H22O4/c1-7-19(2,3)15-17-12(8-9-14(21)23-17)16(22-6)13-10-11-20(4,5)24-18(13)15/h7-11H,1H2,2-6H3

>  <PUBCHEM_IUPAC_INCHIKEY>
QBFYQVZGIDUNIY-UHFFFAOYSA-N

>  <PUBCHEM_XLOGP3_AA>
4.7

>  <PUBCHEM_EXACT_MASS>
326.152

>  <PUBCHEM_MOLECULAR_FORMULA>
C20H22O4

>  <PUBCHEM_MOLECULAR_WEIGHT>
326.392

>  <PUBCHEM_OPENEYE_CAN_SMILES>
CC1(C=CC2=C(C3=C(C(=C2O1)C(C)(C)C=C)OC(=O)C=C3)OC)C

>  <PUBCHEM_OPENEYE_ISO_SMILES>
CC1(C=CC2=C(C3=C(C(=C2O1)C(C)(C)C=C)OC(=O)C=C3)OC)C

>  <PUBCHEM_CACTVS_TPSA>
44.8

>  <PUBCHEM_MONOISOTOPIC_WEIGHT>
326.152

>  <PUBCHEM_TOTAL_CHARGE>
0

>  <PUBCHEM_HEAVY_ATOM_COUNT>
24

>  <PUBCHEM_ATOM_DEF_STEREO_COUNT>
0

>  <PUBCHEM_ATOM_UDEF_STEREO_COUNT>
0

>  <PUBCHEM_BOND_DEF_STEREO_COUNT>
0

>  <PUBCHEM_BOND_UDEF_STEREO_COUNT>
0

>  <PUBCHEM_ISOTOPIC_ATOM_COUNT>
0

>  <PUBCHEM_COMPONENT_COUNT>
1

>  <PUBCHEM_CACTVS_TAUTO_COUNT>
1

>  <PUBCHEM_COORDINATE_TYPE>
1
5
255

>  <PUBCHEM_BONDANNOTATIONS>
10  11  8
11  14  8
11  20  8
2  10  8
2  22  8
20  21  8
21  22  8
6  10  8
6  7  8
7  9  8
9  14  8

$$$$
