349393
 OpenBabel06101807152D

 74 79  0  0  1  0  0  0  0  0999 V2000
   10.1703    3.6550    0.0000 O   0  0  0  0  0  0  0  0  0  0  0  0
    3.7630   -1.7242    0.0000 N   0  0  3  0  0  0  0  0  0  0  0  0
    4.8304    0.5106    0.0000 C   0  0  3  0  0  0  0  0  0  0  0  0
    5.6964    0.0106    0.0000 C   0  0  3  0  0  0  0  0  0  0  0  0
    4.0934   -0.1565    0.0000 C   0  0  3  0  0  0  0  0  0  0  0  0
    4.4985   -1.0643    0.0000 C   0  0  3  0  0  0  0  0  0  0  0  0
    6.5625    0.5106    0.0000 C   0  0  3  0  0  0  0  0  0  0  0  0
    6.5625    1.5106    0.0000 C   0  0  3  0  0  0  0  0  0  0  0  0
    5.4872   -0.9612    0.0000 C   0  0  0  0  0  0  0  0  0  0  0  0
    3.1110   -0.2632    0.0000 C   0  0  3  0  0  0  0  0  0  0  0  0
    4.8304    1.5106    0.0000 C   0  0  0  0  0  0  0  0  0  0  0  0
    7.4564    2.0452    0.0000 C   0  0  3  0  0  0  0  0  0  0  0  0
    2.9072   -1.2301    0.0000 C   0  0  3  0  0  0  0  0  0  0  0  0
    5.6964    2.0106    0.0000 C   0  0  0  0  0  0  0  0  0  0  0  0
    7.4564   -0.0241    0.0000 C   0  0  0  0  0  0  0  0  0  0  0  0
    8.3625    1.5314    0.0000 C   0  0  3  0  0  0  0  0  0  0  0  0
    3.9644    1.0106    0.0000 C   0  0  0  0  0  0  0  0  0  0  0  0
    8.3625    0.4898    0.0000 C   0  0  0  0  0  0  0  0  0  0  0  0
    7.4313    3.1300    0.0000 C   0  0  0  0  0  0  0  0  0  0  0  0
    3.7789   -2.7534    0.0000 C   0  0  0  0  0  0  0  0  0  0  0  0
    2.0079   -1.7310    0.0000 C   0  0  0  0  0  0  0  0  0  0  0  0
    2.4399    0.4782    0.0000 C   0  0  0  0  0  0  0  0  0  0  0  0
    9.3063    2.0666    0.0000 C   0  0  0  0  0  0  0  0  0  0  0  0
    6.5866    2.5386    0.0000 C   0  0  0  0  0  0  0  0  0  0  0  0
    2.8914   -3.2750    0.0000 C   0  0  3  0  0  0  0  0  0  0  0  0
    2.0000   -2.7603    0.0000 C   0  0  0  0  0  0  0  0  0  0  0  0
    8.3625    3.6869    0.0000 C   0  0  0  0  0  0  0  0  0  0  0  0
    9.3063    3.1516    0.0000 C   0  0  3  0  0  0  0  0  0  0  0  0
    2.8953   -4.2750    0.0000 C   0  0  0  0  0  0  0  0  0  0  0  0
    6.3834   -0.4899    0.0000 H   0  0  0  0  0  0  0  0  0  0  0  0
    3.7453    0.6190    0.0000 H   0  0  0  0  0  0  0  0  0  0  0  0
    4.8432   -1.8412    0.0000 H   0  0  0  0  0  0  0  0  0  0  0  0
    6.5559   -0.3394    0.0000 H   0  0  0  0  0  0  0  0  0  0  0  0
    7.3018    1.0913    0.0000 H   0  0  0  0  0  0  0  0  0  0  0  0
    5.4863   -1.5812    0.0000 H   0  0  0  0  0  0  0  0  0  0  0  0
    6.1037   -1.0273    0.0000 H   0  0  0  0  0  0  0  0  0  0  0  0
    2.2904   -0.4850    0.0000 H   0  0  0  0  0  0  0  0  0  0  0  0
    4.6184    2.0932    0.0000 H   0  0  0  0  0  0  0  0  0  0  0  0
    4.2198    1.4029    0.0000 H   0  0  0  0  0  0  0  0  0  0  0  0
    2.2230   -0.7258    0.0000 H   0  0  0  0  0  0  0  0  0  0  0  0
    6.0950    2.4855    0.0000 H   0  0  0  0  0  0  0  0  0  0  0  0
    5.2979    2.4855    0.0000 H   0  0  0  0  0  0  0  0  0  0  0  0
    7.0518   -0.4939    0.0000 H   0  0  0  0  0  0  0  0  0  0  0  0
    7.8500   -0.5031    0.0000 H   0  0  0  0  0  0  0  0  0  0  0  0
    9.0970    1.1036    0.0000 H   0  0  0  0  0  0  0  0  0  0  0  0
    4.2744    1.5475    0.0000 H   0  0  0  0  0  0  0  0  0  0  0  0
    3.4274    1.3206    0.0000 H   0  0  0  0  0  0  0  0  0  0  0  0
    3.6544    0.4737    0.0000 H   0  0  0  0  0  0  0  0  0  0  0  0
    8.5715   -0.0939    0.0000 H   0  0  0  0  0  0  0  0  0  0  0  0
    8.9733    0.5959    0.0000 H   0  0  0  0  0  0  0  0  0  0  0  0
    7.2088    3.7087    0.0000 H   0  0  0  0  0  0  0  0  0  0  0  0
    6.8231    3.0098    0.0000 H   0  0  0  0  0  0  0  0  0  0  0  0
    3.9969   -3.3338    0.0000 H   0  0  0  0  0  0  0  0  0  0  0  0
    4.3880   -2.6380    0.0000 H   0  0  0  0  0  0  0  0  0  0  0  0
    1.8034   -1.1457    0.0000 H   0  0  0  0  0  0  0  0  0  0  0  0
    1.3963   -1.8324    0.0000 H   0  0  0  0  0  0  0  0  0  0  0  0
    2.8996    0.8943    0.0000 H   0  0  0  0  0  0  0  0  0  0  0  0
    2.0239    0.9379    0.0000 H   0  0  0  0  0  0  0  0  0  0  0  0
    1.9802    0.0622    0.0000 H   0  0  0  0  0  0  0  0  0  0  0  0
    9.5153    1.4830    0.0000 H   0  0  0  0  0  0  0  0  0  0  0  0
    9.9171    2.1727    0.0000 H   0  0  0  0  0  0  0  0  0  0  0  0
    6.8924    3.0779    0.0000 H   0  0  0  0  0  0  0  0  0  0  0  0
    6.0472    2.8444    0.0000 H   0  0  0  0  0  0  0  0  0  0  0  0
    6.2807    1.9992    0.0000 H   0  0  0  0  0  0  0  0  0  0  0  0
    2.1561   -3.7014    0.0000 H   0  0  0  0  0  0  0  0  0  0  0  0
    1.3900   -2.6495    0.0000 H   0  0  0  0  0  0  0  0  0  0  0  0
    1.7864   -3.3424    0.0000 H   0  0  0  0  0  0  0  0  0  0  0  0
    8.7561    4.1659    0.0000 H   0  0  0  0  0  0  0  0  0  0  0  0
    7.9579    4.1567    0.0000 H   0  0  0  0  0  0  0  0  0  0  0  0
    9.3013    4.0016    0.0000 H   0  0  0  0  0  0  0  0  0  0  0  0
    2.2753   -4.2774    0.0000 H   0  0  0  0  0  0  0  0  0  0  0  0
    2.8977   -4.8950    0.0000 H   0  0  0  0  0  0  0  0  0  0  0  0
    3.5153   -4.2726    0.0000 H   0  0  0  0  0  0  0  0  0  0  0  0
   10.1680    4.2750    0.0000 H   0  0  0  0  0  0  0  0  0  0  0  0
  1 28  1  0  0  0  0
  1 74  1  0  0  0  0
  2  6  1  0  0  0  0
  2 13  1  0  0  0  0
  2 20  1  0  0  0  0
  3  4  1  0  0  0  0
  3  5  1  0  0  0  0
  3 11  1  0  0  0  0
  3 17  1  0  0  0  0
  4  7  1  0  0  0  0
  4  9  1  0  0  0  0
  4 30  1  0  0  0  0
  5  6  1  0  0  0  0
  5 10  1  0  0  0  0
  5 31  1  0  0  0  0
  6  9  1  0  0  0  0
  6 32  1  0  0  0  0
  7  8  1  0  0  0  0
  7 15  1  0  0  0  0
  7 33  1  0  0  0  0
  8 12  1  0  0  0  0
  8 14  1  0  0  0  0
  8 34  1  0  0  0  0
  9 35  1  0  0  0  0
  9 36  1  0  0  0  0
 10 13  1  0  0  0  0
 10 22  1  0  0  0  0
 10 37  1  0  0  0  0
 11 14  1  0  0  0  0
 11 38  1  0  0  0  0
 11 39  1  0  0  0  0
 12 16  1  0  0  0  0
 12 19  1  0  0  0  0
 12 24  1  0  0  0  0
 13 21  1  0  0  0  0
 13 40  1  0  0  0  0
 14 41  1  0  0  0  0
 14 42  1  0  0  0  0
 15 18  1  0  0  0  0
 15 43  1  0  0  0  0
 15 44  1  0  0  0  0
 16 18  1  0  0  0  0
 16 23  1  0  0  0  0
 16 45  1  0  0  0  0
 17 46  1  0  0  0  0
 17 47  1  0  0  0  0
 17 48  1  0  0  0  0
 18 49  1  0  0  0  0
 18 50  1  0  0  0  0
 19 27  1  0  0  0  0
 19 51  1  0  0  0  0
 19 52  1  0  0  0  0
 20 25  1  0  0  0  0
 20 53  1  0  0  0  0
 20 54  1  0  0  0  0
 21 26  1  0  0  0  0
 21 55  1  0  0  0  0
 21 56  1  0  0  0  0
 22 57  1  0  0  0  0
 22 58  1  0  0  0  0
 22 59  1  0  0  0  0
 23 28  1  0  0  0  0
 23 60  1  0  0  0  0
 23 61  1  0  0  0  0
 24 62  1  0  0  0  0
 24 63  1  0  0  0  0
 24 64  1  0  0  0  0
 25 26  1  0  0  0  0
 25 29  1  0  0  0  0
 25 65  1  0  0  0  0
 26 66  1  0  0  0  0
 26 67  1  0  0  0  0
 27 28  1  0  0  0  0
 27 68  1  0  0  0  0
 27 69  1  0  0  0  0
 28 70  1  0  0  0  0
 29 71  1  0  0  0  0
 29 72  1  0  0  0  0
 29 73  1  0  0  0  0
M  END
>  <PUBCHEM_COMPOUND_CID>
349393

>  <PUBCHEM_COMPOUND_CANONICALIZED>
1

>  <PUBCHEM_CACTVS_COMPLEXITY>
663

>  <PUBCHEM_CACTVS_HBOND_ACCEPTOR>
2

>  <PUBCHEM_CACTVS_HBOND_DONOR>
1

>  <PUBCHEM_CACTVS_ROTATABLE_BOND>
0

>  <PUBCHEM_CACTVS_SUBSKEYS>
AAADcfB6IAAAAAAAAAAAAAAAAAAAAeIAAAA8YMEAAAAWAHjAAAAAHgAACAAADzzhgAYCAAMAAgAAAAAAAAAAAAAAAAAAAAAIAAAAEAIAgAAEQAAEAACAAAGQwPAPgAAAAAAAAADAAAYAACAAASAACQAAAA==

>  <PUBCHEM_IUPAC_INCHI>
InChI=1S/C27H45NO/c1-16-5-8-23-17(2)25-24(28(23)15-16)14-22-20-7-6-18-13-19(29)9-11-26(18,3)21(20)10-12-27(22,25)4/h16-25,29H,5-15H2,1-4H3

>  <PUBCHEM_IUPAC_INCHIKEY>
JALVTHFTYRPDMB-UHFFFAOYSA-N

>  <PUBCHEM_XLOGP3_AA>
6.9

>  <PUBCHEM_EXACT_MASS>
399.35

>  <PUBCHEM_MOLECULAR_FORMULA>
C27H45NO

>  <PUBCHEM_MOLECULAR_WEIGHT>
399.663

>  <PUBCHEM_OPENEYE_CAN_SMILES>
CC1CCC2C(C3C(N2C1)CC4C3(CCC5C4CCC6C5(CCC(C6)O)C)C)C

>  <PUBCHEM_OPENEYE_ISO_SMILES>
CC1CCC2C(C3C(N2C1)CC4C3(CCC5C4CCC6C5(CCC(C6)O)C)C)C

>  <PUBCHEM_CACTVS_TPSA>
23.5

>  <PUBCHEM_MONOISOTOPIC_WEIGHT>
399.35

>  <PUBCHEM_TOTAL_CHARGE>
0

>  <PUBCHEM_HEAVY_ATOM_COUNT>
29

>  <PUBCHEM_ATOM_DEF_STEREO_COUNT>
0

>  <PUBCHEM_ATOM_UDEF_STEREO_COUNT>
12

>  <PUBCHEM_BOND_DEF_STEREO_COUNT>
0

>  <PUBCHEM_BOND_UDEF_STEREO_COUNT>
0

>  <PUBCHEM_ISOTOPIC_ATOM_COUNT>
0

>  <PUBCHEM_COMPONENT_COUNT>
1

>  <PUBCHEM_CACTVS_TAUTO_COUNT>
1

>  <PUBCHEM_COORDINATE_TYPE>
1
5
255

>  <PUBCHEM_BONDANNOTATIONS>
10  37  3
12  24  3
13  40  3
16  45  3
25  65  3
28  70  3
3  17  3
4  30  3
5  31  3
6  32  3
7  33  3
8  34  3

$$$$
