3512634
 OpenBabel06101807152D

 32 34  0  0  1  0  0  0  0  0999 V2000
    6.0682   -0.4400    0.0000 O   0  0  0  0  0  0  0  0  0  0  0  0
    7.8003    1.5600    0.0000 O   0  0  0  0  0  0  0  0  0  0  0  0
    6.0682    2.5600    0.0000 O   0  0  0  0  0  0  0  0  0  0  0  0
    2.5381   -0.4642    0.0000 O   0  0  0  0  0  0  0  0  0  0  0  0
   10.3984   -1.9400    0.0000 O   0  0  0  0  0  0  0  0  0  0  0  0
    6.9343    0.0600    0.0000 C   0  0  3  0  0  0  0  0  0  0  0  0
    6.9343    1.0600    0.0000 C   0  0  3  0  0  0  0  0  0  0  0  0
    7.8003   -0.4400    0.0000 C   0  0  0  0  0  0  0  0  0  0  0  0
    6.0682    1.5600    0.0000 C   0  0  0  0  0  0  0  0  0  0  0  0
    5.2022    1.0600    0.0000 C   0  0  0  0  0  0  0  0  0  0  0  0
    5.2022    0.0600    0.0000 C   0  0  0  0  0  0  0  0  0  0  0  0
    7.8003   -1.4400    0.0000 C   0  0  0  0  0  0  0  0  0  0  0  0
    8.6663    0.0600    0.0000 C   0  0  0  0  0  0  0  0  0  0  0  0
    4.3083    1.5947    0.0000 C   0  0  0  0  0  0  0  0  0  0  0  0
    4.3083   -0.4747    0.0000 C   0  0  0  0  0  0  0  0  0  0  0  0
    3.4022    0.0392    0.0000 C   0  0  0  0  0  0  0  0  0  0  0  0
    3.4022    1.0808    0.0000 C   0  0  0  0  0  0  0  0  0  0  0  0
    8.6663   -1.9400    0.0000 C   0  0  0  0  0  0  0  0  0  0  0  0
    9.5323   -0.4400    0.0000 C   0  0  0  0  0  0  0  0  0  0  0  0
    9.5323   -1.4400    0.0000 C   0  0  0  0  0  0  0  0  0  0  0  0
    6.9343   -0.7900    0.0000 H   0  0  0  0  0  0  0  0  0  0  0  0
    6.9343    1.9100    0.0000 H   0  0  0  0  0  0  0  0  0  0  0  0
    7.2634   -1.7500    0.0000 H   0  0  0  0  0  0  0  0  0  0  0  0
    8.6663    0.6800    0.0000 H   0  0  0  0  0  0  0  0  0  0  0  0
    4.3154    2.2146    0.0000 H   0  0  0  0  0  0  0  0  0  0  0  0
    4.3154   -1.0946    0.0000 H   0  0  0  0  0  0  0  0  0  0  0  0
    7.8003    2.1800    0.0000 H   0  0  0  0  0  0  0  0  0  0  0  0
    2.8665    1.3929    0.0000 H   0  0  0  0  0  0  0  0  0  0  0  0
    8.6663   -2.5600    0.0000 H   0  0  0  0  0  0  0  0  0  0  0  0
   10.0693   -0.1300    0.0000 H   0  0  0  0  0  0  0  0  0  0  0  0
    2.0000   -0.1562    0.0000 H   0  0  0  0  0  0  0  0  0  0  0  0
   10.3984   -2.5600    0.0000 H   0  0  0  0  0  0  0  0  0  0  0  0
  1  6  1  0  0  0  0
  1 11  1  0  0  0  0
  2  7  1  0  0  0  0
  2 27  1  0  0  0  0
  3  9  2  0  0  0  0
  4 16  1  0  0  0  0
  4 31  1  0  0  0  0
  5 20  1  0  0  0  0
  5 32  1  0  0  0  0
  6  7  1  0  0  0  0
  6  8  1  0  0  0  0
  6 21  1  0  0  0  0
  7  9  1  0  0  0  0
  7 22  1  0  0  0  0
  8 12  2  0  0  0  0
  8 13  1  0  0  0  0
  9 10  1  0  0  0  0
 10 11  2  0  0  0  0
 10 14  1  0  0  0  0
 11 15  1  0  0  0  0
 12 18  1  0  0  0  0
 12 23  1  0  0  0  0
 13 19  2  0  0  0  0
 13 24  1  0  0  0  0
 14 17  2  0  0  0  0
 14 25  1  0  0  0  0
 15 16  2  0  0  0  0
 15 26  1  0  0  0  0
 16 17  1  0  0  0  0
 17 28  1  0  0  0  0
 18 20  2  0  0  0  0
 18 29  1  0  0  0  0
 19 20  1  0  0  0  0
 19 30  1  0  0  0  0
M  END
>  <PUBCHEM_COMPOUND_CID>
3512634

>  <PUBCHEM_COMPOUND_CANONICALIZED>
1

>  <PUBCHEM_CACTVS_COMPLEXITY>
363

>  <PUBCHEM_CACTVS_HBOND_ACCEPTOR>
5

>  <PUBCHEM_CACTVS_HBOND_DONOR>
3

>  <PUBCHEM_CACTVS_ROTATABLE_BOND>
1

>  <PUBCHEM_CACTVS_SUBSKEYS>
AAADccBwOAAAAAAAAAAAAAAAAAAAAAAAAAA0YIAAAAAAAACRQAAAGgAACAAADBSgmAIwBoAABgCIAqBSAAICCAAkIAAIiAFGCMgNNzaGNRqCeWCl4BULuYfI7OzOIAAACAAIAABAAAAQABAAAAAAAAAAAA==

>  <PUBCHEM_IUPAC_OPENEYE_NAME>
3,7-dihydroxy-2-(4-hydroxyphenyl)chroman-4-one

>  <PUBCHEM_IUPAC_CAS_NAME>
3,7-dihydroxy-2-(4-hydroxyphenyl)-3,4-dihydro-2H-1-benzopyran-4-one

>  <PUBCHEM_IUPAC_NAME>
3,7-dihydroxy-2-(4-hydroxyphenyl)-2,3-dihydrochromen-4-one

>  <PUBCHEM_IUPAC_SYSTEMATIC_NAME>
2-(4-hydroxyphenyl)-3,7-bis(oxidanyl)-2,3-dihydrochromen-4-one

>  <PUBCHEM_IUPAC_TRADITIONAL_NAME>
3,7-dihydroxy-2-(4-hydroxyphenyl)chroman-4-one

>  <PUBCHEM_IUPAC_INCHI>
InChI=1S/C15H12O5/c16-9-3-1-8(2-4-9)15-14(19)13(18)11-6-5-10(17)7-12(11)20-15/h1-7,14-17,19H

>  <PUBCHEM_IUPAC_INCHIKEY>
VRTGGIJPIYOHGT-UHFFFAOYSA-N

>  <PUBCHEM_XLOGP3_AA>
1.6

>  <PUBCHEM_EXACT_MASS>
272.068

>  <PUBCHEM_MOLECULAR_FORMULA>
C15H12O5

>  <PUBCHEM_MOLECULAR_WEIGHT>
272.256

>  <PUBCHEM_OPENEYE_CAN_SMILES>
C1=CC(=CC=C1C2C(C(=O)C3=C(O2)C=C(C=C3)O)O)O

>  <PUBCHEM_OPENEYE_ISO_SMILES>
C1=CC(=CC=C1C2C(C(=O)C3=C(O2)C=C(C=C3)O)O)O

>  <PUBCHEM_CACTVS_TPSA>
87

>  <PUBCHEM_MONOISOTOPIC_WEIGHT>
272.068

>  <PUBCHEM_TOTAL_CHARGE>
0

>  <PUBCHEM_HEAVY_ATOM_COUNT>
20

>  <PUBCHEM_ATOM_DEF_STEREO_COUNT>
0

>  <PUBCHEM_ATOM_UDEF_STEREO_COUNT>
2

>  <PUBCHEM_BOND_DEF_STEREO_COUNT>
0

>  <PUBCHEM_BOND_UDEF_STEREO_COUNT>
0

>  <PUBCHEM_ISOTOPIC_ATOM_COUNT>
0

>  <PUBCHEM_COMPONENT_COUNT>
1

>  <PUBCHEM_CACTVS_TAUTO_COUNT>
210

>  <PUBCHEM_COORDINATE_TYPE>
1
5
255

>  <PUBCHEM_BONDANNOTATIONS>
10  11  8
10  14  8
11  15  8
12  18  8
13  19  8
14  17  8
15  16  8
16  17  8
18  20  8
19  20  8
6  21  3
7  22  3
8  12  8
8  13  8

$$$$
