354197
 OpenBabel06101807152D

 23 22  0  0  1  0  0  0  0  0999 V2000
    2.5369   -0.4050    0.0000 O   0  0  0  0  0  0  0  0  0  0  0  0
    6.8671    0.0950    0.0000 O   0  0  0  0  0  0  0  0  0  0  0  0
    6.0010   -1.4050    0.0000 O   0  0  0  0  0  0  0  0  0  0  0  0
    5.1350    1.0950    0.0000 N   0  0  0  0  0  0  0  0  0  0  0  0
    4.2690   -0.4050    0.0000 C   0  0  3  0  0  0  0  0  0  0  0  0
    3.4030    0.0950    0.0000 C   0  0  3  0  0  0  0  0  0  0  0  0
    5.1350    0.0950    0.0000 C   0  0  3  0  0  0  0  0  0  0  0  0
    4.2690   -1.4050    0.0000 C   0  0  0  0  0  0  0  0  0  0  0  0
    3.4030    1.0950    0.0000 C   0  0  0  0  0  0  0  0  0  0  0  0
    6.0010   -0.4050    0.0000 C   0  0  0  0  0  0  0  0  0  0  0  0
    5.0051   -0.8300    0.0000 H   0  0  0  0  0  0  0  0  0  0  0  0
    3.4030   -0.7550    0.0000 H   0  0  0  0  0  0  0  0  0  0  0  0
    5.8711    0.5200    0.0000 H   0  0  0  0  0  0  0  0  0  0  0  0
    3.6490   -1.4050    0.0000 H   0  0  0  0  0  0  0  0  0  0  0  0
    4.2690   -2.0250    0.0000 H   0  0  0  0  0  0  0  0  0  0  0  0
    4.8890   -1.4050    0.0000 H   0  0  0  0  0  0  0  0  0  0  0  0
    4.0230    1.0950    0.0000 H   0  0  0  0  0  0  0  0  0  0  0  0
    3.4030    1.7150    0.0000 H   0  0  0  0  0  0  0  0  0  0  0  0
    2.7830    1.0950    0.0000 H   0  0  0  0  0  0  0  0  0  0  0  0
    5.6720    1.4050    0.0000 H   0  0  0  0  0  0  0  0  0  0  0  0
    4.5981    1.4050    0.0000 H   0  0  0  0  0  0  0  0  0  0  0  0
    2.0000   -0.0950    0.0000 H   0  0  0  0  0  0  0  0  0  0  0  0
    7.4040   -0.2150    0.0000 H   0  0  0  0  0  0  0  0  0  0  0  0
  1  6  1  0  0  0  0
  1 22  1  0  0  0  0
  2 10  1  0  0  0  0
  2 23  1  0  0  0  0
  3 10  2  0  0  0  0
  4  7  1  0  0  0  0
  4 20  1  0  0  0  0
  4 21  1  0  0  0  0
  5  6  1  0  0  0  0
  5  7  1  0  0  0  0
  5  8  1  0  0  0  0
  5 11  1  0  0  0  0
  6  9  1  0  0  0  0
  6 12  1  0  0  0  0
  7 10  1  0  0  0  0
  7 13  1  0  0  0  0
  8 14  1  0  0  0  0
  8 15  1  0  0  0  0
  8 16  1  0  0  0  0
  9 17  1  0  0  0  0
  9 18  1  0  0  0  0
  9 19  1  0  0  0  0
M  END
>  <PUBCHEM_COMPOUND_CID>
354197

>  <PUBCHEM_COMPOUND_CANONICALIZED>
1

>  <PUBCHEM_CACTVS_COMPLEXITY>
126

>  <PUBCHEM_CACTVS_HBOND_ACCEPTOR>
4

>  <PUBCHEM_CACTVS_HBOND_DONOR>
3

>  <PUBCHEM_CACTVS_ROTATABLE_BOND>
3

>  <PUBCHEM_CACTVS_SUBSKEYS>
AAADccBiMAAAAAAAAAAAAAAAAAAAAAAAAAAAAAAAAAAAAAAAAAAAHgAQCAAADTzhgAYCCABAAgAIAACQCAAAAAAAAAAAAIGAAAACEBIAgAAAQAAGEAAAAADKAAAKAAAAAAAAAAAAAAAAAAAAAAAAAAAAAA==

>  <PUBCHEM_IUPAC_OPENEYE_NAME>
2-amino-4-hydroxy-3-methyl-pentanoic acid

>  <PUBCHEM_IUPAC_CAS_NAME>
2-amino-4-hydroxy-3-methylpentanoic acid

>  <PUBCHEM_IUPAC_NAME>
2-amino-4-hydroxy-3-methylpentanoic acid

>  <PUBCHEM_IUPAC_SYSTEMATIC_NAME>
2-azanyl-3-methyl-4-oxidanyl-pentanoic acid

>  <PUBCHEM_IUPAC_TRADITIONAL_NAME>
2-amino-4-hydroxy-3-methyl-valeric acid

>  <PUBCHEM_IUPAC_INCHI>
InChI=1S/C6H13NO3/c1-3(4(2)8)5(7)6(9)10/h3-5,8H,7H2,1-2H3,(H,9,10)

>  <PUBCHEM_IUPAC_INCHIKEY>
OSCCDBFHNMXNME-UHFFFAOYSA-N

>  <PUBCHEM_XLOGP3_AA>
-2.8

>  <PUBCHEM_EXACT_MASS>
147.09

>  <PUBCHEM_MOLECULAR_FORMULA>
C6H13NO3

>  <PUBCHEM_MOLECULAR_WEIGHT>
147.174

>  <PUBCHEM_OPENEYE_CAN_SMILES>
CC(C(C)O)C(C(=O)O)N

>  <PUBCHEM_OPENEYE_ISO_SMILES>
CC(C(C)O)C(C(=O)O)N

>  <PUBCHEM_CACTVS_TPSA>
83.6

>  <PUBCHEM_MONOISOTOPIC_WEIGHT>
147.09

>  <PUBCHEM_TOTAL_CHARGE>
0

>  <PUBCHEM_HEAVY_ATOM_COUNT>
10

>  <PUBCHEM_ATOM_DEF_STEREO_COUNT>
0

>  <PUBCHEM_ATOM_UDEF_STEREO_COUNT>
3

>  <PUBCHEM_BOND_DEF_STEREO_COUNT>
0

>  <PUBCHEM_BOND_UDEF_STEREO_COUNT>
0

>  <PUBCHEM_ISOTOPIC_ATOM_COUNT>
0

>  <PUBCHEM_COMPONENT_COUNT>
1

>  <PUBCHEM_CACTVS_TAUTO_COUNT>
1

>  <PUBCHEM_COORDINATE_TYPE>
1
5
255

>  <PUBCHEM_BONDANNOTATIONS>
5  11  3
6  12  3
7  13  3

$$$$
