3693124
 OpenBabel06101807152D

 25 26  0  0  1  0  0  0  0  0999 V2000
    5.2059   -1.1119    0.0000 O   0  0  0  0  0  0  0  0  0  0  0  0
    4.2786   -2.0110    0.0000 O   0  0  0  0  0  0  0  0  0  0  0  0
    3.0746    1.2969    0.0000 O   0  0  0  0  0  0  0  0  0  0  0  0
    2.4750   -0.7944    0.0000 O   0  0  0  0  0  0  0  0  0  0  0  0
    4.9869    1.8026    0.0000 N   0  0  0  0  0  0  0  0  0  0  0  0
    5.4647   -0.1459    0.0000 C   0  0  3  0  0  0  0  0  0  0  0  0
    5.7235    0.8200    0.0000 C   0  0  3  0  0  0  0  0  0  0  0  0
    4.2437   -1.0116    0.0000 C   0  0  3  0  0  0  0  0  0  0  0  0
    6.8636   -0.6548    0.0000 C   0  0  0  0  0  0  0  0  0  0  0  0
    7.1225    0.3112    0.0000 C   0  0  0  0  0  0  0  0  0  0  0  0
    3.6903    0.5089    0.0000 C   0  0  3  0  0  0  0  0  0  0  0  0
    3.4146   -0.4524    0.0000 C   0  0  3  0  0  0  0  0  0  0  0  0
    6.2299    1.5027    0.0000 H   0  0  0  0  0  0  0  0  0  0  0  0
    3.5002   -1.4237    0.0000 H   0  0  0  0  0  0  0  0  0  0  0  0
    6.6687   -1.2433    0.0000 H   0  0  0  0  0  0  0  0  0  0  0  0
    7.4576   -0.8325    0.0000 H   0  0  0  0  0  0  0  0  0  0  0  0
    7.7164    0.1334    0.0000 H   0  0  0  0  0  0  0  0  0  0  0  0
    7.3174    0.8997    0.0000 H   0  0  0  0  0  0  0  0  0  0  0  0
    2.8559    0.3467    0.0000 H   0  0  0  0  0  0  0  0  0  0  0  0
    2.7930    0.1273    0.0000 H   0  0  0  0  0  0  0  0  0  0  0  0
    4.6769    2.3395    0.0000 H   0  0  0  0  0  0  0  0  0  0  0  0
    5.6443   -1.5503    0.0000 H   0  0  0  0  0  0  0  0  0  0  0  0
    3.7528   -2.3395    0.0000 H   0  0  0  0  0  0  0  0  0  0  0  0
    2.4606    1.2106    0.0000 H   0  0  0  0  0  0  0  0  0  0  0  0
    2.0000   -0.3959    0.0000 H   0  0  0  0  0  0  0  0  0  0  0  0
  1  6  1  0  0  0  0
  1 22  1  0  0  0  0
  2  8  1  0  0  0  0
  2 23  1  0  0  0  0
  3 11  1  0  0  0  0
  3 24  1  0  0  0  0
  4 12  1  0  0  0  0
  4 25  1  0  0  0  0
  5  6  1  0  0  0  0
  5  7  1  0  0  0  0
  5 21  1  0  0  0  0
  6  8  1  0  0  0  0
  6  9  1  0  0  0  0
  7 10  1  0  0  0  0
  7 11  1  0  0  0  0
  7 13  1  0  0  0  0
  8 12  1  0  0  0  0
  8 14  1  0  0  0  0
  9 10  1  0  0  0  0
  9 15  1  0  0  0  0
  9 16  1  0  0  0  0
 10 17  1  0  0  0  0
 10 18  1  0  0  0  0
 11 12  1  0  0  0  0
 11 19  1  0  0  0  0
 12 20  1  0  0  0  0
M  END
>  <PUBCHEM_COMPOUND_CID>
3693124

>  <PUBCHEM_COMPOUND_CANONICALIZED>
1

>  <PUBCHEM_CACTVS_COMPLEXITY>
200

>  <PUBCHEM_CACTVS_HBOND_ACCEPTOR>
5

>  <PUBCHEM_CACTVS_HBOND_DONOR>
5

>  <PUBCHEM_CACTVS_ROTATABLE_BOND>
0

>  <PUBCHEM_CACTVS_SUBSKEYS>
AAADccBiOAAAAAAAAAAAAAAAAAAAAWAAAAAsAAAABgAAAAAAAAAAHgAQCAAACDzhgAYAAALAAgAAAAAAAAAAAAAAAAAAAIAIAAEDEAIAgAAEQAAHEACRAAHw8CUAAAAAAAAAAAAAAAAAAAAAAAAAAAAAAA==

>  <PUBCHEM_IUPAC_OPENEYE_NAME>
8-azabicyclo[3.2.1]octane-2,3,4,5-tetrol

>  <PUBCHEM_IUPAC_CAS_NAME>
8-azabicyclo[3.2.1]octane-2,3,4,5-tetrol

>  <PUBCHEM_IUPAC_NAME>
8-azabicyclo[3.2.1]octane-2,3,4,5-tetrol

>  <PUBCHEM_IUPAC_SYSTEMATIC_NAME>
8-azabicyclo[3.2.1]octane-2,3,4,5-tetrol

>  <PUBCHEM_IUPAC_TRADITIONAL_NAME>
8-azabicyclo[3.2.1]octane-2,3,4,5-tetrol

>  <PUBCHEM_IUPAC_INCHI>
InChI=1S/C7H13NO4/c9-4-3-1-2-7(12,8-3)6(11)5(4)10/h3-6,8-12H,1-2H2

>  <PUBCHEM_IUPAC_INCHIKEY>
FXFBVZOJVHCEDO-UHFFFAOYSA-N

>  <PUBCHEM_XLOGP3_AA>
-2.4

>  <PUBCHEM_EXACT_MASS>
175.084

>  <PUBCHEM_MOLECULAR_FORMULA>
C7H13NO4

>  <PUBCHEM_MOLECULAR_WEIGHT>
175.184

>  <PUBCHEM_OPENEYE_CAN_SMILES>
C1CC2(C(C(C(C1N2)O)O)O)O

>  <PUBCHEM_OPENEYE_ISO_SMILES>
C1CC2(C(C(C(C1N2)O)O)O)O

>  <PUBCHEM_CACTVS_TPSA>
93

>  <PUBCHEM_MONOISOTOPIC_WEIGHT>
175.084

>  <PUBCHEM_TOTAL_CHARGE>
0

>  <PUBCHEM_HEAVY_ATOM_COUNT>
12

>  <PUBCHEM_ATOM_DEF_STEREO_COUNT>
0

>  <PUBCHEM_ATOM_UDEF_STEREO_COUNT>
5

>  <PUBCHEM_BOND_DEF_STEREO_COUNT>
0

>  <PUBCHEM_BOND_UDEF_STEREO_COUNT>
0

>  <PUBCHEM_ISOTOPIC_ATOM_COUNT>
0

>  <PUBCHEM_COMPONENT_COUNT>
1

>  <PUBCHEM_CACTVS_TAUTO_COUNT>
1

>  <PUBCHEM_COORDINATE_TYPE>
1
5
255

>  <PUBCHEM_BONDANNOTATIONS>
6  1  3
11  19  3
12  20  3
7  13  3
8  14  3

$$$$
