369598
 OpenBabel06101807152D

 38 40  0  0  0  0  0  0  0  0999 V2000
    6.3580   -0.9259    0.0000 O   0  0  0  0  0  0  0  0  0  0  0  0
    2.8660   -0.8913    0.0000 O   0  0  0  0  0  0  0  0  0  0  0  0
    4.5981    2.1087    0.0000 O   0  0  0  0  0  0  0  0  0  0  0  0
    6.3465    2.1433    0.0000 O   0  0  0  0  0  0  0  0  0  0  0  0
    5.4641   -0.3913    0.0000 C   0  0  0  0  0  0  0  0  0  0  0  0
    5.4641    0.6087    0.0000 C   0  0  0  0  0  0  0  0  0  0  0  0
    4.5981   -0.8913    0.0000 C   0  0  0  0  0  0  0  0  0  0  0  0
    3.7320    0.6087    0.0000 C   0  0  0  0  0  0  0  0  0  0  0  0
    3.7320   -0.3913    0.0000 C   0  0  0  0  0  0  0  0  0  0  0  0
    4.5981    1.1087    0.0000 C   0  0  0  0  0  0  0  0  0  0  0  0
    6.3580    1.1434    0.0000 C   0  0  0  0  0  0  0  0  0  0  0  0
    7.2641   -0.4121    0.0000 C   0  0  0  0  0  0  0  0  0  0  0  0
    4.5981   -1.8913    0.0000 C   0  0  0  0  0  0  0  0  0  0  0  0
    7.2641    0.6296    0.0000 C   0  0  0  0  0  0  0  0  0  0  0  0
    2.8660    1.1087    0.0000 C   0  0  0  0  0  0  0  0  0  0  0  0
    8.1282   -0.9154    0.0000 C   0  0  0  0  0  0  0  0  0  0  0  0
    8.1244   -1.9154    0.0000 C   0  0  0  0  0  0  0  0  0  0  0  0
    8.9962   -0.4188    0.0000 C   0  0  0  0  0  0  0  0  0  0  0  0
    2.0000   -0.3913    0.0000 C   0  0  0  0  0  0  0  0  0  0  0  0
    8.9884   -2.4187    0.0000 C   0  0  0  0  0  0  0  0  0  0  0  0
    9.8602   -0.9221    0.0000 C   0  0  0  0  0  0  0  0  0  0  0  0
    9.8564   -1.9221    0.0000 C   0  0  0  0  0  0  0  0  0  0  0  0
    3.9781   -1.8913    0.0000 H   0  0  0  0  0  0  0  0  0  0  0  0
    4.5981   -2.5113    0.0000 H   0  0  0  0  0  0  0  0  0  0  0  0
    5.2181   -1.8913    0.0000 H   0  0  0  0  0  0  0  0  0  0  0  0
    7.7998    0.9416    0.0000 H   0  0  0  0  0  0  0  0  0  0  0  0
    3.1760    1.6457    0.0000 H   0  0  0  0  0  0  0  0  0  0  0  0
    2.3291    1.4187    0.0000 H   0  0  0  0  0  0  0  0  0  0  0  0
    2.5560    0.5718    0.0000 H   0  0  0  0  0  0  0  0  0  0  0  0
    4.0611    2.4187    0.0000 H   0  0  0  0  0  0  0  0  0  0  0  0
    7.5862   -2.2233    0.0000 H   0  0  0  0  0  0  0  0  0  0  0  0
    8.9985    0.2012    0.0000 H   0  0  0  0  0  0  0  0  0  0  0  0
    2.3100    0.1457    0.0000 H   0  0  0  0  0  0  0  0  0  0  0  0
    1.4631   -0.0813    0.0000 H   0  0  0  0  0  0  0  0  0  0  0  0
    1.6900   -0.9282    0.0000 H   0  0  0  0  0  0  0  0  0  0  0  0
    8.9860   -3.0387    0.0000 H   0  0  0  0  0  0  0  0  0  0  0  0
   10.3984   -0.6142    0.0000 H   0  0  0  0  0  0  0  0  0  0  0  0
   10.3921   -2.2342    0.0000 H   0  0  0  0  0  0  0  0  0  0  0  0
  1  5  1  0  0  0  0
  1 12  1  0  0  0  0
  2  9  1  0  0  0  0
  2 19  1  0  0  0  0
  3 10  1  0  0  0  0
  3 30  1  0  0  0  0
  4 11  2  0  0  0  0
  5  6  2  0  0  0  0
  5  7  1  0  0  0  0
  6 10  1  0  0  0  0
  6 11  1  0  0  0  0
  7  9  2  0  0  0  0
  7 13  1  0  0  0  0
  8  9  1  0  0  0  0
  8 10  2  0  0  0  0
  8 15  1  0  0  0  0
 11 14  1  0  0  0  0
 12 14  2  0  0  0  0
 12 16  1  0  0  0  0
 13 23  1  0  0  0  0
 13 24  1  0  0  0  0
 13 25  1  0  0  0  0
 14 26  1  0  0  0  0
 15 27  1  0  0  0  0
 15 28  1  0  0  0  0
 15 29  1  0  0  0  0
 16 17  2  0  0  0  0
 16 18  1  0  0  0  0
 17 20  1  0  0  0  0
 17 31  1  0  0  0  0
 18 21  2  0  0  0  0
 18 32  1  0  0  0  0
 19 33  1  0  0  0  0
 19 34  1  0  0  0  0
 19 35  1  0  0  0  0
 20 22  2  0  0  0  0
 20 36  1  0  0  0  0
 21 22  1  0  0  0  0
 21 37  1  0  0  0  0
 22 38  1  0  0  0  0
M  END
>  <PUBCHEM_COMPOUND_CID>
369598

>  <PUBCHEM_COMPOUND_CANONICALIZED>
1

>  <PUBCHEM_CACTVS_COMPLEXITY>
452

>  <PUBCHEM_CACTVS_HBOND_ACCEPTOR>
4

>  <PUBCHEM_CACTVS_HBOND_DONOR>
1

>  <PUBCHEM_CACTVS_ROTATABLE_BOND>
2

>  <PUBCHEM_CACTVS_SUBSKEYS>
AAADceB4OAAAAAAAAAAAAAAAAAAAAAAAAAAwYIAAAAAAAACBQAAAGgAACAAADASAmAIyBoAABgCIAqBSAAACCAAkIAAIiAEECMgMJzaGNRqCeWCl4BUIuQeI7OzOIAACCAAIAABAAAQQABAAAAAAAAAAAA==

>  <PUBCHEM_IUPAC_OPENEYE_NAME>
5-hydroxy-7-methoxy-6,8-dimethyl-2-phenyl-chromen-4-one

>  <PUBCHEM_IUPAC_CAS_NAME>
5-hydroxy-7-methoxy-6,8-dimethyl-2-phenyl-1-benzopyran-4-one

>  <PUBCHEM_IUPAC_NAME>
5-hydroxy-7-methoxy-6,8-dimethyl-2-phenylchromen-4-one

>  <PUBCHEM_IUPAC_SYSTEMATIC_NAME>
7-methoxy-6,8-dimethyl-5-oxidanyl-2-phenyl-chromen-4-one

>  <PUBCHEM_IUPAC_TRADITIONAL_NAME>
5-hydroxy-7-methoxy-6,8-dimethyl-2-phenyl-chromone

>  <PUBCHEM_IUPAC_INCHI>
InChI=1S/C18H16O4/c1-10-16(20)15-13(19)9-14(12-7-5-4-6-8-12)22-18(15)11(2)17(10)21-3/h4-9,20H,1-3H3

>  <PUBCHEM_IUPAC_INCHIKEY>
PQZXFPBMXPGZMO-UHFFFAOYSA-N

>  <PUBCHEM_XLOGP3_AA>
4.1

>  <PUBCHEM_EXACT_MASS>
296.105

>  <PUBCHEM_MOLECULAR_FORMULA>
C18H16O4

>  <PUBCHEM_MOLECULAR_WEIGHT>
296.322

>  <PUBCHEM_OPENEYE_CAN_SMILES>
CC1=C(C2=C(C(=C1OC)C)OC(=CC2=O)C3=CC=CC=C3)O

>  <PUBCHEM_OPENEYE_ISO_SMILES>
CC1=C(C2=C(C(=C1OC)C)OC(=CC2=O)C3=CC=CC=C3)O

>  <PUBCHEM_CACTVS_TPSA>
55.8

>  <PUBCHEM_MONOISOTOPIC_WEIGHT>
296.105

>  <PUBCHEM_TOTAL_CHARGE>
0

>  <PUBCHEM_HEAVY_ATOM_COUNT>
22

>  <PUBCHEM_ATOM_DEF_STEREO_COUNT>
0

>  <PUBCHEM_ATOM_UDEF_STEREO_COUNT>
0

>  <PUBCHEM_BOND_DEF_STEREO_COUNT>
0

>  <PUBCHEM_BOND_UDEF_STEREO_COUNT>
0

>  <PUBCHEM_ISOTOPIC_ATOM_COUNT>
0

>  <PUBCHEM_COMPONENT_COUNT>
1

>  <PUBCHEM_CACTVS_TAUTO_COUNT>
5

>  <PUBCHEM_COORDINATE_TYPE>
1
5
255

>  <PUBCHEM_BONDANNOTATIONS>
1  12  8
1  5  8
11  14  8
12  14  8
16  17  8
16  18  8
17  20  8
18  21  8
20  22  8
21  22  8
5  6  8
5  7  8
6  10  8
6  11  8
7  9  8
8  10  8
8  9  8

$$$$
