369599
 OpenBabel06101807152D

 35 37  0  0  0  0  0  0  0  0999 V2000
    5.4920   -0.9259    0.0000 O   0  0  0  0  0  0  0  0  0  0  0  0
    2.0000   -0.8913    0.0000 O   0  0  0  0  0  0  0  0  0  0  0  0
    3.7320    2.1087    0.0000 O   0  0  0  0  0  0  0  0  0  0  0  0
    5.4804    2.1433    0.0000 O   0  0  0  0  0  0  0  0  0  0  0  0
    4.5981    0.6087    0.0000 C   0  0  0  0  0  0  0  0  0  0  0  0
    4.5981   -0.3913    0.0000 C   0  0  0  0  0  0  0  0  0  0  0  0
    2.8660    0.6087    0.0000 C   0  0  0  0  0  0  0  0  0  0  0  0
    3.7320    1.1087    0.0000 C   0  0  0  0  0  0  0  0  0  0  0  0
    2.8660   -0.3913    0.0000 C   0  0  0  0  0  0  0  0  0  0  0  0
    3.7320   -0.8913    0.0000 C   0  0  0  0  0  0  0  0  0  0  0  0
    6.3981   -0.4121    0.0000 C   0  0  0  0  0  0  0  0  0  0  0  0
    5.4920    1.1434    0.0000 C   0  0  0  0  0  0  0  0  0  0  0  0
    6.3981    0.6296    0.0000 C   0  0  0  0  0  0  0  0  0  0  0  0
    7.2622   -0.9154    0.0000 C   0  0  0  0  0  0  0  0  0  0  0  0
    2.0000    1.1087    0.0000 C   0  0  0  0  0  0  0  0  0  0  0  0
    7.2583   -1.9154    0.0000 C   0  0  0  0  0  0  0  0  0  0  0  0
    8.1301   -0.4188    0.0000 C   0  0  0  0  0  0  0  0  0  0  0  0
    8.1224   -2.4187    0.0000 C   0  0  0  0  0  0  0  0  0  0  0  0
    8.9942   -0.9221    0.0000 C   0  0  0  0  0  0  0  0  0  0  0  0
    8.9904   -1.9221    0.0000 C   0  0  0  0  0  0  0  0  0  0  0  0
    2.0000   -1.8913    0.0000 C   0  0  0  0  0  0  0  0  0  0  0  0
    3.7320   -1.5113    0.0000 H   0  0  0  0  0  0  0  0  0  0  0  0
    6.9338    0.9416    0.0000 H   0  0  0  0  0  0  0  0  0  0  0  0
    2.3100    1.6457    0.0000 H   0  0  0  0  0  0  0  0  0  0  0  0
    1.4631    1.4187    0.0000 H   0  0  0  0  0  0  0  0  0  0  0  0
    1.6900    0.5718    0.0000 H   0  0  0  0  0  0  0  0  0  0  0  0
    6.7202   -2.2233    0.0000 H   0  0  0  0  0  0  0  0  0  0  0  0
    8.1325    0.2012    0.0000 H   0  0  0  0  0  0  0  0  0  0  0  0
    3.1951    2.4187    0.0000 H   0  0  0  0  0  0  0  0  0  0  0  0
    8.1200   -3.0387    0.0000 H   0  0  0  0  0  0  0  0  0  0  0  0
    9.5323   -0.6142    0.0000 H   0  0  0  0  0  0  0  0  0  0  0  0
    9.5261   -2.2342    0.0000 H   0  0  0  0  0  0  0  0  0  0  0  0
    1.3800   -1.8913    0.0000 H   0  0  0  0  0  0  0  0  0  0  0  0
    2.0000   -2.5113    0.0000 H   0  0  0  0  0  0  0  0  0  0  0  0
    2.6200   -1.8913    0.0000 H   0  0  0  0  0  0  0  0  0  0  0  0
  1  6  1  0  0  0  0
  1 11  1  0  0  0  0
  2  9  1  0  0  0  0
  2 21  1  0  0  0  0
  3  8  1  0  0  0  0
  3 29  1  0  0  0  0
  4 12  2  0  0  0  0
  5  6  1  0  0  0  0
  5  8  2  0  0  0  0
  5 12  1  0  0  0  0
  6 10  2  0  0  0  0
  7  8  1  0  0  0  0
  7  9  2  0  0  0  0
  7 15  1  0  0  0  0
  9 10  1  0  0  0  0
 10 22  1  0  0  0  0
 11 13  2  0  0  0  0
 11 14  1  0  0  0  0
 12 13  1  0  0  0  0
 13 23  1  0  0  0  0
 14 16  2  0  0  0  0
 14 17  1  0  0  0  0
 15 24  1  0  0  0  0
 15 25  1  0  0  0  0
 15 26  1  0  0  0  0
 16 18  1  0  0  0  0
 16 27  1  0  0  0  0
 17 19  2  0  0  0  0
 17 28  1  0  0  0  0
 18 20  2  0  0  0  0
 18 30  1  0  0  0  0
 19 20  1  0  0  0  0
 19 31  1  0  0  0  0
 20 32  1  0  0  0  0
 21 33  1  0  0  0  0
 21 34  1  0  0  0  0
 21 35  1  0  0  0  0
M  END
>  <PUBCHEM_COMPOUND_CID>
369599

>  <PUBCHEM_COMPOUND_CANONICALIZED>
1

>  <PUBCHEM_CACTVS_COMPLEXITY>
425

>  <PUBCHEM_CACTVS_HBOND_ACCEPTOR>
4

>  <PUBCHEM_CACTVS_HBOND_DONOR>
1

>  <PUBCHEM_CACTVS_ROTATABLE_BOND>
2

>  <PUBCHEM_CACTVS_SUBSKEYS>
AAADccB4OAAAAAAAAAAAAAAAAAAAAAAAAAAwYIAAAAAAAACBQAAAGgAACAAADASAmAIyBoAABgCIAqBSAAACCAAkIAAIiAEGCMgMJzaGNRqCeWCl4BUIuQeI7OzOIAACCAAIAABAAAQQABAAAAAAAAAAAA==

>  <PUBCHEM_IUPAC_OPENEYE_NAME>
5-hydroxy-7-methoxy-6-methyl-2-phenyl-chromen-4-one

>  <PUBCHEM_IUPAC_CAS_NAME>
5-hydroxy-7-methoxy-6-methyl-2-phenyl-1-benzopyran-4-one

>  <PUBCHEM_IUPAC_NAME>
5-hydroxy-7-methoxy-6-methyl-2-phenylchromen-4-one

>  <PUBCHEM_IUPAC_SYSTEMATIC_NAME>
7-methoxy-6-methyl-5-oxidanyl-2-phenyl-chromen-4-one

>  <PUBCHEM_IUPAC_TRADITIONAL_NAME>
5-hydroxy-7-methoxy-6-methyl-2-phenyl-chromone

>  <PUBCHEM_IUPAC_INCHI>
InChI=1S/C17H14O4/c1-10-13(20-2)9-15-16(17(10)19)12(18)8-14(21-15)11-6-4-3-5-7-11/h3-9,19H,1-2H3

>  <PUBCHEM_IUPAC_INCHIKEY>
QXJMWAGIFVRLTO-UHFFFAOYSA-N

>  <PUBCHEM_XLOGP3_AA>
3.7

>  <PUBCHEM_EXACT_MASS>
282.089

>  <PUBCHEM_MOLECULAR_FORMULA>
C17H14O4

>  <PUBCHEM_MOLECULAR_WEIGHT>
282.295

>  <PUBCHEM_OPENEYE_CAN_SMILES>
CC1=C(C=C2C(=C1O)C(=O)C=C(O2)C3=CC=CC=C3)OC

>  <PUBCHEM_OPENEYE_ISO_SMILES>
CC1=C(C=C2C(=C1O)C(=O)C=C(O2)C3=CC=CC=C3)OC

>  <PUBCHEM_CACTVS_TPSA>
55.8

>  <PUBCHEM_MONOISOTOPIC_WEIGHT>
282.089

>  <PUBCHEM_TOTAL_CHARGE>
0

>  <PUBCHEM_HEAVY_ATOM_COUNT>
21

>  <PUBCHEM_ATOM_DEF_STEREO_COUNT>
0

>  <PUBCHEM_ATOM_UDEF_STEREO_COUNT>
0

>  <PUBCHEM_BOND_DEF_STEREO_COUNT>
0

>  <PUBCHEM_BOND_UDEF_STEREO_COUNT>
0

>  <PUBCHEM_ISOTOPIC_ATOM_COUNT>
0

>  <PUBCHEM_COMPONENT_COUNT>
1

>  <PUBCHEM_CACTVS_TAUTO_COUNT>
5

>  <PUBCHEM_COORDINATE_TYPE>
1
5
255

>  <PUBCHEM_BONDANNOTATIONS>
1  11  8
1  6  8
11  13  8
12  13  8
14  16  8
14  17  8
16  18  8
17  19  8
18  20  8
19  20  8
5  12  8
5  6  8
5  8  8
6  10  8
7  8  8
7  9  8
9  10  8

$$$$
