3698251
 OpenBabel06101807152D

  9  8  0  0  0  0  0  0  0  0999 V2000
    4.5981    0.2500    0.0000 O   0  3  0  0  0  0  0  0  0  0  0  0
    2.0000    0.7500    0.0000 O   0  5  0  0  0  0  0  0  0  0  0  0
    2.8660   -0.7500    0.0000 O   0  0  0  0  0  0  0  0  0  0  0  0
    3.7320    0.7500    0.0000 C   0  0  0  0  0  0  0  0  0  0  0  0
    2.8660    0.2500    0.0000 C   0  0  0  0  0  0  0  0  0  0  0  0
    4.1306    1.2250    0.0000 H   0  0  0  0  0  0  0  0  0  0  0  0
    3.3335    1.2250    0.0000 H   0  0  0  0  0  0  0  0  0  0  0  0
    5.1350    0.5600    0.0000 H   0  0  0  0  0  0  0  0  0  0  0  0
    4.5981   -0.3700    0.0000 H   0  0  0  0  0  0  0  0  0  0  0  0
  1  4  1  0  0  0  0
  1  8  1  0  0  0  0
  1  9  1  0  0  0  0
  2  5  1  0  0  0  0
  3  5  2  0  0  0  0
  4  5  1  0  0  0  0
  4  6  1  0  0  0  0
  4  7  1  0  0  0  0
M  CHG  2   1   1   2  -1
M  END
>  <PUBCHEM_COMPOUND_CID>
3698251

>  <PUBCHEM_COMPOUND_CANONICALIZED>
1

>  <PUBCHEM_CACTVS_COMPLEXITY>
34.6

>  <PUBCHEM_CACTVS_HBOND_ACCEPTOR>
2

>  <PUBCHEM_CACTVS_HBOND_DONOR>
1

>  <PUBCHEM_CACTVS_ROTATABLE_BOND>
0

>  <PUBCHEM_CACTVS_SUBSKEYS>
AAADcYBAMAAAAAAAAAAAAAAAAAAAAAAAAAAAAAAAAAAAAAAAAAAAGgAACAAAAACggAIACAAAAgAIAACQCAIAAAAAAAAAAABAAAABEAAAAAAAAAAAAAABAAAAAAAAAAAAAAAAAAAAAAAAAAAAAAAAAAAAAA==

>  <PUBCHEM_IUPAC_OPENEYE_NAME>
2-oxonioacetate

>  <PUBCHEM_IUPAC_CAS_NAME>
2-oxonioacetate

>  <PUBCHEM_IUPAC_NAME>
2-oxonioacetate

>  <PUBCHEM_IUPAC_SYSTEMATIC_NAME>
2-oxidaniumylethanoate

>  <PUBCHEM_IUPAC_TRADITIONAL_NAME>
2-oxonioacetate

>  <PUBCHEM_IUPAC_INCHI>
InChI=1S/C2H4O3/c3-1-2(4)5/h3H,1H2,(H,4,5)

>  <PUBCHEM_IUPAC_INCHIKEY>
AEMRFAOFKBGASW-UHFFFAOYSA-N

>  <PUBCHEM_XLOGP3_AA>
-0.2

>  <PUBCHEM_EXACT_MASS>
76.016

>  <PUBCHEM_MOLECULAR_FORMULA>
C2H4O3

>  <PUBCHEM_MOLECULAR_WEIGHT>
76.051

>  <PUBCHEM_OPENEYE_CAN_SMILES>
C(C(=O)[O-])[OH2+]

>  <PUBCHEM_OPENEYE_ISO_SMILES>
C(C(=O)[O-])[OH2+]

>  <PUBCHEM_CACTVS_TPSA>
41.1

>  <PUBCHEM_MONOISOTOPIC_WEIGHT>
76.016

>  <PUBCHEM_TOTAL_CHARGE>
0

>  <PUBCHEM_HEAVY_ATOM_COUNT>
5

>  <PUBCHEM_ATOM_DEF_STEREO_COUNT>
0

>  <PUBCHEM_ATOM_UDEF_STEREO_COUNT>
0

>  <PUBCHEM_BOND_DEF_STEREO_COUNT>
0

>  <PUBCHEM_BOND_UDEF_STEREO_COUNT>
0

>  <PUBCHEM_ISOTOPIC_ATOM_COUNT>
0

>  <PUBCHEM_COMPONENT_COUNT>
1

>  <PUBCHEM_CACTVS_TAUTO_COUNT>
1

>  <PUBCHEM_COORDINATE_TYPE>
1
5
255

$$$$
