380468
 OpenBabel06101807152D

 46 49  0  0  0  0  0  0  0  0999 V2000
    2.5357   -1.5238    0.0000 O   0  0  0  0  0  0  0  0  0  0  0  0
    3.4075   -3.0204    0.0000 O   0  0  0  0  0  0  0  0  0  0  0  0
    6.8600   -0.0071    0.0000 N   0  0  0  0  0  0  0  0  0  0  0  0
   11.2581    1.5204    0.0000 N   0  0  0  0  0  0  0  0  0  0  0  0
   11.2581   -0.4796    0.0000 N   0  0  0  0  0  0  0  0  0  0  0  0
   12.9902   -0.4796    0.0000 N   0  0  0  0  0  0  0  0  0  0  0  0
    8.5921   -0.0004    0.0000 C   0  0  0  0  0  0  0  0  0  0  0  0
    7.7280   -0.5037    0.0000 C   0  0  0  0  0  0  0  0  0  0  0  0
   10.3921    0.0204    0.0000 C   0  0  0  0  0  0  0  0  0  0  0  0
   10.3921    1.0204    0.0000 C   0  0  0  0  0  0  0  0  0  0  0  0
    9.4982   -0.5142    0.0000 C   0  0  0  0  0  0  0  0  0  0  0  0
    8.5921    1.0412    0.0000 C   0  0  0  0  0  0  0  0  0  0  0  0
    9.4982    1.5551    0.0000 C   0  0  0  0  0  0  0  0  0  0  0  0
   12.1241    1.0204    0.0000 C   0  0  0  0  0  0  0  0  0  0  0  0
    5.9960   -0.5104    0.0000 C   0  0  0  0  0  0  0  0  0  0  0  0
   12.1241    0.0204    0.0000 C   0  0  0  0  0  0  0  0  0  0  0  0
   12.9902    1.5204    0.0000 C   0  0  0  0  0  0  0  0  0  0  0  0
    5.1280   -0.0138    0.0000 C   0  0  0  0  0  0  0  0  0  0  0  0
    5.9998   -1.5104    0.0000 C   0  0  0  0  0  0  0  0  0  0  0  0
   13.8562    1.0204    0.0000 C   0  0  0  0  0  0  0  0  0  0  0  0
   12.9902    2.5204    0.0000 C   0  0  0  0  0  0  0  0  0  0  0  0
    4.2678   -1.5171    0.0000 C   0  0  0  0  0  0  0  0  0  0  0  0
    4.2639   -0.5171    0.0000 C   0  0  0  0  0  0  0  0  0  0  0  0
    5.1357   -2.0137    0.0000 C   0  0  0  0  0  0  0  0  0  0  0  0
   14.7222    1.5204    0.0000 C   0  0  0  0  0  0  0  0  0  0  0  0
   13.8562    3.0204    0.0000 C   0  0  0  0  0  0  0  0  0  0  0  0
   14.7222    2.5204    0.0000 C   0  0  0  0  0  0  0  0  0  0  0  0
    3.4037   -2.0204    0.0000 C   0  0  0  0  0  0  0  0  0  0  0  0
    7.3313   -0.9802    0.0000 H   0  0  0  0  0  0  0  0  0  0  0  0
    8.1284   -0.9771    0.0000 H   0  0  0  0  0  0  0  0  0  0  0  0
    9.5053   -1.1342    0.0000 H   0  0  0  0  0  0  0  0  0  0  0  0
    8.0564    1.3533    0.0000 H   0  0  0  0  0  0  0  0  0  0  0  0
    9.5053    2.1750    0.0000 H   0  0  0  0  0  0  0  0  0  0  0  0
    6.8577    0.6129    0.0000 H   0  0  0  0  0  0  0  0  0  0  0  0
    5.1256    0.6062    0.0000 H   0  0  0  0  0  0  0  0  0  0  0  0
    6.5379   -1.8183    0.0000 H   0  0  0  0  0  0  0  0  0  0  0  0
   13.8562    0.4004    0.0000 H   0  0  0  0  0  0  0  0  0  0  0  0
   12.4532    2.8304    0.0000 H   0  0  0  0  0  0  0  0  0  0  0  0
    3.7258   -0.2092    0.0000 H   0  0  0  0  0  0  0  0  0  0  0  0
    5.1381   -2.6337    0.0000 H   0  0  0  0  0  0  0  0  0  0  0  0
   12.9902   -1.0996    0.0000 H   0  0  0  0  0  0  0  0  0  0  0  0
   13.5271   -0.1696    0.0000 H   0  0  0  0  0  0  0  0  0  0  0  0
   15.2592    1.2104    0.0000 H   0  0  0  0  0  0  0  0  0  0  0  0
   13.8562    3.6404    0.0000 H   0  0  0  0  0  0  0  0  0  0  0  0
   15.2592    2.8304    0.0000 H   0  0  0  0  0  0  0  0  0  0  0  0
    2.0000   -1.8358    0.0000 H   0  0  0  0  0  0  0  0  0  0  0  0
  1 28  1  0  0  0  0
  1 46  1  0  0  0  0
  2 28  2  0  0  0  0
  3  8  1  0  0  0  0
  3 15  1  0  0  0  0
  3 34  1  0  0  0  0
  4 10  1  0  0  0  0
  4 14  2  0  0  0  0
  5  9  1  0  0  0  0
  5 16  2  0  0  0  0
  6 16  1  0  0  0  0
  6 41  1  0  0  0  0
  6 42  1  0  0  0  0
  7  8  1  0  0  0  0
  7 11  2  0  0  0  0
  7 12  1  0  0  0  0
  8 29  1  0  0  0  0
  8 30  1  0  0  0  0
  9 10  2  0  0  0  0
  9 11  1  0  0  0  0
 10 13  1  0  0  0  0
 11 31  1  0  0  0  0
 12 13  2  0  0  0  0
 12 32  1  0  0  0  0
 13 33  1  0  0  0  0
 14 16  1  0  0  0  0
 14 17  1  0  0  0  0
 15 18  2  0  0  0  0
 15 19  1  0  0  0  0
 17 20  2  0  0  0  0
 17 21  1  0  0  0  0
 18 23  1  0  0  0  0
 18 35  1  0  0  0  0
 19 24  2  0  0  0  0
 19 36  1  0  0  0  0
 20 25  1  0  0  0  0
 20 37  1  0  0  0  0
 21 26  2  0  0  0  0
 21 38  1  0  0  0  0
 22 23  2  0  0  0  0
 22 24  1  0  0  0  0
 22 28  1  0  0  0  0
 23 39  1  0  0  0  0
 24 40  1  0  0  0  0
 25 27  2  0  0  0  0
 25 43  1  0  0  0  0
 26 27  1  0  0  0  0
 26 44  1  0  0  0  0
 27 45  1  0  0  0  0
M  END
>  <PUBCHEM_COMPOUND_CID>
380468

>  <PUBCHEM_COMPOUND_CANONICALIZED>
1

>  <PUBCHEM_CACTVS_COMPLEXITY>
517

>  <PUBCHEM_CACTVS_HBOND_ACCEPTOR>
6

>  <PUBCHEM_CACTVS_HBOND_DONOR>
3

>  <PUBCHEM_CACTVS_ROTATABLE_BOND>
5

>  <PUBCHEM_CACTVS_SUBSKEYS>
AAADceB7sAAAAAAAAAAAAAAAAAAAAAAAAAA8YMEAAAAAAACx9AAAHgAQCAAADAjBngQx+LLIEgCoAybybACCgC0lEiAImKE4fNiIZvLAlZGUcQhk0API2aeY2aOeCAAAQAAAACAQAACAAAAAQAAAAAAAAA==

>  <PUBCHEM_IUPAC_OPENEYE_NAME>
4-[(3-amino-2-phenyl-quinoxalin-6-yl)methylamino]benzoic acid

>  <PUBCHEM_IUPAC_CAS_NAME>
4-[(3-amino-2-phenyl-6-quinoxalinyl)methylamino]benzoic acid

>  <PUBCHEM_IUPAC_NAME>
4-[(3-amino-2-phenylquinoxalin-6-yl)methylamino]benzoic acid

>  <PUBCHEM_IUPAC_SYSTEMATIC_NAME>
4-[(3-azanyl-2-phenyl-quinoxalin-6-yl)methylamino]benzoic acid

>  <PUBCHEM_IUPAC_TRADITIONAL_NAME>
4-[(3-amino-2-phenyl-quinoxalin-6-yl)methylamino]benzoic acid

>  <PUBCHEM_IUPAC_INCHI>
InChI=1S/C22H18N4O2/c23-21-20(15-4-2-1-3-5-15)25-18-11-6-14(12-19(18)26-21)13-24-17-9-7-16(8-10-17)22(27)28/h1-12,24H,13H2,(H2,23,26)(H,27,28)

>  <PUBCHEM_IUPAC_INCHIKEY>
VKJYCGOMVZQVLV-UHFFFAOYSA-N

>  <PUBCHEM_XLOGP3_AA>
3.5

>  <PUBCHEM_EXACT_MASS>
370.143

>  <PUBCHEM_MOLECULAR_FORMULA>
C22H18N4O2

>  <PUBCHEM_MOLECULAR_WEIGHT>
370.412

>  <PUBCHEM_OPENEYE_CAN_SMILES>
C1=CC=C(C=C1)C2=NC3=C(C=C(C=C3)CNC4=CC=C(C=C4)C(=O)O)N=C2N

>  <PUBCHEM_OPENEYE_ISO_SMILES>
C1=CC=C(C=C1)C2=NC3=C(C=C(C=C3)CNC4=CC=C(C=C4)C(=O)O)N=C2N

>  <PUBCHEM_CACTVS_TPSA>
101

>  <PUBCHEM_MONOISOTOPIC_WEIGHT>
370.143

>  <PUBCHEM_TOTAL_CHARGE>
0

>  <PUBCHEM_HEAVY_ATOM_COUNT>
28

>  <PUBCHEM_ATOM_DEF_STEREO_COUNT>
0

>  <PUBCHEM_ATOM_UDEF_STEREO_COUNT>
0

>  <PUBCHEM_BOND_DEF_STEREO_COUNT>
0

>  <PUBCHEM_BOND_UDEF_STEREO_COUNT>
0

>  <PUBCHEM_ISOTOPIC_ATOM_COUNT>
0

>  <PUBCHEM_COMPONENT_COUNT>
1

>  <PUBCHEM_CACTVS_TAUTO_COUNT>
6

>  <PUBCHEM_COORDINATE_TYPE>
1
5
255

>  <PUBCHEM_BONDANNOTATIONS>
10  13  8
12  13  8
14  16  8
15  18  8
15  19  8
17  20  8
17  21  8
18  23  8
19  24  8
20  25  8
21  26  8
22  23  8
22  24  8
25  27  8
26  27  8
4  10  8
4  14  8
5  16  8
5  9  8
7  11  8
7  12  8
9  10  8
9  11  8

$$$$
