382711
 OpenBabel06101807152D

 94 96  0  0  1  0  0  0  0  0999 V2000
    9.9282   -2.5000    0.0000 O   0  0  0  0  0  0  0  0  0  0  0  0
    6.4641   -3.5000    0.0000 O   0  0  0  0  0  0  0  0  0  0  0  0
    9.0622   -1.0000    0.0000 O   0  0  0  0  0  0  0  0  0  0  0  0
    5.5981    2.0000    0.0000 O   0  0  0  0  0  0  0  0  0  0  0  0
    3.0000    2.5000    0.0000 O   0  0  0  0  0  0  0  0  0  0  0  0
    3.8660   -1.0000    0.0000 O   0  0  0  0  0  0  0  0  0  0  0  0
    4.7320    2.5000    0.0000 O   0  0  0  0  0  0  0  0  0  0  0  0
    7.3301   -2.0000    0.0000 N   0  0  0  0  0  0  0  0  0  0  0  0
    5.5981   -1.0000    0.0000 N   0  0  0  0  0  0  0  0  0  0  0  0
    3.8660    1.0000    0.0000 N   0  0  0  0  0  0  0  0  0  0  0  0
    8.1962   -3.5000    0.0000 C   0  0  0  0  0  0  0  0  0  0  0  0
    8.1962   -2.5000    0.0000 C   0  0  3  0  0  0  0  0  0  0  0  0
    9.0622   -4.0000    0.0000 C   0  0  0  0  0  0  0  0  0  0  0  0
    5.5981   -2.0000    0.0000 C   0  0  3  0  0  0  0  0  0  0  0  0
    6.4641   -2.5000    0.0000 C   0  0  0  0  0  0  0  0  0  0  0  0
    4.7320   -2.5000    0.0000 C   0  0  0  0  0  0  0  0  0  0  0  0
    9.0622   -5.0000    0.0000 C   0  0  0  0  0  0  0  0  0  0  0  0
    9.9282   -3.5000    0.0000 C   0  0  0  0  0  0  0  0  0  0  0  0
    9.0622   -2.0000    0.0000 C   0  0  0  0  0  0  0  0  0  0  0  0
    4.7320    0.5000    0.0000 C   0  0  3  0  0  0  0  0  0  0  0  0
    4.7320   -3.5000    0.0000 C   0  0  0  0  0  0  0  0  0  0  0  0
    4.7320   -0.5000    0.0000 C   0  0  0  0  0  0  0  0  0  0  0  0
    5.5981    1.0000    0.0000 C   0  0  0  0  0  0  0  0  0  0  0  0
    3.8660   -4.0000    0.0000 C   0  0  0  0  0  0  0  0  0  0  0  0
    5.5981   -4.0000    0.0000 C   0  0  0  0  0  0  0  0  0  0  0  0
    3.0000    3.5000    0.0000 C   0  0  0  0  0  0  0  0  0  0  0  0
   10.7942   -2.0000    0.0000 C   0  0  0  0  0  0  0  0  0  0  0  0
    3.8660    2.0000    0.0000 C   0  0  0  0  0  0  0  0  0  0  0  0
    3.8660   -5.0000    0.0000 C   0  0  0  0  0  0  0  0  0  0  0  0
    5.5981   -5.0000    0.0000 C   0  0  0  0  0  0  0  0  0  0  0  0
    3.0000    4.5000    0.0000 C   0  0  0  0  0  0  0  0  0  0  0  0
    2.0000    3.5000    0.0000 C   0  0  0  0  0  0  0  0  0  0  0  0
    4.0000    3.5000    0.0000 C   0  0  0  0  0  0  0  0  0  0  0  0
    4.7320   -5.5000    0.0000 C   0  0  0  0  0  0  0  0  0  0  0  0
   11.6603   -2.5000    0.0000 C   0  0  0  0  0  0  0  0  0  0  0  0
    6.4641    2.5000    0.0000 C   0  0  0  0  0  0  0  0  0  0  0  0
    6.4641    3.5000    0.0000 C   0  0  0  0  0  0  0  0  0  0  0  0
   11.6603   -3.5000    0.0000 C   0  0  0  0  0  0  0  0  0  0  0  0
   12.5263   -2.0000    0.0000 C   0  0  0  0  0  0  0  0  0  0  0  0
    5.5981    4.0000    0.0000 C   0  0  0  0  0  0  0  0  0  0  0  0
    7.3301    4.0000    0.0000 C   0  0  0  0  0  0  0  0  0  0  0  0
   12.5263   -4.0000    0.0000 C   0  0  0  0  0  0  0  0  0  0  0  0
   13.3923   -2.5000    0.0000 C   0  0  0  0  0  0  0  0  0  0  0  0
   13.3923   -3.5000    0.0000 C   0  0  0  0  0  0  0  0  0  0  0  0
    5.5981    5.0000    0.0000 C   0  0  0  0  0  0  0  0  0  0  0  0
    7.3301    5.0000    0.0000 C   0  0  0  0  0  0  0  0  0  0  0  0
    6.4641    5.5000    0.0000 C   0  0  0  0  0  0  0  0  0  0  0  0
    7.5856   -3.3923    0.0000 H   0  0  0  0  0  0  0  0  0  0  0  0
    7.9841   -4.0826    0.0000 H   0  0  0  0  0  0  0  0  0  0  0  0
    7.6592   -2.8100    0.0000 H   0  0  0  0  0  0  0  0  0  0  0  0
    8.5252   -4.3100    0.0000 H   0  0  0  0  0  0  0  0  0  0  0  0
    6.1350   -1.6900    0.0000 H   0  0  0  0  0  0  0  0  0  0  0  0
    7.3301   -1.3800    0.0000 H   0  0  0  0  0  0  0  0  0  0  0  0
    4.5200   -1.9174    0.0000 H   0  0  0  0  0  0  0  0  0  0  0  0
    4.1215   -2.6077    0.0000 H   0  0  0  0  0  0  0  0  0  0  0  0
    8.4422   -5.0000    0.0000 H   0  0  0  0  0  0  0  0  0  0  0  0
    9.0622   -5.6200    0.0000 H   0  0  0  0  0  0  0  0  0  0  0  0
    9.6822   -5.0000    0.0000 H   0  0  0  0  0  0  0  0  0  0  0  0
   10.2382   -4.0369    0.0000 H   0  0  0  0  0  0  0  0  0  0  0  0
   10.4651   -3.1900    0.0000 H   0  0  0  0  0  0  0  0  0  0  0  0
    9.6182   -2.9631    0.0000 H   0  0  0  0  0  0  0  0  0  0  0  0
    6.1350   -0.6900    0.0000 H   0  0  0  0  0  0  0  0  0  0  0  0
    4.7320    1.1200    0.0000 H   0  0  0  0  0  0  0  0  0  0  0  0
    5.8101    0.4174    0.0000 H   0  0  0  0  0  0  0  0  0  0  0  0
    6.2087    1.1077    0.0000 H   0  0  0  0  0  0  0  0  0  0  0  0
    3.3291    0.6900    0.0000 H   0  0  0  0  0  0  0  0  0  0  0  0
    3.3291   -3.6900    0.0000 H   0  0  0  0  0  0  0  0  0  0  0  0
    6.1350   -3.6900    0.0000 H   0  0  0  0  0  0  0  0  0  0  0  0
   11.1928   -1.5250    0.0000 H   0  0  0  0  0  0  0  0  0  0  0  0
   10.3957   -1.5250    0.0000 H   0  0  0  0  0  0  0  0  0  0  0  0
    3.3291   -5.3100    0.0000 H   0  0  0  0  0  0  0  0  0  0  0  0
    6.1350   -5.3100    0.0000 H   0  0  0  0  0  0  0  0  0  0  0  0
    3.6200    4.5000    0.0000 H   0  0  0  0  0  0  0  0  0  0  0  0
    3.0000    5.1200    0.0000 H   0  0  0  0  0  0  0  0  0  0  0  0
    2.3800    4.5000    0.0000 H   0  0  0  0  0  0  0  0  0  0  0  0
    2.0000    4.1200    0.0000 H   0  0  0  0  0  0  0  0  0  0  0  0
    1.3800    3.5000    0.0000 H   0  0  0  0  0  0  0  0  0  0  0  0
    2.0000    2.8800    0.0000 H   0  0  0  0  0  0  0  0  0  0  0  0
    4.0000    2.8800    0.0000 H   0  0  0  0  0  0  0  0  0  0  0  0
    4.6200    3.5000    0.0000 H   0  0  0  0  0  0  0  0  0  0  0  0
    4.0000    4.1200    0.0000 H   0  0  0  0  0  0  0  0  0  0  0  0
    4.7320   -6.1200    0.0000 H   0  0  0  0  0  0  0  0  0  0  0  0
    6.6762    1.9174    0.0000 H   0  0  0  0  0  0  0  0  0  0  0  0
    7.0747    2.6077    0.0000 H   0  0  0  0  0  0  0  0  0  0  0  0
   11.1233   -3.8100    0.0000 H   0  0  0  0  0  0  0  0  0  0  0  0
   12.5263   -1.3800    0.0000 H   0  0  0  0  0  0  0  0  0  0  0  0
    5.0611    3.6900    0.0000 H   0  0  0  0  0  0  0  0  0  0  0  0
    7.8671    3.6900    0.0000 H   0  0  0  0  0  0  0  0  0  0  0  0
   12.5263   -4.6200    0.0000 H   0  0  0  0  0  0  0  0  0  0  0  0
   13.9292   -2.1900    0.0000 H   0  0  0  0  0  0  0  0  0  0  0  0
   13.9292   -3.8100    0.0000 H   0  0  0  0  0  0  0  0  0  0  0  0
    5.0611    5.3100    0.0000 H   0  0  0  0  0  0  0  0  0  0  0  0
    7.8671    5.3100    0.0000 H   0  0  0  0  0  0  0  0  0  0  0  0
    6.4641    6.1200    0.0000 H   0  0  0  0  0  0  0  0  0  0  0  0
  1 19  1  0  0  0  0
  1 27  1  0  0  0  0
  2 15  2  0  0  0  0
  3 19  2  0  0  0  0
  4 23  1  0  0  0  0
  4 36  1  0  0  0  0
  5 26  1  0  0  0  0
  5 28  1  0  0  0  0
  6 22  2  0  0  0  0
  7 28  2  0  0  0  0
  8 12  1  0  0  0  0
  8 15  1  0  0  0  0
  8 53  1  0  0  0  0
  9 14  1  0  0  0  0
  9 22  1  0  0  0  0
  9 62  1  0  0  0  0
 10 20  1  0  0  0  0
 10 28  1  0  0  0  0
 10 66  1  0  0  0  0
 11 12  1  0  0  0  0
 11 13  1  0  0  0  0
 11 48  1  0  0  0  0
 11 49  1  0  0  0  0
 12 19  1  0  0  0  0
 12 50  1  0  0  0  0
 13 17  1  0  0  0  0
 13 18  1  0  0  0  0
 13 51  1  0  0  0  0
 14 15  1  0  0  0  0
 14 16  1  0  0  0  0
 14 52  1  0  0  0  0
 16 21  1  0  0  0  0
 16 54  1  0  0  0  0
 16 55  1  0  0  0  0
 17 56  1  0  0  0  0
 17 57  1  0  0  0  0
 17 58  1  0  0  0  0
 18 59  1  0  0  0  0
 18 60  1  0  0  0  0
 18 61  1  0  0  0  0
 20 22  1  0  0  0  0
 20 23  1  0  0  0  0
 20 63  1  0  0  0  0
 21 24  2  0  0  0  0
 21 25  1  0  0  0  0
 23 64  1  0  0  0  0
 23 65  1  0  0  0  0
 24 29  1  0  0  0  0
 24 67  1  0  0  0  0
 25 30  2  0  0  0  0
 25 68  1  0  0  0  0
 26 31  1  0  0  0  0
 26 32  1  0  0  0  0
 26 33  1  0  0  0  0
 27 35  1  0  0  0  0
 27 69  1  0  0  0  0
 27 70  1  0  0  0  0
 29 34  2  0  0  0  0
 29 71  1  0  0  0  0
 30 34  1  0  0  0  0
 30 72  1  0  0  0  0
 31 73  1  0  0  0  0
 31 74  1  0  0  0  0
 31 75  1  0  0  0  0
 32 76  1  0  0  0  0
 32 77  1  0  0  0  0
 32 78  1  0  0  0  0
 33 79  1  0  0  0  0
 33 80  1  0  0  0  0
 33 81  1  0  0  0  0
 34 82  1  0  0  0  0
 35 38  2  0  0  0  0
 35 39  1  0  0  0  0
 36 37  1  0  0  0  0
 36 83  1  0  0  0  0
 36 84  1  0  0  0  0
 37 40  2  0  0  0  0
 37 41  1  0  0  0  0
 38 42  1  0  0  0  0
 38 85  1  0  0  0  0
 39 43  2  0  0  0  0
 39 86  1  0  0  0  0
 40 45  1  0  0  0  0
 40 87  1  0  0  0  0
 41 46  2  0  0  0  0
 41 88  1  0  0  0  0
 42 44  2  0  0  0  0
 42 89  1  0  0  0  0
 43 44  1  0  0  0  0
 43 90  1  0  0  0  0
 44 91  1  0  0  0  0
 45 47  2  0  0  0  0
 45 92  1  0  0  0  0
 46 47  1  0  0  0  0
 46 93  1  0  0  0  0
 47 94  1  0  0  0  0
M  END
>  <PUBCHEM_COMPOUND_CID>
382711

>  <PUBCHEM_COMPOUND_CANONICALIZED>
1

>  <PUBCHEM_CACTVS_COMPLEXITY>
964

>  <PUBCHEM_CACTVS_HBOND_ACCEPTOR>
7

>  <PUBCHEM_CACTVS_HBOND_DONOR>
3

>  <PUBCHEM_CACTVS_ROTATABLE_BOND>
19

>  <PUBCHEM_CACTVS_SUBSKEYS>
AAADcfB/OAAAAAAAAAAAAAAAAAAAAAAAAAAwYMAAAAAAAAABUAAAHgAQAAAADWzhmAYyCILABACIAiHSGAACAAAgAAAIiIGICIkKZjaAsTmfMAAm9gGYqAeYyKCOAAAAAAAAAAAAAAAAAAAAAAAAAAAAAA==

>  <PUBCHEM_IUPAC_OPENEYE_NAME>
benzyl 2-[[2-[[3-benzyloxy-2-(tert-butoxycarbonylamino)propanoyl]amino]-3-phenyl-propanoyl]amino]-4-methyl-pentanoate

>  <PUBCHEM_IUPAC_CAS_NAME>
4-methyl-2-[[2-[[2-[[(2-methylpropan-2-yl)oxy-oxomethyl]amino]-1-oxo-3-phenylmethoxypropyl]amino]-1-oxo-3-phenylpropyl]amino]pentanoic acid (phenylmethyl) ester

>  <PUBCHEM_IUPAC_NAME>
benzyl 4-methyl-2-[[2-[[2-[(2-methylpropan-2-yl)oxycarbonylamino]-3-phenylmethoxypropanoyl]amino]-3-phenylpropanoyl]amino]pentanoate

>  <PUBCHEM_IUPAC_SYSTEMATIC_NAME>
(phenylmethyl) 4-methyl-2-[[2-[[2-[(2-methylpropan-2-yl)oxycarbonylamino]-3-phenylmethoxy-propanoyl]amino]-3-phenyl-propanoyl]amino]pentanoate

>  <PUBCHEM_IUPAC_TRADITIONAL_NAME>
2-[[2-[[3-benzoxy-2-(tert-butoxycarbonylamino)propanoyl]amino]-3-phenyl-propanoyl]amino]-4-methyl-valeric acid benzyl ester

>  <PUBCHEM_IUPAC_INCHI>
InChI=1S/C37H47N3O7/c1-26(2)21-31(35(43)46-24-29-19-13-8-14-20-29)39-33(41)30(22-27-15-9-6-10-16-27)38-34(42)32(40-36(44)47-37(3,4)5)25-45-23-28-17-11-7-12-18-28/h6-20,26,30-32H,21-25H2,1-5H3,(H,38,42)(H,39,41)(H,40,44)

>  <PUBCHEM_IUPAC_INCHIKEY>
QRTAICOFOHHOKD-UHFFFAOYSA-N

>  <PUBCHEM_XLOGP3_AA>
6.1

>  <PUBCHEM_EXACT_MASS>
645.341

>  <PUBCHEM_MOLECULAR_FORMULA>
C37H47N3O7

>  <PUBCHEM_MOLECULAR_WEIGHT>
645.797

>  <PUBCHEM_OPENEYE_CAN_SMILES>
CC(C)CC(C(=O)OCC1=CC=CC=C1)NC(=O)C(CC2=CC=CC=C2)NC(=O)C(COCC3=CC=CC=C3)NC(=O)OC(C)(C)C

>  <PUBCHEM_OPENEYE_ISO_SMILES>
CC(C)CC(C(=O)OCC1=CC=CC=C1)NC(=O)C(CC2=CC=CC=C2)NC(=O)C(COCC3=CC=CC=C3)NC(=O)OC(C)(C)C

>  <PUBCHEM_CACTVS_TPSA>
132

>  <PUBCHEM_MONOISOTOPIC_WEIGHT>
645.341

>  <PUBCHEM_TOTAL_CHARGE>
0

>  <PUBCHEM_HEAVY_ATOM_COUNT>
47

>  <PUBCHEM_ATOM_DEF_STEREO_COUNT>
0

>  <PUBCHEM_ATOM_UDEF_STEREO_COUNT>
3

>  <PUBCHEM_BOND_DEF_STEREO_COUNT>
0

>  <PUBCHEM_BOND_UDEF_STEREO_COUNT>
0

>  <PUBCHEM_ISOTOPIC_ATOM_COUNT>
0

>  <PUBCHEM_COMPONENT_COUNT>
1

>  <PUBCHEM_CACTVS_TAUTO_COUNT>
8

>  <PUBCHEM_COORDINATE_TYPE>
1
5
255

>  <PUBCHEM_BONDANNOTATIONS>
12  11  3
14  16  3
20  23  3
21  24  8
21  25  8
24  29  8
25  30  8
29  34  8
30  34  8
35  38  8
35  39  8
37  40  8
37  41  8
38  42  8
39  43  8
40  45  8
41  46  8
42  44  8
43  44  8
45  47  8
46  47  8

$$$$
