386319
 OpenBabel06101807152D

 46 49  0  0  0  0  0  0  0  0999 V2000
    6.3981   -1.0000    0.0000 O   0  0  0  0  0  0  0  0  0  0  0  0
   10.8084   -0.6953    0.0000 O   0  0  0  0  0  0  0  0  0  0  0  0
   10.8084   -2.3047    0.0000 O   0  0  0  0  0  0  0  0  0  0  0  0
    8.1301    1.0000    0.0000 O   0  0  0  0  0  0  0  0  0  0  0  0
    4.6497   -2.0346    0.0000 O   0  0  0  0  0  0  0  0  0  0  0  0
    4.6497    2.0346    0.0000 O   0  0  0  0  0  0  0  0  0  0  0  0
    2.8680   -1.0241    0.0000 O   0  0  0  0  0  0  0  0  0  0  0  0
    6.3981    2.0000    0.0000 O   0  0  0  0  0  0  0  0  0  0  0  0
    5.5320    0.5000    0.0000 C   0  0  0  0  0  0  0  0  0  0  0  0
    5.5320   -0.5000    0.0000 C   0  0  0  0  0  0  0  0  0  0  0  0
    7.2641   -0.5000    0.0000 C   0  0  0  0  0  0  0  0  0  0  0  0
    8.1301   -1.0000    0.0000 C   0  0  0  0  0  0  0  0  0  0  0  0
    7.2641    0.5000    0.0000 C   0  0  0  0  0  0  0  0  0  0  0  0
    6.3981    1.0000    0.0000 C   0  0  0  0  0  0  0  0  0  0  0  0
    4.6381   -1.0347    0.0000 C   0  0  0  0  0  0  0  0  0  0  0  0
    4.6381    1.0347    0.0000 C   0  0  0  0  0  0  0  0  0  0  0  0
    8.9962   -0.5000    0.0000 C   0  0  0  0  0  0  0  0  0  0  0  0
    9.8622   -1.0000    0.0000 C   0  0  0  0  0  0  0  0  0  0  0  0
    3.7320   -0.5208    0.0000 C   0  0  0  0  0  0  0  0  0  0  0  0
    3.7320    0.5208    0.0000 C   0  0  0  0  0  0  0  0  0  0  0  0
    9.8622   -2.0000    0.0000 C   0  0  0  0  0  0  0  0  0  0  0  0
    8.1301   -2.0000    0.0000 C   0  0  0  0  0  0  0  0  0  0  0  0
    8.9962   -2.5000    0.0000 C   0  0  0  0  0  0  0  0  0  0  0  0
   11.3920   -1.5000    0.0000 C   0  0  0  0  0  0  0  0  0  0  0  0
    8.1301    2.0000    0.0000 C   0  0  0  0  0  0  0  0  0  0  0  0
    3.7895   -2.5446    0.0000 C   0  0  0  0  0  0  0  0  0  0  0  0
    3.7895    2.5446    0.0000 C   0  0  0  0  0  0  0  0  0  0  0  0
    2.0000   -0.5275    0.0000 C   0  0  0  0  0  0  0  0  0  0  0  0
    8.9962    0.1200    0.0000 H   0  0  0  0  0  0  0  0  0  0  0  0
    3.1963    0.8329    0.0000 H   0  0  0  0  0  0  0  0  0  0  0  0
    7.5932   -2.3100    0.0000 H   0  0  0  0  0  0  0  0  0  0  0  0
    8.9962   -3.1200    0.0000 H   0  0  0  0  0  0  0  0  0  0  0  0
   11.8529   -1.9147    0.0000 H   0  0  0  0  0  0  0  0  0  0  0  0
   11.8529   -1.0853    0.0000 H   0  0  0  0  0  0  0  0  0  0  0  0
    8.7501    2.0000    0.0000 H   0  0  0  0  0  0  0  0  0  0  0  0
    8.1301    2.6200    0.0000 H   0  0  0  0  0  0  0  0  0  0  0  0
    7.5101    2.0000    0.0000 H   0  0  0  0  0  0  0  0  0  0  0  0
    3.4733   -2.0113    0.0000 H   0  0  0  0  0  0  0  0  0  0  0  0
    3.2562   -2.8608    0.0000 H   0  0  0  0  0  0  0  0  0  0  0  0
    4.1057   -3.0779    0.0000 H   0  0  0  0  0  0  0  0  0  0  0  0
    4.1057    3.0779    0.0000 H   0  0  0  0  0  0  0  0  0  0  0  0
    3.2562    2.8608    0.0000 H   0  0  0  0  0  0  0  0  0  0  0  0
    3.4733    2.0113    0.0000 H   0  0  0  0  0  0  0  0  0  0  0  0
    2.3079    0.0106    0.0000 H   0  0  0  0  0  0  0  0  0  0  0  0
    1.4619   -0.2196    0.0000 H   0  0  0  0  0  0  0  0  0  0  0  0
    1.6921   -1.0656    0.0000 H   0  0  0  0  0  0  0  0  0  0  0  0
  1 10  1  0  0  0  0
  1 11  1  0  0  0  0
  2 18  1  0  0  0  0
  2 24  1  0  0  0  0
  3 21  1  0  0  0  0
  3 24  1  0  0  0  0
  4 13  1  0  0  0  0
  4 25  1  0  0  0  0
  5 15  1  0  0  0  0
  5 26  1  0  0  0  0
  6 16  1  0  0  0  0
  6 27  1  0  0  0  0
  7 19  1  0  0  0  0
  7 28  1  0  0  0  0
  8 14  2  0  0  0  0
  9 10  2  0  0  0  0
  9 14  1  0  0  0  0
  9 16  1  0  0  0  0
 10 15  1  0  0  0  0
 11 12  1  0  0  0  0
 11 13  2  0  0  0  0
 12 17  2  0  0  0  0
 12 22  1  0  0  0  0
 13 14  1  0  0  0  0
 15 19  2  0  0  0  0
 16 20  2  0  0  0  0
 17 18  1  0  0  0  0
 17 29  1  0  0  0  0
 18 21  2  0  0  0  0
 19 20  1  0  0  0  0
 20 30  1  0  0  0  0
 21 23  1  0  0  0  0
 22 23  2  0  0  0  0
 22 31  1  0  0  0  0
 23 32  1  0  0  0  0
 24 33  1  0  0  0  0
 24 34  1  0  0  0  0
 25 35  1  0  0  0  0
 25 36  1  0  0  0  0
 25 37  1  0  0  0  0
 26 38  1  0  0  0  0
 26 39  1  0  0  0  0
 26 40  1  0  0  0  0
 27 41  1  0  0  0  0
 27 42  1  0  0  0  0
 27 43  1  0  0  0  0
 28 44  1  0  0  0  0
 28 45  1  0  0  0  0
 28 46  1  0  0  0  0
M  END
>  <PUBCHEM_COMPOUND_CID>
386319

>  <PUBCHEM_COMPOUND_CANONICALIZED>
1

>  <PUBCHEM_CACTVS_COMPLEXITY>
619

>  <PUBCHEM_CACTVS_HBOND_ACCEPTOR>
8

>  <PUBCHEM_CACTVS_HBOND_DONOR>
0

>  <PUBCHEM_CACTVS_ROTATABLE_BOND>
5

>  <PUBCHEM_CACTVS_SUBSKEYS>
AAADceB4PAAAAAAAAAAAAAAAAAAAASAAAAAwYIAAAAAAAEiBQAAAGgAAAAAADASAmAMyDoAABACIAqBSAAICCAAkIAAIiAFGiMgdJzaENR6iOWKl4BUOqQfK7LzOIQABCAAIQABCAAIQABCAAAAAAAAAAA==

>  <PUBCHEM_IUPAC_OPENEYE_NAME>
2-(1,3-benzodioxol-5-yl)-3,5,7,8-tetramethoxy-chromen-4-one

>  <PUBCHEM_IUPAC_CAS_NAME>
2-(1,3-benzodioxol-5-yl)-3,5,7,8-tetramethoxy-1-benzopyran-4-one

>  <PUBCHEM_IUPAC_NAME>
2-(1,3-benzodioxol-5-yl)-3,5,7,8-tetramethoxychromen-4-one

>  <PUBCHEM_IUPAC_SYSTEMATIC_NAME>
2-(1,3-benzodioxol-5-yl)-3,5,7,8-tetramethoxy-chromen-4-one

>  <PUBCHEM_IUPAC_TRADITIONAL_NAME>
2-(1,3-benzodioxol-5-yl)-3,5,7,8-tetramethoxy-chromone

>  <PUBCHEM_IUPAC_INCHI>
InChI=1S/C20H18O8/c1-22-13-8-14(23-2)18(24-3)19-15(13)16(21)20(25-4)17(28-19)10-5-6-11-12(7-10)27-9-26-11/h5-8H,9H2,1-4H3

>  <PUBCHEM_IUPAC_INCHIKEY>
OHFDXRKYUVNEDD-UHFFFAOYSA-N

>  <PUBCHEM_XLOGP3_AA>
3.1

>  <PUBCHEM_EXACT_MASS>
386.1

>  <PUBCHEM_MOLECULAR_FORMULA>
C20H18O8

>  <PUBCHEM_MOLECULAR_WEIGHT>
386.356

>  <PUBCHEM_OPENEYE_CAN_SMILES>
COC1=CC(=C(C2=C1C(=O)C(=C(O2)C3=CC4=C(C=C3)OCO4)OC)OC)OC

>  <PUBCHEM_OPENEYE_ISO_SMILES>
COC1=CC(=C(C2=C1C(=O)C(=C(O2)C3=CC4=C(C=C3)OCO4)OC)OC)OC

>  <PUBCHEM_CACTVS_TPSA>
81.7

>  <PUBCHEM_MONOISOTOPIC_WEIGHT>
386.1

>  <PUBCHEM_TOTAL_CHARGE>
0

>  <PUBCHEM_HEAVY_ATOM_COUNT>
28

>  <PUBCHEM_ATOM_DEF_STEREO_COUNT>
0

>  <PUBCHEM_ATOM_UDEF_STEREO_COUNT>
0

>  <PUBCHEM_BOND_DEF_STEREO_COUNT>
0

>  <PUBCHEM_BOND_UDEF_STEREO_COUNT>
0

>  <PUBCHEM_ISOTOPIC_ATOM_COUNT>
0

>  <PUBCHEM_COMPONENT_COUNT>
1

>  <PUBCHEM_CACTVS_TAUTO_COUNT>
1

>  <PUBCHEM_COORDINATE_TYPE>
1
5
255

>  <PUBCHEM_BONDANNOTATIONS>
1  10  8
1  11  8
10  15  8
11  13  8
12  17  8
12  22  8
13  14  8
15  19  8
16  20  8
17  18  8
18  21  8
19  20  8
21  23  8
22  23  8
9  10  8
9  14  8
9  16  8

$$$$
