386323
 OpenBabel06101807152D

 50 53  0  0  0  0  0  0  0  0999 V2000
    6.3580   -1.0209    0.0000 O   0  0  0  0  0  0  0  0  0  0  0  0
    4.5981    2.0137    0.0000 O   0  0  0  0  0  0  0  0  0  0  0  0
    4.5981   -1.9863    0.0000 O   0  0  0  0  0  0  0  0  0  0  0  0
    8.1282    1.0379    0.0000 O   0  0  0  0  0  0  0  0  0  0  0  0
   10.8076   -0.7160    0.0000 O   0  0  0  0  0  0  0  0  0  0  0  0
   10.8014   -2.3255    0.0000 O   0  0  0  0  0  0  0  0  0  0  0  0
    2.8660    1.0137    0.0000 O   0  0  0  0  0  0  0  0  0  0  0  0
    2.8660   -0.9863    0.0000 O   0  0  0  0  0  0  0  0  0  0  0  0
    6.3465    2.0483    0.0000 O   0  0  0  0  0  0  0  0  0  0  0  0
    5.4641    0.5137    0.0000 C   0  0  0  0  0  0  0  0  0  0  0  0
    5.4641   -0.4863    0.0000 C   0  0  0  0  0  0  0  0  0  0  0  0
    7.2641   -0.5071    0.0000 C   0  0  0  0  0  0  0  0  0  0  0  0
    4.5981    1.0137    0.0000 C   0  0  0  0  0  0  0  0  0  0  0  0
    8.1282   -1.0104    0.0000 C   0  0  0  0  0  0  0  0  0  0  0  0
    4.5981   -0.9863    0.0000 C   0  0  0  0  0  0  0  0  0  0  0  0
    7.2641    0.5346    0.0000 C   0  0  0  0  0  0  0  0  0  0  0  0
    6.3580    1.0484    0.0000 C   0  0  0  0  0  0  0  0  0  0  0  0
    3.7320    0.5137    0.0000 C   0  0  0  0  0  0  0  0  0  0  0  0
    3.7320   -0.4863    0.0000 C   0  0  0  0  0  0  0  0  0  0  0  0
    8.9962   -0.5138    0.0000 C   0  0  0  0  0  0  0  0  0  0  0  0
    9.8602   -1.0171    0.0000 C   0  0  0  0  0  0  0  0  0  0  0  0
    8.1244   -2.0104    0.0000 C   0  0  0  0  0  0  0  0  0  0  0  0
    9.8564   -2.0171    0.0000 C   0  0  0  0  0  0  0  0  0  0  0  0
    8.9884   -2.5137    0.0000 C   0  0  0  0  0  0  0  0  0  0  0  0
   11.3881   -1.5230    0.0000 C   0  0  0  0  0  0  0  0  0  0  0  0
    3.7320    2.5137    0.0000 C   0  0  0  0  0  0  0  0  0  0  0  0
    3.7320   -2.4863    0.0000 C   0  0  0  0  0  0  0  0  0  0  0  0
    8.1244    2.0379    0.0000 C   0  0  0  0  0  0  0  0  0  0  0  0
    2.0000    0.5137    0.0000 C   0  0  0  0  0  0  0  0  0  0  0  0
    2.0000   -0.4863    0.0000 C   0  0  0  0  0  0  0  0  0  0  0  0
    8.9985    0.1062    0.0000 H   0  0  0  0  0  0  0  0  0  0  0  0
    7.5862   -2.3183    0.0000 H   0  0  0  0  0  0  0  0  0  0  0  0
    8.9860   -3.1337    0.0000 H   0  0  0  0  0  0  0  0  0  0  0  0
   11.8474   -1.9395    0.0000 H   0  0  0  0  0  0  0  0  0  0  0  0
   11.8506   -1.1100    0.0000 H   0  0  0  0  0  0  0  0  0  0  0  0
    4.0420    3.0507    0.0000 H   0  0  0  0  0  0  0  0  0  0  0  0
    3.1951    2.8237    0.0000 H   0  0  0  0  0  0  0  0  0  0  0  0
    3.4220    1.9768    0.0000 H   0  0  0  0  0  0  0  0  0  0  0  0
    3.4220   -1.9493    0.0000 H   0  0  0  0  0  0  0  0  0  0  0  0
    3.1951   -2.7963    0.0000 H   0  0  0  0  0  0  0  0  0  0  0  0
    4.0420   -3.0232    0.0000 H   0  0  0  0  0  0  0  0  0  0  0  0
    8.7443    2.0403    0.0000 H   0  0  0  0  0  0  0  0  0  0  0  0
    8.1220    2.6579    0.0000 H   0  0  0  0  0  0  0  0  0  0  0  0
    7.5044    2.0355    0.0000 H   0  0  0  0  0  0  0  0  0  0  0  0
    1.6900    1.0507    0.0000 H   0  0  0  0  0  0  0  0  0  0  0  0
    1.4631    0.2037    0.0000 H   0  0  0  0  0  0  0  0  0  0  0  0
    2.3100   -0.0232    0.0000 H   0  0  0  0  0  0  0  0  0  0  0  0
    2.3100    0.0507    0.0000 H   0  0  0  0  0  0  0  0  0  0  0  0
    1.4631   -0.1763    0.0000 H   0  0  0  0  0  0  0  0  0  0  0  0
    1.6900   -1.0232    0.0000 H   0  0  0  0  0  0  0  0  0  0  0  0
  1 11  1  0  0  0  0
  1 12  1  0  0  0  0
  2 13  1  0  0  0  0
  2 26  1  0  0  0  0
  3 15  1  0  0  0  0
  3 27  1  0  0  0  0
  4 16  1  0  0  0  0
  4 28  1  0  0  0  0
  5 21  1  0  0  0  0
  5 25  1  0  0  0  0
  6 23  1  0  0  0  0
  6 25  1  0  0  0  0
  7 18  1  0  0  0  0
  7 29  1  0  0  0  0
  8 19  1  0  0  0  0
  8 30  1  0  0  0  0
  9 17  2  0  0  0  0
 10 11  2  0  0  0  0
 10 13  1  0  0  0  0
 10 17  1  0  0  0  0
 11 15  1  0  0  0  0
 12 14  1  0  0  0  0
 12 16  2  0  0  0  0
 13 18  2  0  0  0  0
 14 20  2  0  0  0  0
 14 22  1  0  0  0  0
 15 19  2  0  0  0  0
 16 17  1  0  0  0  0
 18 19  1  0  0  0  0
 20 21  1  0  0  0  0
 20 31  1  0  0  0  0
 21 23  2  0  0  0  0
 22 24  2  0  0  0  0
 22 32  1  0  0  0  0
 23 24  1  0  0  0  0
 24 33  1  0  0  0  0
 25 34  1  0  0  0  0
 25 35  1  0  0  0  0
 26 36  1  0  0  0  0
 26 37  1  0  0  0  0
 26 38  1  0  0  0  0
 27 39  1  0  0  0  0
 27 40  1  0  0  0  0
 27 41  1  0  0  0  0
 28 42  1  0  0  0  0
 28 43  1  0  0  0  0
 28 44  1  0  0  0  0
 29 45  1  0  0  0  0
 29 46  1  0  0  0  0
 29 47  1  0  0  0  0
 30 48  1  0  0  0  0
 30 49  1  0  0  0  0
 30 50  1  0  0  0  0
M  END
>  <PUBCHEM_COMPOUND_CID>
386323

>  <PUBCHEM_COMPOUND_CANONICALIZED>
1

>  <PUBCHEM_CACTVS_COMPLEXITY>
665

>  <PUBCHEM_CACTVS_HBOND_ACCEPTOR>
9

>  <PUBCHEM_CACTVS_HBOND_DONOR>
0

>  <PUBCHEM_CACTVS_ROTATABLE_BOND>
6

>  <PUBCHEM_CACTVS_SUBSKEYS>
AAADceB4PAAAAAAAAAAAAAAAAAAAASAAAAAwYIAAAAAAAEiBQAAAGgAAAAAADASAmAMyDoAABACIAqBSAAICCAAkIAAIiAFGiMgdJzaENR6iOWKl4BUOqQfK7LzOIQABCAAIQABCAAIQABCAAAAAAAAAAA==

>  <PUBCHEM_IUPAC_OPENEYE_NAME>
2-(1,3-benzodioxol-5-yl)-3,5,6,7,8-pentamethoxy-chromen-4-one

>  <PUBCHEM_IUPAC_CAS_NAME>
2-(1,3-benzodioxol-5-yl)-3,5,6,7,8-pentamethoxy-1-benzopyran-4-one

>  <PUBCHEM_IUPAC_NAME>
2-(1,3-benzodioxol-5-yl)-3,5,6,7,8-pentamethoxychromen-4-one

>  <PUBCHEM_IUPAC_SYSTEMATIC_NAME>
2-(1,3-benzodioxol-5-yl)-3,5,6,7,8-pentamethoxy-chromen-4-one

>  <PUBCHEM_IUPAC_TRADITIONAL_NAME>
2-(1,3-benzodioxol-5-yl)-3,5,6,7,8-pentamethoxy-chromone

>  <PUBCHEM_IUPAC_INCHI>
InChI=1S/C21H20O9/c1-23-16-13-14(22)18(24-2)15(10-6-7-11-12(8-10)29-9-28-11)30-17(13)20(26-4)21(27-5)19(16)25-3/h6-8H,9H2,1-5H3

>  <PUBCHEM_IUPAC_INCHIKEY>
CRSVEURWRGBEIE-UHFFFAOYSA-N

>  <PUBCHEM_XLOGP3_AA>
3.1

>  <PUBCHEM_EXACT_MASS>
416.111

>  <PUBCHEM_MOLECULAR_FORMULA>
C21H20O9

>  <PUBCHEM_MOLECULAR_WEIGHT>
416.382

>  <PUBCHEM_OPENEYE_CAN_SMILES>
COC1=C(C(=C(C2=C1C(=O)C(=C(O2)C3=CC4=C(C=C3)OCO4)OC)OC)OC)OC

>  <PUBCHEM_OPENEYE_ISO_SMILES>
COC1=C(C(=C(C2=C1C(=O)C(=C(O2)C3=CC4=C(C=C3)OCO4)OC)OC)OC)OC

>  <PUBCHEM_CACTVS_TPSA>
90.9

>  <PUBCHEM_MONOISOTOPIC_WEIGHT>
416.111

>  <PUBCHEM_TOTAL_CHARGE>
0

>  <PUBCHEM_HEAVY_ATOM_COUNT>
30

>  <PUBCHEM_ATOM_DEF_STEREO_COUNT>
0

>  <PUBCHEM_ATOM_UDEF_STEREO_COUNT>
0

>  <PUBCHEM_BOND_DEF_STEREO_COUNT>
0

>  <PUBCHEM_BOND_UDEF_STEREO_COUNT>
0

>  <PUBCHEM_ISOTOPIC_ATOM_COUNT>
0

>  <PUBCHEM_COMPONENT_COUNT>
1

>  <PUBCHEM_CACTVS_TAUTO_COUNT>
1

>  <PUBCHEM_COORDINATE_TYPE>
1
5
255

>  <PUBCHEM_BONDANNOTATIONS>
1  11  8
1  12  8
10  11  8
10  13  8
10  17  8
11  15  8
12  16  8
13  18  8
14  20  8
14  22  8
15  19  8
16  17  8
18  19  8
20  21  8
21  23  8
22  24  8
23  24  8

$$$$
