386320
 OpenBabel06101807152D

 41 45  0  0  0  0  0  0  0  0999 V2000
    7.0301   -1.0209    0.0000 O   0  0  0  0  0  0  0  0  0  0  0  0
   10.6023    0.8185    0.0000 O   0  0  0  0  0  0  0  0  0  0  0  0
   10.6023   -0.7910    0.0000 O   0  0  0  0  0  0  0  0  0  0  0  0
    8.7901    2.0137    0.0000 O   0  0  0  0  0  0  0  0  0  0  0  0
    5.2599    1.0379    0.0000 O   0  0  0  0  0  0  0  0  0  0  0  0
    2.5805   -0.7160    0.0000 O   0  0  0  0  0  0  0  0  0  0  0  0
    2.5867   -2.3255    0.0000 O   0  0  0  0  0  0  0  0  0  0  0  0
    7.0416    2.0483    0.0000 O   0  0  0  0  0  0  0  0  0  0  0  0
    7.9240    0.5137    0.0000 C   0  0  0  0  0  0  0  0  0  0  0  0
    7.9240   -0.4863    0.0000 C   0  0  0  0  0  0  0  0  0  0  0  0
    8.7901    1.0137    0.0000 C   0  0  0  0  0  0  0  0  0  0  0  0
    9.6561    0.5137    0.0000 C   0  0  0  0  0  0  0  0  0  0  0  0
    6.1240   -0.5071    0.0000 C   0  0  0  0  0  0  0  0  0  0  0  0
    9.6561   -0.4863    0.0000 C   0  0  0  0  0  0  0  0  0  0  0  0
    5.2599   -1.0104    0.0000 C   0  0  0  0  0  0  0  0  0  0  0  0
    8.7901   -0.9863    0.0000 C   0  0  0  0  0  0  0  0  0  0  0  0
    7.0301    1.0484    0.0000 C   0  0  0  0  0  0  0  0  0  0  0  0
    6.1240    0.5346    0.0000 C   0  0  0  0  0  0  0  0  0  0  0  0
    4.3920   -0.5138    0.0000 C   0  0  0  0  0  0  0  0  0  0  0  0
    3.5279   -1.0171    0.0000 C   0  0  0  0  0  0  0  0  0  0  0  0
    5.2638   -2.0104    0.0000 C   0  0  0  0  0  0  0  0  0  0  0  0
   11.1859    0.0137    0.0000 C   0  0  0  0  0  0  0  0  0  0  0  0
    3.5317   -2.0171    0.0000 C   0  0  0  0  0  0  0  0  0  0  0  0
    4.3997   -2.5137    0.0000 C   0  0  0  0  0  0  0  0  0  0  0  0
    2.0000   -1.5230    0.0000 C   0  0  0  0  0  0  0  0  0  0  0  0
    9.6561    2.5137    0.0000 C   0  0  0  0  0  0  0  0  0  0  0  0
    5.2638    2.0379    0.0000 C   0  0  0  0  0  0  0  0  0  0  0  0
    8.7901   -1.6063    0.0000 H   0  0  0  0  0  0  0  0  0  0  0  0
    4.3896    0.1062    0.0000 H   0  0  0  0  0  0  0  0  0  0  0  0
    5.8019   -2.3183    0.0000 H   0  0  0  0  0  0  0  0  0  0  0  0
   11.6468   -0.4010    0.0000 H   0  0  0  0  0  0  0  0  0  0  0  0
   11.6468    0.4285    0.0000 H   0  0  0  0  0  0  0  0  0  0  0  0
    4.4021   -3.1337    0.0000 H   0  0  0  0  0  0  0  0  0  0  0  0
    1.5375   -1.1100    0.0000 H   0  0  0  0  0  0  0  0  0  0  0  0
    1.5407   -1.9395    0.0000 H   0  0  0  0  0  0  0  0  0  0  0  0
    9.9661    1.9768    0.0000 H   0  0  0  0  0  0  0  0  0  0  0  0
   10.1930    2.8237    0.0000 H   0  0  0  0  0  0  0  0  0  0  0  0
    9.3461    3.0507    0.0000 H   0  0  0  0  0  0  0  0  0  0  0  0
    5.8838    2.0355    0.0000 H   0  0  0  0  0  0  0  0  0  0  0  0
    5.2662    2.6579    0.0000 H   0  0  0  0  0  0  0  0  0  0  0  0
    4.6438    2.0403    0.0000 H   0  0  0  0  0  0  0  0  0  0  0  0
  1 10  1  0  0  0  0
  1 13  1  0  0  0  0
  2 12  1  0  0  0  0
  2 22  1  0  0  0  0
  3 14  1  0  0  0  0
  3 22  1  0  0  0  0
  4 11  1  0  0  0  0
  4 26  1  0  0  0  0
  5 18  1  0  0  0  0
  5 27  1  0  0  0  0
  6 20  1  0  0  0  0
  6 25  1  0  0  0  0
  7 23  1  0  0  0  0
  7 25  1  0  0  0  0
  8 17  2  0  0  0  0
  9 10  1  0  0  0  0
  9 11  2  0  0  0  0
  9 17  1  0  0  0  0
 10 16  2  0  0  0  0
 11 12  1  0  0  0  0
 12 14  2  0  0  0  0
 13 15  1  0  0  0  0
 13 18  2  0  0  0  0
 14 16  1  0  0  0  0
 15 19  2  0  0  0  0
 15 21  1  0  0  0  0
 16 28  1  0  0  0  0
 17 18  1  0  0  0  0
 19 20  1  0  0  0  0
 19 29  1  0  0  0  0
 20 23  2  0  0  0  0
 21 24  2  0  0  0  0
 21 30  1  0  0  0  0
 22 31  1  0  0  0  0
 22 32  1  0  0  0  0
 23 24  1  0  0  0  0
 24 33  1  0  0  0  0
 25 34  1  0  0  0  0
 25 35  1  0  0  0  0
 26 36  1  0  0  0  0
 26 37  1  0  0  0  0
 26 38  1  0  0  0  0
 27 39  1  0  0  0  0
 27 40  1  0  0  0  0
 27 41  1  0  0  0  0
M  END
>  <PUBCHEM_COMPOUND_CID>
386320

>  <PUBCHEM_COMPOUND_CANONICALIZED>
1

>  <PUBCHEM_CACTVS_COMPLEXITY>
633

>  <PUBCHEM_CACTVS_HBOND_ACCEPTOR>
8

>  <PUBCHEM_CACTVS_HBOND_DONOR>
0

>  <PUBCHEM_CACTVS_ROTATABLE_BOND>
3

>  <PUBCHEM_CACTVS_SUBSKEYS>
AAADccB4PAAAAAAAAAAAAAAAAAAAASJAAAAwYIAAAAAAAEiBQAAAGgAAAAAADASAmAMyDoAABACIAqBSAAICCAAkIAAIiAFGiMgdJzaENR6iOWKl4BUOqQfK7LzOIQABCAAIQABCAAIQABCAAAAAAAAAAA==

>  <PUBCHEM_IUPAC_OPENEYE_NAME>
6-(1,3-benzodioxol-5-yl)-7,9-dimethoxy-[1,3]dioxolo[4,5-g]chromen-8-one

>  <PUBCHEM_IUPAC_CAS_NAME>
6-(1,3-benzodioxol-5-yl)-7,9-dimethoxy-[1,3]dioxolo[4,5-g][1]benzopyran-8-one

>  <PUBCHEM_IUPAC_NAME>
6-(1,3-benzodioxol-5-yl)-7,9-dimethoxy-[1,3]dioxolo[4,5-g]chromen-8-one

>  <PUBCHEM_IUPAC_SYSTEMATIC_NAME>
6-(1,3-benzodioxol-5-yl)-7,9-dimethoxy-[1,3]dioxolo[4,5-g]chromen-8-one

>  <PUBCHEM_IUPAC_TRADITIONAL_NAME>
6-(1,3-benzodioxol-5-yl)-7,9-dimethoxy-[1,3]dioxolo[4,5-g]chromen-8-one

>  <PUBCHEM_IUPAC_INCHI>
InChI=1S/C19H14O8/c1-21-18-14-12(6-13-17(18)26-8-25-13)27-16(19(22-2)15(14)20)9-3-4-10-11(5-9)24-7-23-10/h3-6H,7-8H2,1-2H3

>  <PUBCHEM_IUPAC_INCHIKEY>
FMZYQDFWORSVBZ-UHFFFAOYSA-N

>  <PUBCHEM_XLOGP3_AA>
3

>  <PUBCHEM_EXACT_MASS>
370.069

>  <PUBCHEM_MOLECULAR_FORMULA>
C19H14O8

>  <PUBCHEM_MOLECULAR_WEIGHT>
370.313

>  <PUBCHEM_OPENEYE_CAN_SMILES>
COC1=C2C(=CC3=C1OCO3)OC(=C(C2=O)OC)C4=CC5=C(C=C4)OCO5

>  <PUBCHEM_OPENEYE_ISO_SMILES>
COC1=C2C(=CC3=C1OCO3)OC(=C(C2=O)OC)C4=CC5=C(C=C4)OCO5

>  <PUBCHEM_CACTVS_TPSA>
81.7

>  <PUBCHEM_MONOISOTOPIC_WEIGHT>
370.069

>  <PUBCHEM_TOTAL_CHARGE>
0

>  <PUBCHEM_HEAVY_ATOM_COUNT>
27

>  <PUBCHEM_ATOM_DEF_STEREO_COUNT>
0

>  <PUBCHEM_ATOM_UDEF_STEREO_COUNT>
0

>  <PUBCHEM_BOND_DEF_STEREO_COUNT>
0

>  <PUBCHEM_BOND_UDEF_STEREO_COUNT>
0

>  <PUBCHEM_ISOTOPIC_ATOM_COUNT>
0

>  <PUBCHEM_COMPONENT_COUNT>
1

>  <PUBCHEM_CACTVS_TAUTO_COUNT>
1

>  <PUBCHEM_COORDINATE_TYPE>
1
5
255

>  <PUBCHEM_BONDANNOTATIONS>
1  10  8
1  13  8
10  16  8
11  12  8
12  14  8
13  18  8
14  16  8
15  19  8
15  21  8
17  18  8
19  20  8
20  23  8
21  24  8
23  24  8
9  10  8
9  11  8
9  17  8

$$$$
