387195
 OpenBabel06101807152D

 26 29  0  0  0  0  0  0  0  0999 V2000
    4.6660   -2.2846    0.0000 O   0  0  0  0  0  0  0  0  0  0  0  0
    4.6500    1.7569    0.0000 N   0  0  0  0  0  0  0  0  0  0  0  0
    6.3903   -1.2816    0.0000 N   0  0  0  0  0  0  0  0  0  0  0  0
    5.5321    0.2154    0.0000 C   0  0  0  0  0  0  0  0  0  0  0  0
    4.6660    0.7154    0.0000 C   0  0  0  0  0  0  0  0  0  0  0  0
    3.8000    0.2154    0.0000 C   0  0  0  0  0  0  0  0  0  0  0  0
    3.8000   -0.7846    0.0000 C   0  0  0  0  0  0  0  0  0  0  0  0
    5.5321   -0.7846    0.0000 C   0  0  0  0  0  0  0  0  0  0  0  0
    6.4421    0.7222    0.0000 C   0  0  0  0  0  0  0  0  0  0  0  0
    4.6660   -1.2846    0.0000 C   0  0  0  0  0  0  0  0  0  0  0  0
    2.9061    0.7500    0.0000 C   0  0  0  0  0  0  0  0  0  0  0  0
    2.9061   -1.3193    0.0000 C   0  0  0  0  0  0  0  0  0  0  0  0
    6.4501    1.7638    0.0000 C   0  0  0  0  0  0  0  0  0  0  0  0
    7.2814    0.1940    0.0000 C   0  0  0  0  0  0  0  0  0  0  0  0
    5.5480    2.2846    0.0000 C   0  0  0  0  0  0  0  0  0  0  0  0
    2.0000    0.2362    0.0000 C   0  0  0  0  0  0  0  0  0  0  0  0
    7.2558   -0.7974    0.0000 C   0  0  0  0  0  0  0  0  0  0  0  0
    2.0000   -0.8054    0.0000 C   0  0  0  0  0  0  0  0  0  0  0  0
    2.9132    1.3700    0.0000 H   0  0  0  0  0  0  0  0  0  0  0  0
    2.9132   -1.9392    0.0000 H   0  0  0  0  0  0  0  0  0  0  0  0
    6.9882    2.0717    0.0000 H   0  0  0  0  0  0  0  0  0  0  0  0
    7.8280    0.4867    0.0000 H   0  0  0  0  0  0  0  0  0  0  0  0
    5.5456    2.9046    0.0000 H   0  0  0  0  0  0  0  0  0  0  0  0
    7.7865   -1.1179    0.0000 H   0  0  0  0  0  0  0  0  0  0  0  0
    1.4643    0.5483    0.0000 H   0  0  0  0  0  0  0  0  0  0  0  0
    1.4643   -1.1175    0.0000 H   0  0  0  0  0  0  0  0  0  0  0  0
  1 10  2  0  0  0  0
  2  5  2  0  0  0  0
  2 15  1  0  0  0  0
  3  8  2  0  0  0  0
  3 17  1  0  0  0  0
  4  5  1  0  0  0  0
  4  8  1  0  0  0  0
  4  9  2  0  0  0  0
  5  6  1  0  0  0  0
  6  7  1  0  0  0  0
  6 11  2  0  0  0  0
  7 10  1  0  0  0  0
  7 12  2  0  0  0  0
  8 10  1  0  0  0  0
  9 13  1  0  0  0  0
  9 14  1  0  0  0  0
 11 16  1  0  0  0  0
 11 19  1  0  0  0  0
 12 18  1  0  0  0  0
 12 20  1  0  0  0  0
 13 15  2  0  0  0  0
 13 21  1  0  0  0  0
 14 17  2  0  0  0  0
 14 22  1  0  0  0  0
 15 23  1  0  0  0  0
 16 18  2  0  0  0  0
 16 25  1  0  0  0  0
 17 24  1  0  0  0  0
 18 26  1  0  0  0  0
M  END
>  <PUBCHEM_COMPOUND_CID>
387195

>  <PUBCHEM_COMPOUND_CANONICALIZED>
1

>  <PUBCHEM_CACTVS_COMPLEXITY>
356

>  <PUBCHEM_CACTVS_HBOND_ACCEPTOR>
3

>  <PUBCHEM_CACTVS_HBOND_DONOR>
0

>  <PUBCHEM_CACTVS_ROTATABLE_BOND>
0

>  <PUBCHEM_CACTVS_SUBSKEYS>
AAADccBzIAAAAAAAAAAAAAAAAAAAAAAAAAA8eIEAAAAAAADx/AAAHgAAAAAADAzBngQ8gNIIEACoA7R3RACCgCA3AiAI2CG4ZNgIIPLA1fGEJQhggADIyYcciMCOgAAAAAAQAACQAASACCQAAAAAAAAAAA==

>  <PUBCHEM_IUPAC_INCHI>
InChI=1S/C15H8N2O/c18-15-11-4-2-1-3-10(11)13-12-9(5-7-16-13)6-8-17-14(12)15/h1-8H

>  <PUBCHEM_IUPAC_INCHIKEY>
BWQKHOMAOVUASZ-UHFFFAOYSA-N

>  <PUBCHEM_XLOGP3_AA>
2.5

>  <PUBCHEM_EXACT_MASS>
232.064

>  <PUBCHEM_MOLECULAR_FORMULA>
C15H8N2O

>  <PUBCHEM_MOLECULAR_WEIGHT>
232.242

>  <PUBCHEM_OPENEYE_CAN_SMILES>
C1=CC=C2C(=C1)C3=NC=CC4=C3C(=NC=C4)C2=O

>  <PUBCHEM_OPENEYE_ISO_SMILES>
C1=CC=C2C(=C1)C3=NC=CC4=C3C(=NC=C4)C2=O

>  <PUBCHEM_CACTVS_TPSA>
42.8

>  <PUBCHEM_MONOISOTOPIC_WEIGHT>
232.064

>  <PUBCHEM_TOTAL_CHARGE>
0

>  <PUBCHEM_HEAVY_ATOM_COUNT>
18

>  <PUBCHEM_ATOM_DEF_STEREO_COUNT>
0

>  <PUBCHEM_ATOM_UDEF_STEREO_COUNT>
0

>  <PUBCHEM_BOND_DEF_STEREO_COUNT>
0

>  <PUBCHEM_BOND_UDEF_STEREO_COUNT>
0

>  <PUBCHEM_ISOTOPIC_ATOM_COUNT>
0

>  <PUBCHEM_COMPONENT_COUNT>
1

>  <PUBCHEM_CACTVS_TAUTO_COUNT>
1

>  <PUBCHEM_COORDINATE_TYPE>
1
5
255

>  <PUBCHEM_BONDANNOTATIONS>
11  16  8
12  18  8
13  15  8
14  17  8
16  18  8
2  15  8
2  5  8
3  17  8
3  8  8
4  5  8
4  8  8
4  9  8
6  11  8
6  7  8
7  12  8
9  13  8
9  14  8

$$$$
