391693
 OpenBabel06101807152D

 59 59  0  0  1  0  0  0  0  0999 V2000
    9.4651   -2.1900    0.0000 O   0  0  0  0  0  0  0  0  0  0  0  0
    6.8671   -5.6900    0.0000 O   0  0  0  0  0  0  0  0  0  0  0  0
   13.7953    3.3100    0.0000 O   0  0  0  0  0  0  0  0  0  0  0  0
    8.5991   -5.6900    0.0000 O   0  0  0  0  0  0  0  0  0  0  0  0
    7.7331   -2.1900    0.0000 O   0  0  0  0  0  0  0  0  0  0  0  0
   12.0632    6.3100    0.0000 O   0  0  0  0  0  0  0  0  0  0  0  0
    3.4030   -2.6900    0.0000 O   0  0  0  0  0  0  0  0  0  0  0  0
   12.0632    3.3100    0.0000 N   0  0  0  0  0  0  0  0  0  0  0  0
    8.5991   -3.6900    0.0000 N   0  0  0  0  0  0  0  0  0  0  0  0
   12.9292    4.8100    0.0000 N   0  0  0  0  0  0  0  0  0  0  0  0
    4.2690   -4.1900    0.0000 N   0  0  0  0  0  0  0  0  0  0  0  0
    2.5369   -4.1900    0.0000 N   0  0  0  0  0  0  0  0  0  0  0  0
   11.1972    0.8100    0.0000 C   0  0  0  0  0  0  0  0  0  0  0  0
   11.1972    1.8100    0.0000 C   0  0  0  0  0  0  0  0  0  0  0  0
   10.3312    0.3100    0.0000 C   0  0  0  0  0  0  0  0  0  0  0  0
   12.0632    2.3100    0.0000 C   0  0  0  0  0  0  0  0  0  0  0  0
   10.3312   -0.6900    0.0000 C   0  0  0  0  0  0  0  0  0  0  0  0
    6.8671   -3.6900    0.0000 C   0  0  0  0  0  0  0  0  0  0  0  0
    7.7331   -4.1900    0.0000 C   0  0  3  0  0  0  0  0  0  0  0  0
    9.4651   -1.1900    0.0000 C   0  0  0  0  0  0  0  0  0  0  0  0
    6.0010   -4.1900    0.0000 C   0  0  0  0  0  0  0  0  0  0  0  0
    5.1350   -3.6900    0.0000 C   0  0  0  0  0  0  0  0  0  0  0  0
   11.1972    3.8100    0.0000 C   0  0  0  0  0  0  0  0  0  0  0  0
   12.9292    3.8100    0.0000 C   0  0  0  0  0  0  0  0  0  0  0  0
   11.1972    4.8100    0.0000 C   0  0  0  0  0  0  0  0  0  0  0  0
    7.7331   -5.1900    0.0000 C   0  0  0  0  0  0  0  0  0  0  0  0
    8.5991   -2.6900    0.0000 C   0  0  0  0  0  0  0  0  0  0  0  0
   12.0632    5.3100    0.0000 C   0  0  0  0  0  0  0  0  0  0  0  0
   10.3312    5.3100    0.0000 C   0  0  0  0  0  0  0  0  0  0  0  0
    3.4030   -3.6900    0.0000 C   0  0  0  0  0  0  0  0  0  0  0  0
   11.4092    0.2274    0.0000 H   0  0  0  0  0  0  0  0  0  0  0  0
   11.8078    0.9177    0.0000 H   0  0  0  0  0  0  0  0  0  0  0  0
   10.9851    2.3926    0.0000 H   0  0  0  0  0  0  0  0  0  0  0  0
   10.5866    1.7023    0.0000 H   0  0  0  0  0  0  0  0  0  0  0  0
   10.1191    0.8926    0.0000 H   0  0  0  0  0  0  0  0  0  0  0  0
    9.7206    0.2023    0.0000 H   0  0  0  0  0  0  0  0  0  0  0  0
   12.2753    1.7274    0.0000 H   0  0  0  0  0  0  0  0  0  0  0  0
   12.6738    2.4177    0.0000 H   0  0  0  0  0  0  0  0  0  0  0  0
   10.5432   -1.2726    0.0000 H   0  0  0  0  0  0  0  0  0  0  0  0
   10.9417   -0.5823    0.0000 H   0  0  0  0  0  0  0  0  0  0  0  0
    7.2656   -3.2151    0.0000 H   0  0  0  0  0  0  0  0  0  0  0  0
    6.4685   -3.2151    0.0000 H   0  0  0  0  0  0  0  0  0  0  0  0
    7.7331   -3.5700    0.0000 H   0  0  0  0  0  0  0  0  0  0  0  0
    5.6025   -4.6650    0.0000 H   0  0  0  0  0  0  0  0  0  0  0  0
    6.3996   -4.6650    0.0000 H   0  0  0  0  0  0  0  0  0  0  0  0
    9.2531   -0.6074    0.0000 H   0  0  0  0  0  0  0  0  0  0  0  0
    8.8546   -1.2977    0.0000 H   0  0  0  0  0  0  0  0  0  0  0  0
    5.5335   -3.2151    0.0000 H   0  0  0  0  0  0  0  0  0  0  0  0
    4.7365   -3.2151    0.0000 H   0  0  0  0  0  0  0  0  0  0  0  0
    9.1360   -4.0000    0.0000 H   0  0  0  0  0  0  0  0  0  0  0  0
   10.6603    3.5000    0.0000 H   0  0  0  0  0  0  0  0  0  0  0  0
   13.4662    5.1200    0.0000 H   0  0  0  0  0  0  0  0  0  0  0  0
    4.2690   -4.8100    0.0000 H   0  0  0  0  0  0  0  0  0  0  0  0
   10.6412    5.8469    0.0000 H   0  0  0  0  0  0  0  0  0  0  0  0
    9.7942    5.6200    0.0000 H   0  0  0  0  0  0  0  0  0  0  0  0
   10.0212    4.7731    0.0000 H   0  0  0  0  0  0  0  0  0  0  0  0
    6.8671   -6.3100    0.0000 H   0  0  0  0  0  0  0  0  0  0  0  0
    2.0000   -3.8800    0.0000 H   0  0  0  0  0  0  0  0  0  0  0  0
    2.5369   -4.8100    0.0000 H   0  0  0  0  0  0  0  0  0  0  0  0
  1 20  1  0  0  0  0
  1 27  1  0  0  0  0
  2 26  1  0  0  0  0
  2 57  1  0  0  0  0
  3 24  2  0  0  0  0
  4 26  2  0  0  0  0
  5 27  2  0  0  0  0
  6 28  2  0  0  0  0
  7 30  2  0  0  0  0
  8 16  1  0  0  0  0
  8 23  1  0  0  0  0
  8 24  1  0  0  0  0
  9 19  1  0  0  0  0
  9 27  1  0  0  0  0
  9 50  1  0  0  0  0
 10 24  1  0  0  0  0
 10 28  1  0  0  0  0
 10 52  1  0  0  0  0
 11 22  1  0  0  0  0
 11 30  1  0  0  0  0
 11 53  1  0  0  0  0
 12 30  1  0  0  0  0
 12 58  1  0  0  0  0
 12 59  1  0  0  0  0
 13 14  1  0  0  0  0
 13 15  1  0  0  0  0
 13 31  1  0  0  0  0
 13 32  1  0  0  0  0
 14 16  1  0  0  0  0
 14 33  1  0  0  0  0
 14 34  1  0  0  0  0
 15 17  1  0  0  0  0
 15 35  1  0  0  0  0
 15 36  1  0  0  0  0
 16 37  1  0  0  0  0
 16 38  1  0  0  0  0
 17 20  1  0  0  0  0
 17 39  1  0  0  0  0
 17 40  1  0  0  0  0
 18 19  1  0  0  0  0
 18 21  1  0  0  0  0
 18 41  1  0  0  0  0
 18 42  1  0  0  0  0
 19 26  1  0  0  0  0
 19 43  1  0  0  0  0
 20 46  1  0  0  0  0
 20 47  1  0  0  0  0
 21 22  1  0  0  0  0
 21 44  1  0  0  0  0
 21 45  1  0  0  0  0
 22 48  1  0  0  0  0
 22 49  1  0  0  0  0
 23 25  2  0  0  0  0
 23 51  1  0  0  0  0
 25 28  1  0  0  0  0
 25 29  1  0  0  0  0
 29 54  1  0  0  0  0
 29 55  1  0  0  0  0
 29 56  1  0  0  0  0
M  END
>  <PUBCHEM_COMPOUND_CID>
391693

>  <PUBCHEM_COMPOUND_CANONICALIZED>
1

>  <PUBCHEM_CACTVS_COMPLEXITY>
680

>  <PUBCHEM_CACTVS_HBOND_ACCEPTOR>
7

>  <PUBCHEM_CACTVS_HBOND_DONOR>
5

>  <PUBCHEM_CACTVS_ROTATABLE_BOND>
14

>  <PUBCHEM_CACTVS_SUBSKEYS>
AAADceB7uAAAAAAAAAAAAAAAAAAAAAAAAAAgAAAAAAAAAAAAAAAAHgAQCAAADCjhgAYDCAPABgCIAgHWWACAAAAAAAAAAIGIAEGCABIAgSAMQAAMFyIQAMGYUQIAAAAAAAAAAAAAAAAAAAAAAAAAAAAAAA==

>  <PUBCHEM_IUPAC_OPENEYE_NAME>
2-[6-(5-methyl-2,4-dioxo-pyrimidin-1-yl)hexoxycarbonylamino]-5-ureido-pentanoic acid

>  <PUBCHEM_IUPAC_CAS_NAME>
5-(carbamoylamino)-2-[[6-(5-methyl-2,4-dioxo-1-pyrimidinyl)hexoxy-oxomethyl]amino]pentanoic acid

>  <PUBCHEM_IUPAC_NAME>
5-(carbamoylamino)-2-[6-(5-methyl-2,4-dioxopyrimidin-1-yl)hexoxycarbonylamino]pentanoic acid

>  <PUBCHEM_IUPAC_SYSTEMATIC_NAME>
5-(aminocarbonylamino)-2-[6-[5-methyl-2,4-bis(oxidanylidene)pyrimidin-1-yl]hexoxycarbonylamino]pentanoic acid

>  <PUBCHEM_IUPAC_TRADITIONAL_NAME>
2-[6-(2,4-diketo-5-methyl-pyrimidin-1-yl)hexoxycarbonylamino]-5-ureido-valeric acid

>  <PUBCHEM_IUPAC_INCHI>
InChI=1S/C18H29N5O7/c1-12-11-23(17(28)22-14(12)24)9-4-2-3-5-10-30-18(29)21-13(15(25)26)7-6-8-20-16(19)27/h11,13H,2-10H2,1H3,(H,21,29)(H,25,26)(H3,19,20,27)(H,22,24,28)

>  <PUBCHEM_IUPAC_INCHIKEY>
UVESXBZNKCZENA-UHFFFAOYSA-N

>  <PUBCHEM_XLOGP3_AA>
-0.2

>  <PUBCHEM_EXACT_MASS>
427.207

>  <PUBCHEM_MOLECULAR_FORMULA>
C18H29N5O7

>  <PUBCHEM_MOLECULAR_WEIGHT>
427.458

>  <PUBCHEM_OPENEYE_CAN_SMILES>
CC1=CN(C(=O)NC1=O)CCCCCCOC(=O)NC(CCCNC(=O)N)C(=O)O

>  <PUBCHEM_OPENEYE_ISO_SMILES>
CC1=CN(C(=O)NC1=O)CCCCCCOC(=O)NC(CCCNC(=O)N)C(=O)O

>  <PUBCHEM_CACTVS_TPSA>
180

>  <PUBCHEM_MONOISOTOPIC_WEIGHT>
427.207

>  <PUBCHEM_TOTAL_CHARGE>
0

>  <PUBCHEM_HEAVY_ATOM_COUNT>
30

>  <PUBCHEM_ATOM_DEF_STEREO_COUNT>
0

>  <PUBCHEM_ATOM_UDEF_STEREO_COUNT>
1

>  <PUBCHEM_BOND_DEF_STEREO_COUNT>
0

>  <PUBCHEM_BOND_UDEF_STEREO_COUNT>
0

>  <PUBCHEM_ISOTOPIC_ATOM_COUNT>
0

>  <PUBCHEM_COMPONENT_COUNT>
1

>  <PUBCHEM_CACTVS_TAUTO_COUNT>
18

>  <PUBCHEM_COORDINATE_TYPE>
1
5
255

>  <PUBCHEM_BONDANNOTATIONS>
10  24  8
10  28  8
19  18  3
23  25  8
25  28  8
8  23  8
8  24  8

$$$$
