392956
 OpenBabel06101807152D

 50 53  0  0  1  0  0  0  0  0999 V2000
    2.0280   -0.7694    0.0000 Cl  0  0  0  0  0  0  0  0  0  0  0  0
    7.2242   -3.7694    0.0000 Cl  0  0  0  0  0  0  0  0  0  0  0  0
    4.2601    3.7694    0.0000 S   0  0  0  0  0  0  0  0  0  0  0  0
    2.0000    2.5094    0.0000 O   0  0  0  0  0  0  0  0  0  0  0  0
    3.7601   -1.7694    0.0000 O   0  0  0  0  0  0  0  0  0  0  0  0
    3.7601    2.2306    0.0000 N   0  0  0  0  0  0  0  0  0  0  0  0
    8.3733    1.5823    0.0000 N   0  0  0  0  0  0  0  0  0  0  0  0
    4.5691    2.8184    0.0000 C   0  0  3  0  0  0  0  0  0  0  0  0
    5.5202    2.5094    0.0000 C   0  0  0  0  0  0  0  0  0  0  0  0
    3.2601    3.7694    0.0000 C   0  0  0  0  0  0  0  0  0  0  0  0
    2.9511    2.8184    0.0000 C   0  0  0  0  0  0  0  0  0  0  0  0
    3.7601    1.2306    0.0000 C   0  0  0  0  0  0  0  0  0  0  0  0
    5.7281    1.5312    0.0000 C   0  0  0  0  0  0  0  0  0  0  0  0
    6.2633    3.1785    0.0000 C   0  0  0  0  0  0  0  0  0  0  0  0
    7.4223    1.8913    0.0000 C   0  0  0  0  0  0  0  0  0  0  0  0
    2.8940    0.7306    0.0000 C   0  0  0  0  0  0  0  0  0  0  0  0
    4.6261    0.7306    0.0000 C   0  0  0  0  0  0  0  0  0  0  0  0
    6.6791    1.2222    0.0000 C   0  0  0  0  0  0  0  0  0  0  0  0
    7.2144    2.8695    0.0000 C   0  0  0  0  0  0  0  0  0  0  0  0
    2.8940   -0.2694    0.0000 C   0  0  0  0  0  0  0  0  0  0  0  0
    4.6261   -0.2694    0.0000 C   0  0  0  0  0  0  0  0  0  0  0  0
    3.7601   -0.7694    0.0000 C   0  0  0  0  0  0  0  0  0  0  0  0
    9.1165    2.2514    0.0000 C   0  0  0  0  0  0  0  0  0  0  0  0
    8.5812    0.6041    0.0000 C   0  0  0  0  0  0  0  0  0  0  0  0
    4.6261   -2.2694    0.0000 C   0  0  0  0  0  0  0  0  0  0  0  0
    4.6261   -3.2694    0.0000 C   0  0  0  0  0  0  0  0  0  0  0  0
    5.4921   -1.7694    0.0000 C   0  0  0  0  0  0  0  0  0  0  0  0
    5.4921   -3.7694    0.0000 C   0  0  0  0  0  0  0  0  0  0  0  0
    6.3582   -2.2694    0.0000 C   0  0  0  0  0  0  0  0  0  0  0  0
    6.3582   -3.2694    0.0000 C   0  0  0  0  0  0  0  0  0  0  0  0
    4.6661    2.2060    0.0000 H   0  0  0  0  0  0  0  0  0  0  0  0
    3.3249    4.3860    0.0000 H   0  0  0  0  0  0  0  0  0  0  0  0
    2.6536    3.8983    0.0000 H   0  0  0  0  0  0  0  0  0  0  0  0
    5.2673    1.1163    0.0000 H   0  0  0  0  0  0  0  0  0  0  0  0
    6.1344    3.7849    0.0000 H   0  0  0  0  0  0  0  0  0  0  0  0
    2.3571    1.0406    0.0000 H   0  0  0  0  0  0  0  0  0  0  0  0
    5.1630    1.0406    0.0000 H   0  0  0  0  0  0  0  0  0  0  0  0
    6.8080    0.6157    0.0000 H   0  0  0  0  0  0  0  0  0  0  0  0
    7.6751    3.2843    0.0000 H   0  0  0  0  0  0  0  0  0  0  0  0
    5.1630   -0.5794    0.0000 H   0  0  0  0  0  0  0  0  0  0  0  0
    9.5313    1.7907    0.0000 H   0  0  0  0  0  0  0  0  0  0  0  0
    9.5772    2.6663    0.0000 H   0  0  0  0  0  0  0  0  0  0  0  0
    8.7016    2.7122    0.0000 H   0  0  0  0  0  0  0  0  0  0  0  0
    7.9748    0.4752    0.0000 H   0  0  0  0  0  0  0  0  0  0  0  0
    8.7101   -0.0023    0.0000 H   0  0  0  0  0  0  0  0  0  0  0  0
    9.1877    0.7331    0.0000 H   0  0  0  0  0  0  0  0  0  0  0  0
    4.0892   -3.5794    0.0000 H   0  0  0  0  0  0  0  0  0  0  0  0
    5.4921   -1.1494    0.0000 H   0  0  0  0  0  0  0  0  0  0  0  0
    5.4921   -4.3894    0.0000 H   0  0  0  0  0  0  0  0  0  0  0  0
    6.8951   -1.9594    0.0000 H   0  0  0  0  0  0  0  0  0  0  0  0
  1 20  1  0  0  0  0
  2 30  1  0  0  0  0
  3  8  1  0  0  0  0
  3 10  1  0  0  0  0
  4 11  2  0  0  0  0
  5 22  1  0  0  0  0
  5 25  1  0  0  0  0
  6  8  1  0  0  0  0
  6 11  1  0  0  0  0
  6 12  1  0  0  0  0
  7 15  1  0  0  0  0
  7 23  1  0  0  0  0
  7 24  1  0  0  0  0
  8  9  1  0  0  0  0
  8 31  1  0  0  0  0
  9 13  2  0  0  0  0
  9 14  1  0  0  0  0
 10 11  1  0  0  0  0
 10 32  1  0  0  0  0
 10 33  1  0  0  0  0
 12 16  2  0  0  0  0
 12 17  1  0  0  0  0
 13 18  1  0  0  0  0
 13 34  1  0  0  0  0
 14 19  2  0  0  0  0
 14 35  1  0  0  0  0
 15 18  2  0  0  0  0
 15 19  1  0  0  0  0
 16 20  1  0  0  0  0
 16 36  1  0  0  0  0
 17 21  2  0  0  0  0
 17 37  1  0  0  0  0
 18 38  1  0  0  0  0
 19 39  1  0  0  0  0
 20 22  2  0  0  0  0
 21 22  1  0  0  0  0
 21 40  1  0  0  0  0
 23 41  1  0  0  0  0
 23 42  1  0  0  0  0
 23 43  1  0  0  0  0
 24 44  1  0  0  0  0
 24 45  1  0  0  0  0
 24 46  1  0  0  0  0
 25 26  2  0  0  0  0
 25 27  1  0  0  0  0
 26 28  1  0  0  0  0
 26 47  1  0  0  0  0
 27 29  2  0  0  0  0
 27 48  1  0  0  0  0
 28 30  2  0  0  0  0
 28 49  1  0  0  0  0
 29 30  1  0  0  0  0
 29 50  1  0  0  0  0
M  END
>  <PUBCHEM_COMPOUND_CID>
392956

>  <PUBCHEM_COMPOUND_CANONICALIZED>
1

>  <PUBCHEM_CACTVS_COMPLEXITY>
580

>  <PUBCHEM_CACTVS_HBOND_ACCEPTOR>
4

>  <PUBCHEM_CACTVS_HBOND_DONOR>
0

>  <PUBCHEM_CACTVS_ROTATABLE_BOND>
5

>  <PUBCHEM_CACTVS_SUBSKEYS>
AAADceB7MABGAAAAAAAAAAAAAAAAAWAAAAAwYMAAAAAAAAABUAAAHgYAAAAADA7F2CSyxoMABAiIAiVSUACCCABhJ1AIiAAOb4gMJiPls5uGOCjkxhHo6AewwAAOCGAAAAIACAAQwAAABAAQAAAAAAAAAA==

>  <PUBCHEM_IUPAC_OPENEYE_NAME>
3-[3-chloro-4-(4-chlorophenoxy)phenyl]-2-[4-(dimethylamino)phenyl]thiazolidin-4-one

>  <PUBCHEM_IUPAC_CAS_NAME>
3-[3-chloro-4-(4-chlorophenoxy)phenyl]-2-[4-(dimethylamino)phenyl]-4-thiazolidinone

>  <PUBCHEM_IUPAC_NAME>
3-[3-chloro-4-(4-chlorophenoxy)phenyl]-2-[4-(dimethylamino)phenyl]-1,3-thiazolidin-4-one

>  <PUBCHEM_IUPAC_SYSTEMATIC_NAME>
3-[3-chloranyl-4-(4-chloranylphenoxy)phenyl]-2-[4-(dimethylamino)phenyl]-1,3-thiazolidin-4-one

>  <PUBCHEM_IUPAC_TRADITIONAL_NAME>
3-[3-chloro-4-(4-chlorophenoxy)phenyl]-2-[4-(dimethylamino)phenyl]thiazolidin-4-one

>  <PUBCHEM_IUPAC_INCHI>
InChI=1S/C23H20Cl2N2O2S/c1-26(2)17-7-3-15(4-8-17)23-27(22(28)14-30-23)18-9-12-21(20(25)13-18)29-19-10-5-16(24)6-11-19/h3-13,23H,14H2,1-2H3

>  <PUBCHEM_IUPAC_INCHIKEY>
IKTODYNLMXEQOO-UHFFFAOYSA-N

>  <PUBCHEM_XLOGP3_AA>
6.3

>  <PUBCHEM_EXACT_MASS>
458.062

>  <PUBCHEM_MOLECULAR_FORMULA>
C23H20Cl2N2O2S

>  <PUBCHEM_MOLECULAR_WEIGHT>
459.385

>  <PUBCHEM_OPENEYE_CAN_SMILES>
CN(C)C1=CC=C(C=C1)C2N(C(=O)CS2)C3=CC(=C(C=C3)OC4=CC=C(C=C4)Cl)Cl

>  <PUBCHEM_OPENEYE_ISO_SMILES>
CN(C)C1=CC=C(C=C1)C2N(C(=O)CS2)C3=CC(=C(C=C3)OC4=CC=C(C=C4)Cl)Cl

>  <PUBCHEM_CACTVS_TPSA>
58.1

>  <PUBCHEM_MONOISOTOPIC_WEIGHT>
458.062

>  <PUBCHEM_TOTAL_CHARGE>
0

>  <PUBCHEM_HEAVY_ATOM_COUNT>
30

>  <PUBCHEM_ATOM_DEF_STEREO_COUNT>
0

>  <PUBCHEM_ATOM_UDEF_STEREO_COUNT>
1

>  <PUBCHEM_BOND_DEF_STEREO_COUNT>
0

>  <PUBCHEM_BOND_UDEF_STEREO_COUNT>
0

>  <PUBCHEM_ISOTOPIC_ATOM_COUNT>
0

>  <PUBCHEM_COMPONENT_COUNT>
1

>  <PUBCHEM_CACTVS_TAUTO_COUNT>
2

>  <PUBCHEM_COORDINATE_TYPE>
1
5
255

>  <PUBCHEM_BONDANNOTATIONS>
12  16  8
12  17  8
13  18  8
14  19  8
15  18  8
15  19  8
16  20  8
17  21  8
20  22  8
21  22  8
25  26  8
25  27  8
26  28  8
27  29  8
28  30  8
29  30  8
8  9  3
9  13  8
9  14  8

$$$$
