397879
 OpenBabel06101807152D

 83 87  0  0  1  0  0  0  0  0999 V2000
    5.6328   -3.2463    0.0000 O   0  0  0  0  0  0  0  0  0  0  0  0
   10.9848    2.9673    0.0000 O   0  0  0  0  0  0  0  0  0  0  0  0
    3.7953   -3.2752    0.0000 O   0  0  0  0  0  0  0  0  0  0  0  0
    7.3770   -0.1771    0.0000 C   0  0  1  0  0  0  0  0  0  0  0  0
    6.5109   -0.6771    0.0000 C   0  0  1  0  0  0  0  0  0  0  0  0
    7.3770    0.8229    0.0000 C   0  0  1  0  0  0  0  0  0  0  0  0
    5.6449   -0.1771    0.0000 C   0  0  1  0  0  0  0  0  0  0  0  0
    8.2709    1.3576    0.0000 C   0  0  2  0  0  0  0  0  0  0  0  0
    9.1770    0.8437    0.0000 C   0  0  1  0  0  0  0  0  0  0  0  0
    4.7349   -0.6839    0.0000 C   0  0  1  0  0  0  0  0  0  0  0  0
    8.2709   -0.7117    0.0000 C   0  0  0  0  0  0  0  0  0  0  0  0
    6.5109    1.3229    0.0000 C   0  0  0  0  0  0  0  0  0  0  0  0
    6.5270   -1.7186    0.0000 C   0  0  0  0  0  0  0  0  0  0  0  0
    4.7269   -1.7255    0.0000 C   0  0  1  0  0  0  0  0  0  0  0  0
    5.6449    0.8229    0.0000 C   0  0  0  0  0  0  0  0  0  0  0  0
    9.1770   -0.1979    0.0000 C   0  0  0  0  0  0  0  0  0  0  0  0
    5.6290   -2.2463    0.0000 C   0  0  1  0  0  0  0  0  0  0  0  0
   10.1208    1.3790    0.0000 C   0  0  0  0  0  0  0  0  0  0  0  0
    8.2458    2.4423    0.0000 C   0  0  0  0  0  0  0  0  0  0  0  0
    7.7191   -1.1167    0.0000 C   0  0  0  0  0  0  0  0  0  0  0  0
    7.1537   -1.4431    0.0000 C   0  0  0  0  0  0  0  0  0  0  0  0
    3.8081   -0.1198    0.0000 C   0  0  1  0  0  0  0  0  0  0  0  0
    7.4010    1.8509    0.0000 C   0  0  0  0  0  0  0  0  0  0  0  0
   10.1208    2.4640    0.0000 C   0  0  2  0  0  0  0  0  0  0  0  0
    9.1770    2.9992    0.0000 C   0  0  0  0  0  0  0  0  0  0  0  0
    3.7914   -2.2752    0.0000 C   0  0  2  0  0  0  0  0  0  0  0  0
    4.7192   -2.7255    0.0000 C   0  0  0  0  0  0  0  0  0  0  0  0
    2.8602   -0.6478    0.0000 C   0  0  0  0  0  0  0  0  0  0  0  0
   11.1207    1.3751    0.0000 C   0  0  0  0  0  0  0  0  0  0  0  0
   10.6174    0.5110    0.0000 C   0  0  0  0  0  0  0  0  0  0  0  0
    2.8518   -1.7328    0.0000 C   0  0  0  0  0  0  0  0  0  0  0  0
    3.8273    0.8800    0.0000 C   0  0  0  0  0  0  0  0  0  0  0  0
    2.0000   -0.1378    0.0000 C   0  0  0  0  0  0  0  0  0  0  0  0
    8.1163    0.4036    0.0000 H   0  0  0  0  0  0  0  0  0  0  0  0
    6.3810    0.2479    0.0000 H   0  0  0  0  0  0  0  0  0  0  0  0
    9.9114    0.4159    0.0000 H   0  0  0  0  0  0  0  0  0  0  0  0
    4.7513    0.1659    0.0000 H   0  0  0  0  0  0  0  0  0  0  0  0
    7.8663   -1.1815    0.0000 H   0  0  0  0  0  0  0  0  0  0  0  0
    8.6645   -1.1908    0.0000 H   0  0  0  0  0  0  0  0  0  0  0  0
    6.9095    1.7979    0.0000 H   0  0  0  0  0  0  0  0  0  0  0  0
    6.1124    1.7979    0.0000 H   0  0  0  0  0  0  0  0  0  0  0  0
    6.7450   -2.2990    0.0000 H   0  0  0  0  0  0  0  0  0  0  0  0
    7.1361   -1.6031    0.0000 H   0  0  0  0  0  0  0  0  0  0  0  0
    5.4329    1.4055    0.0000 H   0  0  0  0  0  0  0  0  0  0  0  0
    5.0343    0.7153    0.0000 H   0  0  0  0  0  0  0  0  0  0  0  0
    9.3860   -0.7816    0.0000 H   0  0  0  0  0  0  0  0  0  0  0  0
    9.7878   -0.0918    0.0000 H   0  0  0  0  0  0  0  0  0  0  0  0
    6.1677   -2.5532    0.0000 H   0  0  0  0  0  0  0  0  0  0  0  0
    8.0233    3.0210    0.0000 H   0  0  0  0  0  0  0  0  0  0  0  0
    7.6376    2.3221    0.0000 H   0  0  0  0  0  0  0  0  0  0  0  0
    7.1365   -1.3288    0.0000 H   0  0  0  0  0  0  0  0  0  0  0  0
    7.9312   -1.6993    0.0000 H   0  0  0  0  0  0  0  0  0  0  0  0
    8.3017   -0.9046    0.0000 H   0  0  0  0  0  0  0  0  0  0  0  0
    6.6788   -1.8416    0.0000 H   0  0  0  0  0  0  0  0  0  0  0  0
    7.5522   -1.9181    0.0000 H   0  0  0  0  0  0  0  0  0  0  0  0
    7.6287   -1.0446    0.0000 H   0  0  0  0  0  0  0  0  0  0  0  0
    4.3515    0.1787    0.0000 H   0  0  0  0  0  0  0  0  0  0  0  0
    7.7069    2.3902    0.0000 H   0  0  0  0  0  0  0  0  0  0  0  0
    6.8617    2.1568    0.0000 H   0  0  0  0  0  0  0  0  0  0  0  0
    7.0952    1.3116    0.0000 H   0  0  0  0  0  0  0  0  0  0  0  0
   10.6583    2.1550    0.0000 H   0  0  0  0  0  0  0  0  0  0  0  0
    9.5706    3.4782    0.0000 H   0  0  0  0  0  0  0  0  0  0  0  0
    8.7724    3.4690    0.0000 H   0  0  0  0  0  0  0  0  0  0  0  0
    4.3302   -2.5821    0.0000 H   0  0  0  0  0  0  0  0  0  0  0  0
    4.0992   -2.7207    0.0000 H   0  0  0  0  0  0  0  0  0  0  0  0
    4.7144   -3.3455    0.0000 H   0  0  0  0  0  0  0  0  0  0  0  0
    5.3392   -2.7303    0.0000 H   0  0  0  0  0  0  0  0  0  0  0  0
   11.1184    0.7551    0.0000 H   0  0  0  0  0  0  0  0  0  0  0  0
   11.7407    1.3727    0.0000 H   0  0  0  0  0  0  0  0  0  0  0  0
   11.1231    1.9951    0.0000 H   0  0  0  0  0  0  0  0  0  0  0  0
   10.0793    0.2031    0.0000 H   0  0  0  0  0  0  0  0  0  0  0  0
   10.9253   -0.0271    0.0000 H   0  0  0  0  0  0  0  0  0  0  0  0
   11.1555    0.8190    0.0000 H   0  0  0  0  0  0  0  0  0  0  0  0
    2.3137   -2.0407    0.0000 H   0  0  0  0  0  0  0  0  0  0  0  0
    4.4472    0.8680    0.0000 H   0  0  0  0  0  0  0  0  0  0  0  0
    3.8393    1.4999    0.0000 H   0  0  0  0  0  0  0  0  0  0  0  0
    3.2075    0.8919    0.0000 H   0  0  0  0  0  0  0  0  0  0  0  0
    6.1709   -3.5543    0.0000 H   0  0  0  0  0  0  0  0  0  0  0  0
   10.9825    3.5873    0.0000 H   0  0  0  0  0  0  0  0  0  0  0  0
    3.2596   -3.5873    0.0000 H   0  0  0  0  0  0  0  0  0  0  0  0
    2.3162    0.3955    0.0000 H   0  0  0  0  0  0  0  0  0  0  0  0
    1.4667    0.1784    0.0000 H   0  0  0  0  0  0  0  0  0  0  0  0
    1.6838   -0.6711    0.0000 H   0  0  0  0  0  0  0  0  0  0  0  0
  1 78  1  0  0  0  0
  2 79  1  0  0  0  0
  3 80  1  0  0  0  0
  4  5  1  1  0  0  0
  4 11  1  0  0  0  0
  4 20  1  0  0  0  0
  5  7  1  1  0  0  0
  5 13  1  0  0  0  0
  5 21  1  0  0  0  0
  6  4  1  6  0  0  0
  6 12  1  0  0  0  0
  6 34  1  0  0  0  0
  7 10  1  6  0  0  0
  7 15  1  0  0  0  0
  7 35  1  0  0  0  0
  8  6  1  1  0  0  0
  8 19  1  0  0  0  0
  8 23  1  0  0  0  0
  9  8  1  1  0  0  0
  9 16  1  0  0  0  0
  9 18  1  0  0  0  0
  9 36  1  0  0  0  0
 10 14  1  6  0  0  0
 10 37  1  0  0  0  0
 11 16  1  0  0  0  0
 11 38  1  0  0  0  0
 11 39  1  0  0  0  0
 12 15  1  0  0  0  0
 12 40  1  0  0  0  0
 12 41  1  0  0  0  0
 13 17  1  0  0  0  0
 13 42  1  0  0  0  0
 13 43  1  0  0  0  0
 14 17  1  1  0  0  0
 14 27  1  0  0  0  0
 15 44  1  0  0  0  0
 15 45  1  0  0  0  0
 16 46  1  0  0  0  0
 16 47  1  0  0  0  0
 17  1  1  0  0  0  0
 17 48  1  1  0  0  0
 18 24  1  0  0  0  0
 18 29  1  0  0  0  0
 18 30  1  0  0  0  0
 19 25  1  0  0  0  0
 19 49  1  0  0  0  0
 19 50  1  0  0  0  0
 20 51  1  0  0  0  0
 20 52  1  0  0  0  0
 20 53  1  0  0  0  0
 21 54  1  0  0  0  0
 21 55  1  0  0  0  0
 21 56  1  0  0  0  0
 22 10  1  1  0  0  0
 22 28  1  0  0  0  0
 22 32  1  0  0  0  0
 22 57  1  0  0  0  0
 23 58  1  0  0  0  0
 23 59  1  0  0  0  0
 23 60  1  0  0  0  0
 24  2  1  0  0  0  0
 24 25  1  0  0  0  0
 24 61  1  1  0  0  0
 25 62  1  0  0  0  0
 25 63  1  0  0  0  0
 26  3  1  0  0  0  0
 26 14  1  1  0  0  0
 26 31  1  0  0  0  0
 26 64  1  0  0  0  0
 27 65  1  0  0  0  0
 27 66  1  0  0  0  0
 27 67  1  0  0  0  0
 28 31  2  0  0  0  0
 28 33  1  0  0  0  0
 29 68  1  0  0  0  0
 29 69  1  0  0  0  0
 29 70  1  0  0  0  0
 30 71  1  0  0  0  0
 30 72  1  0  0  0  0
 30 73  1  0  0  0  0
 31 74  1  0  0  0  0
 32 75  1  0  0  0  0
 32 76  1  0  0  0  0
 32 77  1  0  0  0  0
 33 81  1  0  0  0  0
 33 82  1  0  0  0  0
 33 83  1  0  0  0  0
M  END
>  <PUBCHEM_COMPOUND_CID>
397879

>  <PUBCHEM_COMPOUND_CANONICALIZED>
1

>  <PUBCHEM_CACTVS_COMPLEXITY>
848

>  <PUBCHEM_CACTVS_HBOND_ACCEPTOR>
3

>  <PUBCHEM_CACTVS_HBOND_DONOR>
3

>  <PUBCHEM_CACTVS_ROTATABLE_BOND>
0

>  <PUBCHEM_CACTVS_SUBSKEYS>
AAADcfB4MAAAAAAAAAAAAAAAAAAAAAAAAAAwYMGCAAAAAADAAAAAGgAACAAADxSggAICAAAAAgCAAiBCAAAAAAAgAAAACAAAAAgAFAIAAQAAUAAFgAAIEAOAwPAPgAAAAAAAAADAAAYAADAAAAAAAAAAAA==

>  <PUBCHEM_IUPAC_OPENEYE_NAME>
(3S,4aR,6aR,6aR,6bR,8S,8aS,9S,12S,12aS,14aR,14bR)-4,4,6a,6b,8a,11,12,14b-octamethyl-2,3,4a,5,6,6a,7,8,9,12,12a,13,14,14a-tetradecahydro-1H-picene-3,8,9-triol

>  <PUBCHEM_IUPAC_CAS_NAME>
(3S,4aR,6aR,6aR,6bR,8S,8aS,9S,12S,12aS,14aR,14bR)-4,4,6a,6b,8a,11,12,14b-octamethyl-2,3,4a,5,6,6a,7,8,9,12,12a,13,14,14a-tetradecahydro-1H-picene-3,8,9-triol

>  <PUBCHEM_IUPAC_NAME>
(3S,4aR,6aR,6aR,6bR,8S,8aS,9S,12S,12aS,14aR,14bR)-4,4,6a,6b,8a,11,12,14b-octamethyl-2,3,4a,5,6,6a,7,8,9,12,12a,13,14,14a-tetradecahydro-1H-picene-3,8,9-triol

>  <PUBCHEM_IUPAC_SYSTEMATIC_NAME>
(3S,4aR,6aR,6aR,6bR,8S,8aS,9S,12S,12aS,14aR,14bR)-4,4,6a,6b,8a,11,12,14b-octamethyl-2,3,4a,5,6,6a,7,8,9,12,12a,13,14,14a-tetradecahydro-1H-picene-3,8,9-triol

>  <PUBCHEM_IUPAC_TRADITIONAL_NAME>
(3S,4aR,6aR,6aR,6bR,8S,8aS,9S,12S,12aS,14aR,14bR)-4,4,6a,6b,8a,11,12,14b-octamethyl-2,3,4a,5,6,6a,7,8,9,12,12a,13,14,14a-tetradecahydro-1H-picene-3,8,9-triol

>  <PUBCHEM_IUPAC_INCHI>
InChI=1S/C30H50O3/c1-17-15-23(32)30(8)24(33)16-29(7)19(25(30)18(17)2)9-10-21-27(5)13-12-22(31)26(3,4)20(27)11-14-28(21,29)6/h15,18-25,31-33H,9-14,16H2,1-8H3/t18-,19-,20+,21-,22+,23+,24+,25+,27+,28-,29-,30-/m1/s1

>  <PUBCHEM_IUPAC_INCHIKEY>
SCAPWGHHHZEERU-DVYMRSPSSA-N

>  <PUBCHEM_XLOGP3_AA>
6.4

>  <PUBCHEM_EXACT_MASS>
458.376

>  <PUBCHEM_MOLECULAR_FORMULA>
C30H50O3

>  <PUBCHEM_MOLECULAR_WEIGHT>
458.727

>  <PUBCHEM_OPENEYE_CAN_SMILES>
CC1C2C3CCC4C5(CCC(C(C5CCC4(C3(CC(C2(C(C=C1C)O)C)O)C)C)(C)C)O)C

>  <PUBCHEM_OPENEYE_ISO_SMILES>
C[C@H]1[C@H]2[C@H]3CC[C@@H]4[C@]5(CC[C@@H](C([C@@H]5CC[C@]4([C@@]3(C[C@@H]([C@]2([C@H](C=C1C)O)C)O)C)C)(C)C)O)C

>  <PUBCHEM_CACTVS_TPSA>
60.7

>  <PUBCHEM_MONOISOTOPIC_WEIGHT>
458.376

>  <PUBCHEM_TOTAL_CHARGE>
0

>  <PUBCHEM_HEAVY_ATOM_COUNT>
33

>  <PUBCHEM_ATOM_DEF_STEREO_COUNT>
12

>  <PUBCHEM_ATOM_UDEF_STEREO_COUNT>
0

>  <PUBCHEM_BOND_DEF_STEREO_COUNT>
0

>  <PUBCHEM_BOND_UDEF_STEREO_COUNT>
0

>  <PUBCHEM_ISOTOPIC_ATOM_COUNT>
0

>  <PUBCHEM_COMPONENT_COUNT>
1

>  <PUBCHEM_CACTVS_TAUTO_COUNT>
1

>  <PUBCHEM_COORDINATE_TYPE>
1
5
255

>  <PUBCHEM_BONDANNOTATIONS>
17  1  6
10  37  6
14  27  6
24  2  6
22  32  5
26  3  5
4  20  6
5  21  5
6  34  5
7  35  6
8  23  6
9  36  5

$$$$
