400037
 OpenBabel06101807152D

 54 58  0  0  0  0  0  0  0  0999 V2000
    6.3981    0.9680    0.0000 O   0  0  0  0  0  0  0  0  0  0  0  0
    2.8680    2.9922    0.0000 O   0  0  0  0  0  0  0  0  0  0  0  0
    8.9962   -3.5320    0.0000 O   0  0  0  0  0  0  0  0  0  0  0  0
    7.2641   -3.5320    0.0000 O   0  0  0  0  0  0  0  0  0  0  0  0
    8.2332    3.9568    0.0000 N   0  0  0  0  0  0  0  0  0  0  0  0
    9.0379    2.5629    0.0000 N   0  0  0  0  0  0  0  0  0  0  0  0
    8.1301    0.9680    0.0000 N   0  0  0  0  0  0  0  0  0  0  0  0
    7.2641    2.4680    0.0000 C   0  0  0  0  0  0  0  0  0  0  0  0
    8.1301    2.9680    0.0000 C   0  0  0  0  0  0  0  0  0  0  0  0
    5.5320    2.4680    0.0000 C   0  0  0  0  0  0  0  0  0  0  0  0
    6.3981    2.9680    0.0000 C   0  0  0  0  0  0  0  0  0  0  0  0
    9.2050    4.1659    0.0000 C   0  0  0  0  0  0  0  0  0  0  0  0
    5.5320    1.4680    0.0000 C   0  0  0  0  0  0  0  0  0  0  0  0
    7.2641    1.4680    0.0000 C   0  0  0  0  0  0  0  0  0  0  0  0
    9.7050    3.2999    0.0000 C   0  0  0  0  0  0  0  0  0  0  0  0
    4.6381    3.0027    0.0000 C   0  0  0  0  0  0  0  0  0  0  0  0
    4.6381    0.9334    0.0000 C   0  0  0  0  0  0  0  0  0  0  0  0
    9.7050    5.0320    0.0000 C   0  0  0  0  0  0  0  0  0  0  0  0
    3.7320    2.4888    0.0000 C   0  0  0  0  0  0  0  0  0  0  0  0
   10.7050    3.2999    0.0000 C   0  0  0  0  0  0  0  0  0  0  0  0
    3.7320    1.4472    0.0000 C   0  0  0  0  0  0  0  0  0  0  0  0
   10.7050    5.0320    0.0000 C   0  0  0  0  0  0  0  0  0  0  0  0
   11.2050    4.1659    0.0000 C   0  0  0  0  0  0  0  0  0  0  0  0
    8.1301   -0.0320    0.0000 C   0  0  0  0  0  0  0  0  0  0  0  0
    7.2641   -0.5320    0.0000 C   0  0  0  0  0  0  0  0  0  0  0  0
    8.9962   -0.5320    0.0000 C   0  0  0  0  0  0  0  0  0  0  0  0
    8.1301   -2.0320    0.0000 C   0  0  0  0  0  0  0  0  0  0  0  0
    7.2641   -1.5320    0.0000 C   0  0  0  0  0  0  0  0  0  0  0  0
    8.9962   -1.5320    0.0000 C   0  0  0  0  0  0  0  0  0  0  0  0
    8.1301   -3.0320    0.0000 C   0  0  0  0  0  0  0  0  0  0  0  0
    2.0000    2.4955    0.0000 C   0  0  0  0  0  0  0  0  0  0  0  0
    8.9962   -4.5320    0.0000 C   0  0  0  0  0  0  0  0  0  0  0  0
    9.8622   -5.0320    0.0000 C   0  0  0  0  0  0  0  0  0  0  0  0
    6.3981    3.5880    0.0000 H   0  0  0  0  0  0  0  0  0  0  0  0
    7.7717    4.3708    0.0000 H   0  0  0  0  0  0  0  0  0  0  0  0
    4.6453    3.6226    0.0000 H   0  0  0  0  0  0  0  0  0  0  0  0
    4.6453    0.3134    0.0000 H   0  0  0  0  0  0  0  0  0  0  0  0
    9.3950    5.5689    0.0000 H   0  0  0  0  0  0  0  0  0  0  0  0
   11.0150    2.7630    0.0000 H   0  0  0  0  0  0  0  0  0  0  0  0
    3.1963    1.1351    0.0000 H   0  0  0  0  0  0  0  0  0  0  0  0
   11.0150    5.5689    0.0000 H   0  0  0  0  0  0  0  0  0  0  0  0
   11.8250    4.1659    0.0000 H   0  0  0  0  0  0  0  0  0  0  0  0
    6.7272   -0.2220    0.0000 H   0  0  0  0  0  0  0  0  0  0  0  0
    9.5331   -0.2220    0.0000 H   0  0  0  0  0  0  0  0  0  0  0  0
    6.7272   -1.8420    0.0000 H   0  0  0  0  0  0  0  0  0  0  0  0
    9.5331   -1.8420    0.0000 H   0  0  0  0  0  0  0  0  0  0  0  0
    1.6921    3.0336    0.0000 H   0  0  0  0  0  0  0  0  0  0  0  0
    1.4619    2.1876    0.0000 H   0  0  0  0  0  0  0  0  0  0  0  0
    2.3079    1.9574    0.0000 H   0  0  0  0  0  0  0  0  0  0  0  0
    8.3856   -4.4243    0.0000 H   0  0  0  0  0  0  0  0  0  0  0  0
    8.7841   -5.1146    0.0000 H   0  0  0  0  0  0  0  0  0  0  0  0
    9.5522   -5.5689    0.0000 H   0  0  0  0  0  0  0  0  0  0  0  0
   10.3991   -5.3420    0.0000 H   0  0  0  0  0  0  0  0  0  0  0  0
   10.1722   -4.4950    0.0000 H   0  0  0  0  0  0  0  0  0  0  0  0
  1 13  1  0  0  0  0
  1 14  1  0  0  0  0
  2 19  1  0  0  0  0
  2 31  1  0  0  0  0
  3 30  1  0  0  0  0
  3 32  1  0  0  0  0
  4 30  2  0  0  0  0
  5  9  1  0  0  0  0
  5 12  1  0  0  0  0
  5 35  1  0  0  0  0
  6  9  2  0  0  0  0
  6 15  1  0  0  0  0
  7 14  2  0  0  0  0
  7 24  1  0  0  0  0
  8  9  1  0  0  0  0
  8 11  2  0  0  0  0
  8 14  1  0  0  0  0
 10 11  1  0  0  0  0
 10 13  2  0  0  0  0
 10 16  1  0  0  0  0
 11 34  1  0  0  0  0
 12 15  1  0  0  0  0
 12 18  2  0  0  0  0
 13 17  1  0  0  0  0
 15 20  2  0  0  0  0
 16 19  2  0  0  0  0
 16 36  1  0  0  0  0
 17 21  2  0  0  0  0
 17 37  1  0  0  0  0
 18 22  1  0  0  0  0
 18 38  1  0  0  0  0
 19 21  1  0  0  0  0
 20 23  1  0  0  0  0
 20 39  1  0  0  0  0
 21 40  1  0  0  0  0
 22 23  2  0  0  0  0
 22 41  1  0  0  0  0
 23 42  1  0  0  0  0
 24 25  2  0  0  0  0
 24 26  1  0  0  0  0
 25 28  1  0  0  0  0
 25 43  1  0  0  0  0
 26 29  2  0  0  0  0
 26 44  1  0  0  0  0
 27 28  2  0  0  0  0
 27 29  1  0  0  0  0
 27 30  1  0  0  0  0
 28 45  1  0  0  0  0
 29 46  1  0  0  0  0
 31 47  1  0  0  0  0
 31 48  1  0  0  0  0
 31 49  1  0  0  0  0
 32 33  1  0  0  0  0
 32 50  1  0  0  0  0
 32 51  1  0  0  0  0
 33 52  1  0  0  0  0
 33 53  1  0  0  0  0
 33 54  1  0  0  0  0
M  END
>  <PUBCHEM_COMPOUND_CID>
400037

>  <PUBCHEM_COMPOUND_CANONICALIZED>
1

>  <PUBCHEM_CACTVS_COMPLEXITY>
761

>  <PUBCHEM_CACTVS_HBOND_ACCEPTOR>
6

>  <PUBCHEM_CACTVS_HBOND_DONOR>
1

>  <PUBCHEM_CACTVS_ROTATABLE_BOND>
6

>  <PUBCHEM_CACTVS_SUBSKEYS>
AAADceB7OAAAAAAAAAAAAAAAAAAAAWAAAAAwYMEAAAAAAFiB9AAAHgAQAAAADAyhnwIz3rbJlACoAybybACCiC2lMqAJmSE2fNiMbrLEvZuWOSju0BPI6afY2TGeCQABAAAIACASAAIAABAAQAAAAAAAAA==

>  <PUBCHEM_IUPAC_OPENEYE_NAME>
ethyl 4-[[3-(1H-benzimidazol-2-yl)-6-methoxy-chromen-2-ylidene]amino]benzoate

>  <PUBCHEM_IUPAC_CAS_NAME>
4-[[3-(1H-benzimidazol-2-yl)-6-methoxy-1-benzopyran-2-ylidene]amino]benzoic acid ethyl ester

>  <PUBCHEM_IUPAC_NAME>
ethyl 4-[[3-(1H-benzimidazol-2-yl)-6-methoxychromen-2-ylidene]amino]benzoate

>  <PUBCHEM_IUPAC_SYSTEMATIC_NAME>
ethyl 4-[[3-(1H-benzimidazol-2-yl)-6-methoxy-chromen-2-ylidene]amino]benzoate

>  <PUBCHEM_IUPAC_TRADITIONAL_NAME>
4-[[3-(1H-benzimidazol-2-yl)-6-methoxy-chromen-2-ylidene]amino]benzoic acid ethyl ester

>  <PUBCHEM_IUPAC_INCHI>
InChI=1S/C26H21N3O4/c1-3-32-26(30)16-8-10-18(11-9-16)27-25-20(24-28-21-6-4-5-7-22(21)29-24)15-17-14-19(31-2)12-13-23(17)33-25/h4-15H,3H2,1-2H3,(H,28,29)

>  <PUBCHEM_IUPAC_INCHIKEY>
CCYIGQNCLXTSGT-UHFFFAOYSA-N

>  <PUBCHEM_XLOGP3_AA>
5.2

>  <PUBCHEM_EXACT_MASS>
439.153

>  <PUBCHEM_MOLECULAR_FORMULA>
C26H21N3O4

>  <PUBCHEM_MOLECULAR_WEIGHT>
439.471

>  <PUBCHEM_OPENEYE_CAN_SMILES>
CCOC(=O)C1=CC=C(C=C1)N=C2C(=CC3=C(O2)C=CC(=C3)OC)C4=NC5=CC=CC=C5N4

>  <PUBCHEM_OPENEYE_ISO_SMILES>
CCOC(=O)C1=CC=C(C=C1)N=C2C(=CC3=C(O2)C=CC(=C3)OC)C4=NC5=CC=CC=C5N4

>  <PUBCHEM_CACTVS_TPSA>
85.8

>  <PUBCHEM_MONOISOTOPIC_WEIGHT>
439.153

>  <PUBCHEM_TOTAL_CHARGE>
0

>  <PUBCHEM_HEAVY_ATOM_COUNT>
33

>  <PUBCHEM_ATOM_DEF_STEREO_COUNT>
0

>  <PUBCHEM_ATOM_UDEF_STEREO_COUNT>
0

>  <PUBCHEM_BOND_DEF_STEREO_COUNT>
0

>  <PUBCHEM_BOND_UDEF_STEREO_COUNT>
0

>  <PUBCHEM_ISOTOPIC_ATOM_COUNT>
0

>  <PUBCHEM_COMPONENT_COUNT>
1

>  <PUBCHEM_CACTVS_TAUTO_COUNT>
2

>  <PUBCHEM_COORDINATE_TYPE>
1
5
255

>  <PUBCHEM_BONDANNOTATIONS>
1  13  8
1  14  8
10  11  8
10  13  8
10  16  8
12  15  8
12  18  8
13  17  8
15  20  8
16  19  8
17  21  8
18  22  8
19  21  8
20  23  8
22  23  8
24  25  8
24  26  8
25  28  8
26  29  8
27  28  8
27  29  8
5  12  8
5  9  8
6  15  8
6  9  8
8  11  8
8  14  8

$$$$
