40468028
 OpenBabel06101807152D

 18 18  0  0  0  0  0  0  0  0999 V2000
    2.8660    1.7685    0.0000 O   0  5  0  0  0  0  0  0  0  0  0  0
    2.0000    0.2685    0.0000 O   0  0  0  0  0  0  0  0  0  0  0  0
    4.5981   -1.2315    0.0000 N   0  3  0  0  0  0  0  0  0  0  0  0
    5.4641   -0.7315    0.0000 C   0  0  0  0  0  0  0  0  0  0  0  0
    3.7320   -0.7315    0.0000 C   0  0  0  0  0  0  0  0  0  0  0  0
    5.4641    0.2685    0.0000 C   0  0  0  0  0  0  0  0  0  0  0  0
    3.7320    0.2685    0.0000 C   0  0  0  0  0  0  0  0  0  0  0  0
    4.5981    0.7685    0.0000 C   0  0  0  0  0  0  0  0  0  0  0  0
    2.8660    0.7685    0.0000 C   0  0  0  0  0  0  0  0  0  0  0  0
    4.2881   -1.7685    0.0000 H   0  0  0  0  0  0  0  0  0  0  0  0
    4.9081   -1.7685    0.0000 H   0  0  0  0  0  0  0  0  0  0  0  0
    5.6762   -1.3141    0.0000 H   0  0  0  0  0  0  0  0  0  0  0  0
    6.0747   -0.6239    0.0000 H   0  0  0  0  0  0  0  0  0  0  0  0
    3.1215   -0.6239    0.0000 H   0  0  0  0  0  0  0  0  0  0  0  0
    3.5200   -1.3141    0.0000 H   0  0  0  0  0  0  0  0  0  0  0  0
    6.0747    0.1608    0.0000 H   0  0  0  0  0  0  0  0  0  0  0  0
    5.6762    0.8511    0.0000 H   0  0  0  0  0  0  0  0  0  0  0  0
    4.5981    1.3885    0.0000 H   0  0  0  0  0  0  0  0  0  0  0  0
  1  9  1  0  0  0  0
  2  9  2  0  0  0  0
  3  4  1  0  0  0  0
  3  5  1  0  0  0  0
  3 10  1  0  0  0  0
  3 11  1  0  0  0  0
  4  6  1  0  0  0  0
  4 12  1  0  0  0  0
  4 13  1  0  0  0  0
  5  7  1  0  0  0  0
  5 14  1  0  0  0  0
  5 15  1  0  0  0  0
  6  8  1  0  0  0  0
  6 16  1  0  0  0  0
  6 17  1  0  0  0  0
  7  8  2  0  0  0  0
  7  9  1  0  0  0  0
  8 18  1  0  0  0  0
M  CHG  2   1  -1   3   1
M  END
>  <PUBCHEM_COMPOUND_CID>
40468028

>  <PUBCHEM_COMPOUND_CANONICALIZED>
1

>  <PUBCHEM_CACTVS_COMPLEXITY>
146

>  <PUBCHEM_CACTVS_HBOND_ACCEPTOR>
2

>  <PUBCHEM_CACTVS_HBOND_DONOR>
1

>  <PUBCHEM_CACTVS_ROTATABLE_BOND>
0

>  <PUBCHEM_CACTVS_SUBSKEYS>
AAADccBiMAAAAAAAAAAAAAAAAAAAAAAAAAAgAAAAAAAAAAAAAAAAHgAQAAAADADBgAQACALAAACIAiDSCACAAAAgAAAACIEIAEgABAgAAQAEEAACEACIAYIAAAAAAAAAAAAAAAAAAAAAAAAAAAAAAAAAAA==

>  <PUBCHEM_IUPAC_OPENEYE_NAME>
1,2,3,6-tetrahydropyridin-1-ium-5-carboxylate

>  <PUBCHEM_IUPAC_CAS_NAME>
1,2,3,6-tetrahydropyridin-1-ium-5-carboxylate

>  <PUBCHEM_IUPAC_NAME>
1,2,3,6-tetrahydropyridin-1-ium-5-carboxylate

>  <PUBCHEM_IUPAC_SYSTEMATIC_NAME>
1,2,3,6-tetrahydropyridin-1-ium-5-carboxylate

>  <PUBCHEM_IUPAC_TRADITIONAL_NAME>
1,2,3,6-tetrahydropyridin-1-ium-5-carboxylate

>  <PUBCHEM_IUPAC_INCHI>
InChI=1S/C6H9NO2/c8-6(9)5-2-1-3-7-4-5/h2,7H,1,3-4H2,(H,8,9)

>  <PUBCHEM_IUPAC_INCHIKEY>
QTDZOWFRBNTPQR-UHFFFAOYSA-N

>  <PUBCHEM_XLOGP3_AA>
-1.9

>  <PUBCHEM_EXACT_MASS>
127.063

>  <PUBCHEM_MOLECULAR_FORMULA>
C6H9NO2

>  <PUBCHEM_MOLECULAR_WEIGHT>
127.143

>  <PUBCHEM_OPENEYE_CAN_SMILES>
C1C[NH2+]CC(=C1)C(=O)[O-]

>  <PUBCHEM_OPENEYE_ISO_SMILES>
C1C[NH2+]CC(=C1)C(=O)[O-]

>  <PUBCHEM_CACTVS_TPSA>
56.7

>  <PUBCHEM_MONOISOTOPIC_WEIGHT>
127.063

>  <PUBCHEM_TOTAL_CHARGE>
0

>  <PUBCHEM_HEAVY_ATOM_COUNT>
9

>  <PUBCHEM_ATOM_DEF_STEREO_COUNT>
0

>  <PUBCHEM_ATOM_UDEF_STEREO_COUNT>
0

>  <PUBCHEM_BOND_DEF_STEREO_COUNT>
0

>  <PUBCHEM_BOND_UDEF_STEREO_COUNT>
0

>  <PUBCHEM_ISOTOPIC_ATOM_COUNT>
0

>  <PUBCHEM_COMPONENT_COUNT>
1

>  <PUBCHEM_CACTVS_TAUTO_COUNT>
1

>  <PUBCHEM_COORDINATE_TYPE>
1
5
255

$$$$
