4068592
 OpenBabel06101807152D

 14 13  0  0  0  0  0  0  0  0999 V2000
    2.8660   -0.0855    0.0000 S   0  0  0  0  0  0  0  0  0  0  0  0
    2.0000   -0.5855    0.0000 O   0  5  0  0  0  0  0  0  0  0  0  0
    2.3660    0.7806    0.0000 O   0  0  0  0  0  0  0  0  0  0  0  0
    3.3660   -0.9515    0.0000 O   0  0  0  0  0  0  0  0  0  0  0  0
    5.4641    0.4145    0.0000 N   0  3  0  0  0  0  0  0  0  0  0  0
    3.7320    0.4145    0.0000 C   0  0  0  0  0  0  0  0  0  0  0  0
    4.5981   -0.0855    0.0000 C   0  0  0  0  0  0  0  0  0  0  0  0
    4.1306    0.8895    0.0000 H   0  0  0  0  0  0  0  0  0  0  0  0
    3.3335    0.8895    0.0000 H   0  0  0  0  0  0  0  0  0  0  0  0
    4.1996   -0.5604    0.0000 H   0  0  0  0  0  0  0  0  0  0  0  0
    4.9966   -0.5604    0.0000 H   0  0  0  0  0  0  0  0  0  0  0  0
    6.0010    0.7245    0.0000 H   0  0  0  0  0  0  0  0  0  0  0  0
    5.7741   -0.1224    0.0000 H   0  0  0  0  0  0  0  0  0  0  0  0
    5.1541    0.9515    0.0000 H   0  0  0  0  0  0  0  0  0  0  0  0
  1  2  1  0  0  0  0
  1  3  2  0  0  0  0
  1  4  2  0  0  0  0
  1  6  1  0  0  0  0
  5  7  1  0  0  0  0
  5 12  1  0  0  0  0
  5 13  1  0  0  0  0
  5 14  1  0  0  0  0
  6  7  1  0  0  0  0
  6  8  1  0  0  0  0
  6  9  1  0  0  0  0
  7 10  1  0  0  0  0
  7 11  1  0  0  0  0
M  CHG  2   2  -1   5   1
M  END
>  <PUBCHEM_COMPOUND_CID>
4068592

>  <PUBCHEM_COMPOUND_CANONICALIZED>
1

>  <PUBCHEM_CACTVS_COMPLEXITY>
107

>  <PUBCHEM_CACTVS_HBOND_ACCEPTOR>
3

>  <PUBCHEM_CACTVS_HBOND_DONOR>
1

>  <PUBCHEM_CACTVS_ROTATABLE_BOND>
1

>  <PUBCHEM_CACTVS_SUBSKEYS>
AAADcYBCMABAAAAAAAAAAAAAAAAAAAAAAAAAAAAAAAAAAAAAAAAAHAQQAAAAAADFQASAAABAAAIAAAAAAHBAAAAAAAAAAIAAAAAAAAAAAAAAAAAAEAAAAAAAAAAAAAAAAAAAAAAAAAAAAAAAAAAAAAAAAA==

>  <PUBCHEM_IUPAC_OPENEYE_NAME>
2-azaniumylethanesulfonate

>  <PUBCHEM_IUPAC_CAS_NAME>
2-ammonioethanesulfonate

>  <PUBCHEM_IUPAC_NAME>
2-azaniumylethanesulfonate

>  <PUBCHEM_IUPAC_SYSTEMATIC_NAME>
2-azaniumylethanesulfonate

>  <PUBCHEM_IUPAC_TRADITIONAL_NAME>
2-ammonioethanesulfonate

>  <PUBCHEM_IUPAC_INCHI>
InChI=1S/C2H7NO3S/c3-1-2-7(4,5)6/h1-3H2,(H,4,5,6)

>  <PUBCHEM_IUPAC_INCHIKEY>
XOAAWQZATWQOTB-UHFFFAOYSA-N

>  <PUBCHEM_XLOGP3_AA>
-4.2

>  <PUBCHEM_EXACT_MASS>
125.015

>  <PUBCHEM_MOLECULAR_FORMULA>
C2H7NO3S

>  <PUBCHEM_MOLECULAR_WEIGHT>
125.142

>  <PUBCHEM_OPENEYE_CAN_SMILES>
C(CS(=O)(=O)[O-])[NH3+]

>  <PUBCHEM_OPENEYE_ISO_SMILES>
C(CS(=O)(=O)[O-])[NH3+]

>  <PUBCHEM_CACTVS_TPSA>
93.2

>  <PUBCHEM_MONOISOTOPIC_WEIGHT>
125.015

>  <PUBCHEM_TOTAL_CHARGE>
0

>  <PUBCHEM_HEAVY_ATOM_COUNT>
7

>  <PUBCHEM_ATOM_DEF_STEREO_COUNT>
0

>  <PUBCHEM_ATOM_UDEF_STEREO_COUNT>
0

>  <PUBCHEM_BOND_DEF_STEREO_COUNT>
0

>  <PUBCHEM_BOND_UDEF_STEREO_COUNT>
0

>  <PUBCHEM_ISOTOPIC_ATOM_COUNT>
0

>  <PUBCHEM_COMPONENT_COUNT>
1

>  <PUBCHEM_CACTVS_TAUTO_COUNT>
1

>  <PUBCHEM_COORDINATE_TYPE>
1
5
255

$$$$
