419220
 OpenBabel06101807152D

 68 69  0  0  1  0  0  0  0  0999 V2000
    4.5981    3.6318    0.0000 O   0  0  0  0  0  0  0  0  0  0  0  0
    6.4103   -1.1730    0.0000 N   0  0  0  0  0  0  0  0  0  0  0  0
    9.2993   -4.4370    0.0000 N   0  0  0  0  0  0  0  0  0  0  0  0
    2.8660    4.6318    0.0000 N   0  0  0  0  0  0  0  0  0  0  0  0
    4.5981    1.6318    0.0000 N   0  0  0  0  0  0  0  0  0  0  0  0
    6.4103    0.4365    0.0000 N   0  0  0  0  0  0  0  0  0  0  0  0
    4.5981   -1.3682    0.0000 N   0  0  0  0  0  0  0  0  0  0  0  0
    3.7320    0.1318    0.0000 N   0  0  0  0  0  0  0  0  0  0  0  0
    6.7210   -2.1235    0.0000 C   0  0  3  0  0  0  0  0  0  0  0  0
    7.6995   -2.3297    0.0000 C   0  0  0  0  0  0  0  0  0  0  0  0
    8.0102   -3.2802    0.0000 C   0  0  0  0  0  0  0  0  0  0  0  0
    8.9887   -3.4864    0.0000 C   0  0  0  0  0  0  0  0  0  0  0  0
    6.0531   -2.8678    0.0000 C   0  0  0  0  0  0  0  0  0  0  0  0
    5.4641   -0.8682    0.0000 C   0  0  0  0  0  0  0  0  0  0  0  0
    5.4641    0.1318    0.0000 C   0  0  0  0  0  0  0  0  0  0  0  0
    3.7320    3.1318    0.0000 C   0  0  3  0  0  0  0  0  0  0  0  0
    6.9939   -0.3682    0.0000 C   0  0  0  0  0  0  0  0  0  0  0  0
    2.8660    3.6318    0.0000 C   0  0  0  0  0  0  0  0  0  0  0  0
   10.2778   -4.6432    0.0000 C   0  0  0  0  0  0  0  0  0  0  0  0
    8.6315   -5.1813    0.0000 C   0  0  0  0  0  0  0  0  0  0  0  0
    3.7320    2.1318    0.0000 C   0  0  0  0  0  0  0  0  0  0  0  0
    4.5981    0.6318    0.0000 C   0  0  0  0  0  0  0  0  0  0  0  0
    2.0000    5.1318    0.0000 C   0  0  0  0  0  0  0  0  0  0  0  0
    3.7320    5.1318    0.0000 C   0  0  0  0  0  0  0  0  0  0  0  0
    8.9421   -6.1318    0.0000 C   0  0  0  0  0  0  0  0  0  0  0  0
   10.5885   -5.5937    0.0000 C   0  0  0  0  0  0  0  0  0  0  0  0
    3.7320   -0.8682    0.0000 C   0  0  0  0  0  0  0  0  0  0  0  0
    3.7320    6.1318    0.0000 C   0  0  0  0  0  0  0  0  0  0  0  0
    2.0000    6.1318    0.0000 C   0  0  0  0  0  0  0  0  0  0  0  0
    6.1143   -1.9956    0.0000 H   0  0  0  0  0  0  0  0  0  0  0  0
    8.3133   -2.2424    0.0000 H   0  0  0  0  0  0  0  0  0  0  0  0
    7.7201   -1.7100    0.0000 H   0  0  0  0  0  0  0  0  0  0  0  0
    7.3963   -3.3676    0.0000 H   0  0  0  0  0  0  0  0  0  0  0  0
    7.9896   -3.8999    0.0000 H   0  0  0  0  0  0  0  0  0  0  0  0
    9.6025   -3.3991    0.0000 H   0  0  0  0  0  0  0  0  0  0  0  0
    9.0092   -2.8668    0.0000 H   0  0  0  0  0  0  0  0  0  0  0  0
    5.5917   -2.4537    0.0000 H   0  0  0  0  0  0  0  0  0  0  0  0
    5.6391   -3.3292    0.0000 H   0  0  0  0  0  0  0  0  0  0  0  0
    6.5146   -3.2818    0.0000 H   0  0  0  0  0  0  0  0  0  0  0  0
    3.7320    3.7518    0.0000 H   0  0  0  0  0  0  0  0  0  0  0  0
    2.2554    3.7394    0.0000 H   0  0  0  0  0  0  0  0  0  0  0  0
    2.6540    3.0492    0.0000 H   0  0  0  0  0  0  0  0  0  0  0  0
    7.6139   -0.3682    0.0000 H   0  0  0  0  0  0  0  0  0  0  0  0
   10.8916   -4.5558    0.0000 H   0  0  0  0  0  0  0  0  0  0  0  0
   10.2984   -4.0235    0.0000 H   0  0  0  0  0  0  0  0  0  0  0  0
    8.2489   -4.6934    0.0000 H   0  0  0  0  0  0  0  0  0  0  0  0
    8.0846   -5.4733    0.0000 H   0  0  0  0  0  0  0  0  0  0  0  0
    3.1215    2.2394    0.0000 H   0  0  0  0  0  0  0  0  0  0  0  0
    3.5200    1.5492    0.0000 H   0  0  0  0  0  0  0  0  0  0  0  0
    5.1350    1.9418    0.0000 H   0  0  0  0  0  0  0  0  0  0  0  0
    3.9441    4.5492    0.0000 H   0  0  0  0  0  0  0  0  0  0  0  0
    4.3426    5.2394    0.0000 H   0  0  0  0  0  0  0  0  0  0  0  0
    1.3894    5.2394    0.0000 H   0  0  0  0  0  0  0  0  0  0  0  0
    1.7880    4.5492    0.0000 H   0  0  0  0  0  0  0  0  0  0  0  0
    9.9992   -5.7863    0.0000 H   0  0  0  0  0  0  0  0  0  0  0  0
    8.3528   -6.3244    0.0000 H   0  0  0  0  0  0  0  0  0  0  0  0
    9.1348   -6.7211    0.0000 H   0  0  0  0  0  0  0  0  0  0  0  0
    9.5315   -5.9392    0.0000 H   0  0  0  0  0  0  0  0  0  0  0  0
   10.7811   -6.1830    0.0000 H   0  0  0  0  0  0  0  0  0  0  0  0
   11.1778   -5.4011    0.0000 H   0  0  0  0  0  0  0  0  0  0  0  0
    3.1951   -1.1782    0.0000 H   0  0  0  0  0  0  0  0  0  0  0  0
    2.6200    6.1318    0.0000 H   0  0  0  0  0  0  0  0  0  0  0  0
    2.0000    6.7518    0.0000 H   0  0  0  0  0  0  0  0  0  0  0  0
    4.3520    6.1318    0.0000 H   0  0  0  0  0  0  0  0  0  0  0  0
    3.7320    6.7518    0.0000 H   0  0  0  0  0  0  0  0  0  0  0  0
    3.1120    6.1318    0.0000 H   0  0  0  0  0  0  0  0  0  0  0  0
    1.3800    6.1318    0.0000 H   0  0  0  0  0  0  0  0  0  0  0  0
    4.5981    4.2518    0.0000 H   0  0  0  0  0  0  0  0  0  0  0  0
  1 16  1  0  0  0  0
  1 68  1  0  0  0  0
  2  9  1  0  0  0  0
  2 14  1  0  0  0  0
  2 17  1  0  0  0  0
  3 12  1  0  0  0  0
  3 19  1  0  0  0  0
  3 20  1  0  0  0  0
  4 18  1  0  0  0  0
  4 23  1  0  0  0  0
  4 24  1  0  0  0  0
  5 21  1  0  0  0  0
  5 22  1  0  0  0  0
  5 50  1  0  0  0  0
  6 15  1  0  0  0  0
  6 17  2  0  0  0  0
  7 14  2  0  0  0  0
  7 27  1  0  0  0  0
  8 22  1  0  0  0  0
  8 27  2  0  0  0  0
  9 10  1  0  0  0  0
  9 13  1  0  0  0  0
  9 30  1  0  0  0  0
 10 11  1  0  0  0  0
 10 31  1  0  0  0  0
 10 32  1  0  0  0  0
 11 12  1  0  0  0  0
 11 33  1  0  0  0  0
 11 34  1  0  0  0  0
 12 35  1  0  0  0  0
 12 36  1  0  0  0  0
 13 37  1  0  0  0  0
 13 38  1  0  0  0  0
 13 39  1  0  0  0  0
 14 15  1  0  0  0  0
 15 22  2  0  0  0  0
 16 18  1  0  0  0  0
 16 21  1  0  0  0  0
 16 40  1  0  0  0  0
 17 43  1  0  0  0  0
 18 41  1  0  0  0  0
 18 42  1  0  0  0  0
 19 26  1  0  0  0  0
 19 44  1  0  0  0  0
 19 45  1  0  0  0  0
 20 25  1  0  0  0  0
 20 46  1  0  0  0  0
 20 47  1  0  0  0  0
 21 48  1  0  0  0  0
 21 49  1  0  0  0  0
 23 29  1  0  0  0  0
 23 53  1  0  0  0  0
 23 54  1  0  0  0  0
 24 28  1  0  0  0  0
 24 51  1  0  0  0  0
 24 52  1  0  0  0  0
 25 56  1  0  0  0  0
 25 57  1  0  0  0  0
 25 58  1  0  0  0  0
 26 55  1  0  0  0  0
 26 59  1  0  0  0  0
 26 60  1  0  0  0  0
 27 61  1  0  0  0  0
 28 64  1  0  0  0  0
 28 65  1  0  0  0  0
 28 66  1  0  0  0  0
 29 62  1  0  0  0  0
 29 63  1  0  0  0  0
 29 67  1  0  0  0  0
M  END
>  <PUBCHEM_COMPOUND_CID>
419220

>  <PUBCHEM_COMPOUND_CANONICALIZED>
1

>  <PUBCHEM_CACTVS_COMPLEXITY>
433

>  <PUBCHEM_CACTVS_HBOND_ACCEPTOR>
7

>  <PUBCHEM_CACTVS_HBOND_DONOR>
2

>  <PUBCHEM_CACTVS_ROTATABLE_BOND>
14

>  <PUBCHEM_CACTVS_SUBSKEYS>
AAADcfB7oAAAAAAAAAAAAAAAAAAAAWAAAAAsAAAAAAAAAFgB+AAAHgAQCAAACDzhlwYH8L/MEgCgAQZhZACAgC0REKABUKAoVBCCWAJAyEAUBAgIEALQACAQAAAAAAAAAAAAAAAAAAAAAAAAAAAAAAAAAA==

>  <PUBCHEM_IUPAC_OPENEYE_NAME>
1-(diethylamino)-3-[[9-[4-(diethylamino)-1-methyl-butyl]purin-6-yl]amino]propan-2-ol

>  <PUBCHEM_IUPAC_CAS_NAME>
1-(diethylamino)-3-[[9-[5-(diethylamino)pentan-2-yl]-6-purinyl]amino]-2-propanol

>  <PUBCHEM_IUPAC_NAME>
1-(diethylamino)-3-[[9-[5-(diethylamino)pentan-2-yl]purin-6-yl]amino]propan-2-ol

>  <PUBCHEM_IUPAC_SYSTEMATIC_NAME>
1-(diethylamino)-3-[[9-[5-(diethylamino)pentan-2-yl]purin-6-yl]amino]propan-2-ol

>  <PUBCHEM_IUPAC_TRADITIONAL_NAME>
1-(diethylamino)-3-[[9-[4-(diethylamino)-1-methyl-butyl]purin-6-yl]amino]propan-2-ol

>  <PUBCHEM_IUPAC_INCHI>
InChI=1S/C21H39N7O/c1-6-26(7-2)12-10-11-17(5)28-16-25-19-20(23-15-24-21(19)28)22-13-18(29)14-27(8-3)9-4/h15-18,29H,6-14H2,1-5H3,(H,22,23,24)

>  <PUBCHEM_IUPAC_INCHIKEY>
NFVHSYKZHYVCGE-UHFFFAOYSA-N

>  <PUBCHEM_XLOGP3_AA>
2.3

>  <PUBCHEM_EXACT_MASS>
405.322

>  <PUBCHEM_MOLECULAR_FORMULA>
C21H39N7O

>  <PUBCHEM_MOLECULAR_WEIGHT>
405.591

>  <PUBCHEM_OPENEYE_CAN_SMILES>
CCN(CC)CCCC(C)N1C=NC2=C1N=CN=C2NCC(CN(CC)CC)O

>  <PUBCHEM_OPENEYE_ISO_SMILES>
CCN(CC)CCCC(C)N1C=NC2=C1N=CN=C2NCC(CN(CC)CC)O

>  <PUBCHEM_CACTVS_TPSA>
82.3

>  <PUBCHEM_MONOISOTOPIC_WEIGHT>
405.322

>  <PUBCHEM_TOTAL_CHARGE>
0

>  <PUBCHEM_HEAVY_ATOM_COUNT>
29

>  <PUBCHEM_ATOM_DEF_STEREO_COUNT>
0

>  <PUBCHEM_ATOM_UDEF_STEREO_COUNT>
2

>  <PUBCHEM_BOND_DEF_STEREO_COUNT>
0

>  <PUBCHEM_BOND_UDEF_STEREO_COUNT>
0

>  <PUBCHEM_ISOTOPIC_ATOM_COUNT>
0

>  <PUBCHEM_COMPONENT_COUNT>
1

>  <PUBCHEM_CACTVS_TAUTO_COUNT>
3

>  <PUBCHEM_COORDINATE_TYPE>
1
5
255

>  <PUBCHEM_BONDANNOTATIONS>
16  1  3
14  15  8
15  22  8
2  14  8
2  17  8
6  15  8
6  17  8
7  14  8
7  27  8
8  22  8
8  27  8
9  13  3

$$$$
