42608026
 OpenBabel06101807152D

 59 61  0  0  1  0  0  0  0  0999 V2000
    6.3580   -0.1897    0.0000 O   0  0  0  0  0  0  0  0  0  0  0  0
    6.3465    2.8796    0.0000 O   0  0  0  0  0  0  0  0  0  0  0  0
    2.8660   -0.1550    0.0000 O   0  0  0  0  0  0  0  0  0  0  0  0
    7.2564   -1.6758    0.0000 O   0  0  0  0  0  0  0  0  0  0  0  0
    9.0000    1.3175    0.0000 O   0  0  0  0  0  0  0  0  0  0  0  0
    4.5981    2.8450    0.0000 O   0  0  0  0  0  0  0  0  0  0  0  0
   10.7205   -1.6892    0.0000 O   0  0  0  0  0  0  0  0  0  0  0  0
    7.2641    0.3242    0.0000 C   0  0  3  0  0  0  0  0  0  0  0  0
    7.2641    1.3658    0.0000 C   0  0  0  0  0  0  0  0  0  0  0  0
    5.4641    0.3450    0.0000 C   0  0  0  0  0  0  0  0  0  0  0  0
    5.4641    1.3450    0.0000 C   0  0  0  0  0  0  0  0  0  0  0  0
    8.1282   -0.1792    0.0000 C   0  0  0  0  0  0  0  0  0  0  0  0
    6.3580    1.8797    0.0000 C   0  0  0  0  0  0  0  0  0  0  0  0
    4.5981   -0.1550    0.0000 C   0  0  0  0  0  0  0  0  0  0  0  0
    4.5981    1.8450    0.0000 C   0  0  0  0  0  0  0  0  0  0  0  0
    4.5981   -1.1550    0.0000 C   0  0  0  0  0  0  0  0  0  0  0  0
    3.7320    0.3450    0.0000 C   0  0  0  0  0  0  0  0  0  0  0  0
    8.1244   -1.1791    0.0000 C   0  0  0  0  0  0  0  0  0  0  0  0
    8.9962    0.3175    0.0000 C   0  0  0  0  0  0  0  0  0  0  0  0
    3.7320    1.3450    0.0000 C   0  0  0  0  0  0  0  0  0  0  0  0
    8.9884   -1.6825    0.0000 C   0  0  0  0  0  0  0  0  0  0  0  0
    9.8602   -0.1858    0.0000 C   0  0  0  0  0  0  0  0  0  0  0  0
    9.8564   -1.1858    0.0000 C   0  0  0  0  0  0  0  0  0  0  0  0
    3.7320   -1.6550    0.0000 C   0  0  0  0  0  0  0  0  0  0  0  0
    3.7320   -2.6550    0.0000 C   0  0  0  0  0  0  0  0  0  0  0  0
    2.0000    0.3450    0.0000 C   0  0  0  0  0  0  0  0  0  0  0  0
    7.2526   -2.6758    0.0000 C   0  0  0  0  0  0  0  0  0  0  0  0
    9.8680    1.8142    0.0000 C   0  0  0  0  0  0  0  0  0  0  0  0
    2.8660   -3.1550    0.0000 C   0  0  0  0  0  0  0  0  0  0  0  0
    4.5981   -3.1550    0.0000 C   0  0  0  0  0  0  0  0  0  0  0  0
   11.5884   -1.1925    0.0000 C   0  0  0  0  0  0  0  0  0  0  0  0
    7.2605   -0.2958    0.0000 H   0  0  0  0  0  0  0  0  0  0  0  0
    7.8750    1.2597    0.0000 H   0  0  0  0  0  0  0  0  0  0  0  0
    7.4732    1.9495    0.0000 H   0  0  0  0  0  0  0  0  0  0  0  0
    4.8101   -1.7376    0.0000 H   0  0  0  0  0  0  0  0  0  0  0  0
    5.2087   -1.0473    0.0000 H   0  0  0  0  0  0  0  0  0  0  0  0
    3.1951    1.6550    0.0000 H   0  0  0  0  0  0  0  0  0  0  0  0
    8.9860   -2.3025    0.0000 H   0  0  0  0  0  0  0  0  0  0  0  0
   10.3984    0.1221    0.0000 H   0  0  0  0  0  0  0  0  0  0  0  0
    3.1951   -1.3450    0.0000 H   0  0  0  0  0  0  0  0  0  0  0  0
    4.0611    3.1550    0.0000 H   0  0  0  0  0  0  0  0  0  0  0  0
    2.3100    0.8819    0.0000 H   0  0  0  0  0  0  0  0  0  0  0  0
    1.4631    0.6550    0.0000 H   0  0  0  0  0  0  0  0  0  0  0  0
    1.6900   -0.1919    0.0000 H   0  0  0  0  0  0  0  0  0  0  0  0
    6.6326   -2.6734    0.0000 H   0  0  0  0  0  0  0  0  0  0  0  0
    7.2502   -3.2958    0.0000 H   0  0  0  0  0  0  0  0  0  0  0  0
    7.8725   -2.6782    0.0000 H   0  0  0  0  0  0  0  0  0  0  0  0
   10.1759    1.2760    0.0000 H   0  0  0  0  0  0  0  0  0  0  0  0
   10.4061    2.1221    0.0000 H   0  0  0  0  0  0  0  0  0  0  0  0
    9.5600    2.3523    0.0000 H   0  0  0  0  0  0  0  0  0  0  0  0
    2.5560   -2.6181    0.0000 H   0  0  0  0  0  0  0  0  0  0  0  0
    4.2881   -3.6919    0.0000 H   0  0  0  0  0  0  0  0  0  0  0  0
    5.1350   -3.4650    0.0000 H   0  0  0  0  0  0  0  0  0  0  0  0
    4.9081   -2.6181    0.0000 H   0  0  0  0  0  0  0  0  0  0  0  0
    2.3291   -3.4650    0.0000 H   0  0  0  0  0  0  0  0  0  0  0  0
    3.1760   -3.6919    0.0000 H   0  0  0  0  0  0  0  0  0  0  0  0
   11.8964   -1.7306    0.0000 H   0  0  0  0  0  0  0  0  0  0  0  0
   12.1266   -0.8846    0.0000 H   0  0  0  0  0  0  0  0  0  0  0  0
   11.2805   -0.6544    0.0000 H   0  0  0  0  0  0  0  0  0  0  0  0
  1  8  1  0  0  0  0
  1 10  1  0  0  0  0
  2 13  2  0  0  0  0
  3 17  1  0  0  0  0
  3 26  1  0  0  0  0
  4 18  1  0  0  0  0
  4 27  1  0  0  0  0
  5 19  1  0  0  0  0
  5 28  1  0  0  0  0
  6 15  1  0  0  0  0
  6 41  1  0  0  0  0
  7 23  1  0  0  0  0
  7 31  1  0  0  0  0
  8  9  1  0  0  0  0
  8 12  1  0  0  0  0
  8 32  1  0  0  0  0
  9 13  1  0  0  0  0
  9 33  1  0  0  0  0
  9 34  1  0  0  0  0
 10 11  2  0  0  0  0
 10 14  1  0  0  0  0
 11 13  1  0  0  0  0
 11 15  1  0  0  0  0
 12 18  2  0  0  0  0
 12 19  1  0  0  0  0
 14 16  1  0  0  0  0
 14 17  2  0  0  0  0
 15 20  2  0  0  0  0
 16 24  1  0  0  0  0
 16 35  1  0  0  0  0
 16 36  1  0  0  0  0
 17 20  1  0  0  0  0
 18 21  1  0  0  0  0
 19 22  2  0  0  0  0
 20 37  1  0  0  0  0
 21 23  2  0  0  0  0
 21 38  1  0  0  0  0
 22 23  1  0  0  0  0
 22 39  1  0  0  0  0
 24 25  2  0  0  0  0
 24 40  1  0  0  0  0
 25 29  1  0  0  0  0
 25 30  1  0  0  0  0
 26 42  1  0  0  0  0
 26 43  1  0  0  0  0
 26 44  1  0  0  0  0
 27 45  1  0  0  0  0
 27 46  1  0  0  0  0
 27 47  1  0  0  0  0
 28 48  1  0  0  0  0
 28 49  1  0  0  0  0
 28 50  1  0  0  0  0
 29 51  1  0  0  0  0
 29 55  1  0  0  0  0
 29 56  1  0  0  0  0
 30 52  1  0  0  0  0
 30 53  1  0  0  0  0
 30 54  1  0  0  0  0
 31 57  1  0  0  0  0
 31 58  1  0  0  0  0
 31 59  1  0  0  0  0
M  END
>  <PUBCHEM_COMPOUND_CID>
42608026

>  <PUBCHEM_COMPOUND_CANONICALIZED>
1

>  <PUBCHEM_CACTVS_COMPLEXITY>
617

>  <PUBCHEM_CACTVS_HBOND_ACCEPTOR>
7

>  <PUBCHEM_CACTVS_HBOND_DONOR>
1

>  <PUBCHEM_CACTVS_ROTATABLE_BOND>
7

>  <PUBCHEM_CACTVS_SUBSKEYS>
AAADceB4OAAAAAAAAAAAAAAAAAAAAAAAAAA0YIAAAAAAAACRQAAAGgAACAAADBSgmAIyBoAABgCIAqBSAAACCAAkIAAAiAEGCMgMJzaGNRqCeWCl4BUIuQeI7OzOIAACCAAIAABAAAQQABAAAAAAAAAAAA==

>  <PUBCHEM_IUPAC_OPENEYE_NAME>
5-hydroxy-7-methoxy-8-(3-methylbut-2-enyl)-2-(2,4,6-trimethoxyphenyl)chroman-4-one

>  <PUBCHEM_IUPAC_CAS_NAME>
5-hydroxy-7-methoxy-8-(3-methylbut-2-enyl)-2-(2,4,6-trimethoxyphenyl)-3,4-dihydro-2H-1-benzopyran-4-one

>  <PUBCHEM_IUPAC_NAME>
5-hydroxy-7-methoxy-8-(3-methylbut-2-enyl)-2-(2,4,6-trimethoxyphenyl)-2,3-dihydrochromen-4-one

>  <PUBCHEM_IUPAC_SYSTEMATIC_NAME>
7-methoxy-8-(3-methylbut-2-enyl)-5-oxidanyl-2-(2,4,6-trimethoxyphenyl)-2,3-dihydrochromen-4-one

>  <PUBCHEM_IUPAC_TRADITIONAL_NAME>
5-hydroxy-7-methoxy-8-(3-methylbut-2-enyl)-2-(2,4,6-trimethoxyphenyl)chroman-4-one

>  <PUBCHEM_IUPAC_INCHI>
InChI=1S/C24H28O7/c1-13(2)7-8-15-18(28-4)11-16(25)22-17(26)12-21(31-24(15)22)23-19(29-5)9-14(27-3)10-20(23)30-6/h7,9-11,21,25H,8,12H2,1-6H3

>  <PUBCHEM_IUPAC_INCHIKEY>
CQHDMUSZBYPHBO-UHFFFAOYSA-N

>  <PUBCHEM_XLOGP3_AA>
4.9

>  <PUBCHEM_EXACT_MASS>
428.184

>  <PUBCHEM_MOLECULAR_FORMULA>
C24H28O7

>  <PUBCHEM_MOLECULAR_WEIGHT>
428.481

>  <PUBCHEM_OPENEYE_CAN_SMILES>
CC(=CCC1=C(C=C(C2=C1OC(CC2=O)C3=C(C=C(C=C3OC)OC)OC)O)OC)C

>  <PUBCHEM_OPENEYE_ISO_SMILES>
CC(=CCC1=C(C=C(C2=C1OC(CC2=O)C3=C(C=C(C=C3OC)OC)OC)O)OC)C

>  <PUBCHEM_CACTVS_TPSA>
83.4

>  <PUBCHEM_MONOISOTOPIC_WEIGHT>
428.184

>  <PUBCHEM_TOTAL_CHARGE>
0

>  <PUBCHEM_HEAVY_ATOM_COUNT>
31

>  <PUBCHEM_ATOM_DEF_STEREO_COUNT>
0

>  <PUBCHEM_ATOM_UDEF_STEREO_COUNT>
1

>  <PUBCHEM_BOND_DEF_STEREO_COUNT>
0

>  <PUBCHEM_BOND_UDEF_STEREO_COUNT>
0

>  <PUBCHEM_ISOTOPIC_ATOM_COUNT>
0

>  <PUBCHEM_COMPONENT_COUNT>
1

>  <PUBCHEM_CACTVS_TAUTO_COUNT>
9

>  <PUBCHEM_COORDINATE_TYPE>
1
5
255

>  <PUBCHEM_BONDANNOTATIONS>
10  11  8
10  14  8
11  15  8
12  18  8
12  19  8
14  17  8
15  20  8
17  20  8
18  21  8
19  22  8
21  23  8
22  23  8
8  12  3

$$$$
