42608054
 OpenBabel06101807152D

 42 44  0  0  1  0  0  0  0  0999 V2000
    6.0682   -0.5223    0.0000 O   0  0  0  0  0  0  0  0  0  0  0  0
    6.9343   -2.0223    0.0000 O   0  0  0  0  0  0  0  0  0  0  0  0
    6.0682    2.4777    0.0000 O   0  0  0  0  0  0  0  0  0  0  0  0
    4.3198    2.5123    0.0000 O   0  0  0  0  0  0  0  0  0  0  0  0
   10.3984   -2.0223    0.0000 O   0  0  0  0  0  0  0  0  0  0  0  0
    2.5381   -0.5464    0.0000 O   0  0  0  0  0  0  0  0  0  0  0  0
    6.9343   -0.0223    0.0000 C   0  0  3  0  0  0  0  0  0  0  0  0
    6.9343    0.9777    0.0000 C   0  0  0  0  0  0  0  0  0  0  0  0
    7.8003   -0.5223    0.0000 C   0  0  0  0  0  0  0  0  0  0  0  0
    5.2022    0.9777    0.0000 C   0  0  0  0  0  0  0  0  0  0  0  0
    6.0682    1.4777    0.0000 C   0  0  0  0  0  0  0  0  0  0  0  0
    5.2022   -0.0223    0.0000 C   0  0  0  0  0  0  0  0  0  0  0  0
    7.8003   -1.5223    0.0000 C   0  0  0  0  0  0  0  0  0  0  0  0
    4.3083    1.5124    0.0000 C   0  0  0  0  0  0  0  0  0  0  0  0
    8.6663   -0.0223    0.0000 C   0  0  0  0  0  0  0  0  0  0  0  0
    4.3083   -0.5569    0.0000 C   0  0  0  0  0  0  0  0  0  0  0  0
    8.6663   -2.0223    0.0000 C   0  0  0  0  0  0  0  0  0  0  0  0
    3.4022    0.9985    0.0000 C   0  0  0  0  0  0  0  0  0  0  0  0
    3.4022   -0.0431    0.0000 C   0  0  0  0  0  0  0  0  0  0  0  0
    9.5323   -0.5223    0.0000 C   0  0  0  0  0  0  0  0  0  0  0  0
    9.5323   -1.5223    0.0000 C   0  0  0  0  0  0  0  0  0  0  0  0
    6.9343   -3.0223    0.0000 C   0  0  0  0  0  0  0  0  0  0  0  0
    3.4597    3.0223    0.0000 C   0  0  0  0  0  0  0  0  0  0  0  0
   11.2644   -1.5223    0.0000 C   0  0  0  0  0  0  0  0  0  0  0  0
    6.9343   -0.6423    0.0000 H   0  0  0  0  0  0  0  0  0  0  0  0
    7.5449    0.8701    0.0000 H   0  0  0  0  0  0  0  0  0  0  0  0
    7.1463    1.5603    0.0000 H   0  0  0  0  0  0  0  0  0  0  0  0
    8.6663    0.5977    0.0000 H   0  0  0  0  0  0  0  0  0  0  0  0
    4.3154   -1.1769    0.0000 H   0  0  0  0  0  0  0  0  0  0  0  0
    8.6663   -2.6423    0.0000 H   0  0  0  0  0  0  0  0  0  0  0  0
    2.8665    1.3106    0.0000 H   0  0  0  0  0  0  0  0  0  0  0  0
   10.0693   -0.2123    0.0000 H   0  0  0  0  0  0  0  0  0  0  0  0
    6.3143   -3.0223    0.0000 H   0  0  0  0  0  0  0  0  0  0  0  0
    6.9343   -3.6423    0.0000 H   0  0  0  0  0  0  0  0  0  0  0  0
    7.5543   -3.0223    0.0000 H   0  0  0  0  0  0  0  0  0  0  0  0
    2.0000   -0.2385    0.0000 H   0  0  0  0  0  0  0  0  0  0  0  0
    3.7758    3.5556    0.0000 H   0  0  0  0  0  0  0  0  0  0  0  0
    2.9263    3.3385    0.0000 H   0  0  0  0  0  0  0  0  0  0  0  0
    3.1435    2.4890    0.0000 H   0  0  0  0  0  0  0  0  0  0  0  0
   11.5744   -2.0592    0.0000 H   0  0  0  0  0  0  0  0  0  0  0  0
   11.8013   -1.2123    0.0000 H   0  0  0  0  0  0  0  0  0  0  0  0
   10.9544   -0.9854    0.0000 H   0  0  0  0  0  0  0  0  0  0  0  0
  1  7  1  0  0  0  0
  1 12  1  0  0  0  0
  2 13  1  0  0  0  0
  2 22  1  0  0  0  0
  3 11  2  0  0  0  0
  4 14  1  0  0  0  0
  4 23  1  0  0  0  0
  5 21  1  0  0  0  0
  5 24  1  0  0  0  0
  6 19  1  0  0  0  0
  6 36  1  0  0  0  0
  7  8  1  0  0  0  0
  7  9  1  0  0  0  0
  7 25  1  0  0  0  0
  8 11  1  0  0  0  0
  8 26  1  0  0  0  0
  8 27  1  0  0  0  0
  9 13  2  0  0  0  0
  9 15  1  0  0  0  0
 10 11  1  0  0  0  0
 10 12  2  0  0  0  0
 10 14  1  0  0  0  0
 12 16  1  0  0  0  0
 13 17  1  0  0  0  0
 14 18  2  0  0  0  0
 15 20  2  0  0  0  0
 15 28  1  0  0  0  0
 16 19  2  0  0  0  0
 16 29  1  0  0  0  0
 17 21  2  0  0  0  0
 17 30  1  0  0  0  0
 18 19  1  0  0  0  0
 18 31  1  0  0  0  0
 20 21  1  0  0  0  0
 20 32  1  0  0  0  0
 22 33  1  0  0  0  0
 22 34  1  0  0  0  0
 22 35  1  0  0  0  0
 23 37  1  0  0  0  0
 23 38  1  0  0  0  0
 23 39  1  0  0  0  0
 24 40  1  0  0  0  0
 24 41  1  0  0  0  0
 24 42  1  0  0  0  0
M  END
>  <PUBCHEM_COMPOUND_CID>
42608054

>  <PUBCHEM_COMPOUND_CANONICALIZED>
1

>  <PUBCHEM_CACTVS_COMPLEXITY>
441

>  <PUBCHEM_CACTVS_HBOND_ACCEPTOR>
6

>  <PUBCHEM_CACTVS_HBOND_DONOR>
1

>  <PUBCHEM_CACTVS_ROTATABLE_BOND>
4

>  <PUBCHEM_CACTVS_SUBSKEYS>
AAADceB4OAAAAAAAAAAAAAAAAAAAAAAAAAA0YIAAAAAAAACRQAAAGgAACAAADBSgmAIyBoAABgCIAqBSAAACCAAkIAAIiAEGCMgMJzaGNRqCeWCl4BUIuQeI7OzOIAAACAAIAABAAAAQABAAAAAAAAAAAA==

>  <PUBCHEM_IUPAC_OPENEYE_NAME>
2-(2,4-dimethoxyphenyl)-7-hydroxy-5-methoxy-chroman-4-one

>  <PUBCHEM_IUPAC_CAS_NAME>
2-(2,4-dimethoxyphenyl)-7-hydroxy-5-methoxy-3,4-dihydro-2H-1-benzopyran-4-one

>  <PUBCHEM_IUPAC_NAME>
2-(2,4-dimethoxyphenyl)-7-hydroxy-5-methoxy-2,3-dihydrochromen-4-one

>  <PUBCHEM_IUPAC_SYSTEMATIC_NAME>
2-(2,4-dimethoxyphenyl)-5-methoxy-7-oxidanyl-2,3-dihydrochromen-4-one

>  <PUBCHEM_IUPAC_TRADITIONAL_NAME>
2-(2,4-dimethoxyphenyl)-7-hydroxy-5-methoxy-chroman-4-one

>  <PUBCHEM_IUPAC_INCHI>
InChI=1S/C18H18O6/c1-21-11-4-5-12(14(8-11)22-2)15-9-13(20)18-16(23-3)6-10(19)7-17(18)24-15/h4-8,15,19H,9H2,1-3H3

>  <PUBCHEM_IUPAC_INCHIKEY>
JVUGHKAZGNYYCA-UHFFFAOYSA-N

>  <PUBCHEM_XLOGP3_AA>
2.5

>  <PUBCHEM_EXACT_MASS>
330.11

>  <PUBCHEM_MOLECULAR_FORMULA>
C18H18O6

>  <PUBCHEM_MOLECULAR_WEIGHT>
330.336

>  <PUBCHEM_OPENEYE_CAN_SMILES>
COC1=CC(=C(C=C1)C2CC(=O)C3=C(C=C(C=C3O2)O)OC)OC

>  <PUBCHEM_OPENEYE_ISO_SMILES>
COC1=CC(=C(C=C1)C2CC(=O)C3=C(C=C(C=C3O2)O)OC)OC

>  <PUBCHEM_CACTVS_TPSA>
74.2

>  <PUBCHEM_MONOISOTOPIC_WEIGHT>
330.11

>  <PUBCHEM_TOTAL_CHARGE>
0

>  <PUBCHEM_HEAVY_ATOM_COUNT>
24

>  <PUBCHEM_ATOM_DEF_STEREO_COUNT>
0

>  <PUBCHEM_ATOM_UDEF_STEREO_COUNT>
1

>  <PUBCHEM_BOND_DEF_STEREO_COUNT>
0

>  <PUBCHEM_BOND_UDEF_STEREO_COUNT>
0

>  <PUBCHEM_ISOTOPIC_ATOM_COUNT>
0

>  <PUBCHEM_COMPONENT_COUNT>
1

>  <PUBCHEM_CACTVS_TAUTO_COUNT>
9

>  <PUBCHEM_COORDINATE_TYPE>
1
5
255

>  <PUBCHEM_BONDANNOTATIONS>
10  12  8
10  14  8
12  16  8
13  17  8
14  18  8
15  20  8
16  19  8
17  21  8
18  19  8
20  21  8
7  9  3
9  13  8
9  15  8

$$$$
