429581
 OpenBabel06101807152D

 70 69  0  0  1  0  0  0  0  0999 V2000
    5.4641    0.9050    0.0000 O   0  0  0  0  0  0  0  0  0  0  0  0
    7.1962    0.9050    0.0000 O   0  0  0  0  0  0  0  0  0  0  0  0
    3.7320   -0.0950    0.0000 O   0  0  0  0  0  0  0  0  0  0  0  0
    5.4641   -2.0950    0.0000 O   0  0  0  0  0  0  0  0  0  0  0  0
    2.8660   -1.5950    0.0000 O   0  0  0  0  0  0  0  0  0  0  0  0
    4.5981   -3.5950    0.0000 O   0  0  0  0  0  0  0  0  0  0  0  0
    2.8660   -4.5950    0.0000 O   0  0  0  0  0  0  0  0  0  0  0  0
    2.0000   -3.0950    0.0000 O   0  0  0  0  0  0  0  0  0  0  0  0
    7.1962    2.9050    0.0000 N   0  0  0  0  0  0  0  0  0  0  0  0
    5.4641    2.9050    0.0000 N   0  0  0  0  0  0  0  0  0  0  0  0
    6.3301    2.4050    0.0000 C   0  0  0  0  0  0  0  0  0  0  0  0
    4.5981    2.4050    0.0000 C   0  0  0  0  0  0  0  0  0  0  0  0
    5.4641    3.9050    0.0000 C   0  0  0  0  0  0  0  0  0  0  0  0
    8.0622    2.4050    0.0000 C   0  0  0  0  0  0  0  0  0  0  0  0
    7.1962    3.9050    0.0000 C   0  0  0  0  0  0  0  0  0  0  0  0
    6.3301    1.4050    0.0000 C   0  0  0  0  0  0  0  0  0  0  0  0
    3.7320    2.9050    0.0000 C   0  0  0  0  0  0  0  0  0  0  0  0
    4.5981    1.4050    0.0000 C   0  0  0  0  0  0  0  0  0  0  0  0
    4.5981    4.4050    0.0000 C   0  0  0  0  0  0  0  0  0  0  0  0
    5.4641    4.9050    0.0000 C   0  0  0  0  0  0  0  0  0  0  0  0
    8.9282    2.9050    0.0000 C   0  0  0  0  0  0  0  0  0  0  0  0
    8.0622    1.4050    0.0000 C   0  0  0  0  0  0  0  0  0  0  0  0
    8.0622    4.4050    0.0000 C   0  0  0  0  0  0  0  0  0  0  0  0
    7.1962    4.9050    0.0000 C   0  0  0  0  0  0  0  0  0  0  0  0
    5.4641   -0.0950    0.0000 C   0  0  0  0  0  0  0  0  0  0  0  0
    4.5981   -0.5950    0.0000 C   0  0  3  0  0  0  0  0  0  0  0  0
    4.5981   -1.5950    0.0000 C   0  0  3  0  0  0  0  0  0  0  0  0
    3.7320   -2.0950    0.0000 C   0  0  3  0  0  0  0  0  0  0  0  0
    3.7320   -3.0950    0.0000 C   0  0  3  0  0  0  0  0  0  0  0  0
    2.8660   -3.5950    0.0000 C   0  0  0  0  0  0  0  0  0  0  0  0
    6.8671    2.0950    0.0000 H   0  0  0  0  0  0  0  0  0  0  0  0
    6.5762    3.9050    0.0000 H   0  0  0  0  0  0  0  0  0  0  0  0
    8.0622    3.0250    0.0000 H   0  0  0  0  0  0  0  0  0  0  0  0
    6.0841    3.9050    0.0000 H   0  0  0  0  0  0  0  0  0  0  0  0
    4.5981    3.0250    0.0000 H   0  0  0  0  0  0  0  0  0  0  0  0
    3.9781    1.4050    0.0000 H   0  0  0  0  0  0  0  0  0  0  0  0
    4.5981    0.7850    0.0000 H   0  0  0  0  0  0  0  0  0  0  0  0
    4.9081    4.9419    0.0000 H   0  0  0  0  0  0  0  0  0  0  0  0
    4.0611    4.7150    0.0000 H   0  0  0  0  0  0  0  0  0  0  0  0
    4.2881    3.8681    0.0000 H   0  0  0  0  0  0  0  0  0  0  0  0
    6.0841    4.9050    0.0000 H   0  0  0  0  0  0  0  0  0  0  0  0
    4.0420    3.4419    0.0000 H   0  0  0  0  0  0  0  0  0  0  0  0
    3.1951    3.2150    0.0000 H   0  0  0  0  0  0  0  0  0  0  0  0
    3.4220    2.3681    0.0000 H   0  0  0  0  0  0  0  0  0  0  0  0
    5.2181    1.4050    0.0000 H   0  0  0  0  0  0  0  0  0  0  0  0
    7.8162    4.9050    0.0000 H   0  0  0  0  0  0  0  0  0  0  0  0
    7.1962    5.5250    0.0000 H   0  0  0  0  0  0  0  0  0  0  0  0
    6.5762    4.9050    0.0000 H   0  0  0  0  0  0  0  0  0  0  0  0
    8.3722    3.8681    0.0000 H   0  0  0  0  0  0  0  0  0  0  0  0
    8.5991    4.7150    0.0000 H   0  0  0  0  0  0  0  0  0  0  0  0
    7.7522    4.9419    0.0000 H   0  0  0  0  0  0  0  0  0  0  0  0
    7.4422    1.4050    0.0000 H   0  0  0  0  0  0  0  0  0  0  0  0
    8.0622    0.7850    0.0000 H   0  0  0  0  0  0  0  0  0  0  0  0
    8.6822    1.4050    0.0000 H   0  0  0  0  0  0  0  0  0  0  0  0
    9.2382    2.3681    0.0000 H   0  0  0  0  0  0  0  0  0  0  0  0
    9.4651    3.2150    0.0000 H   0  0  0  0  0  0  0  0  0  0  0  0
    8.6182    3.4419    0.0000 H   0  0  0  0  0  0  0  0  0  0  0  0
    5.4641    5.5250    0.0000 H   0  0  0  0  0  0  0  0  0  0  0  0
    4.8441    4.9050    0.0000 H   0  0  0  0  0  0  0  0  0  0  0  0
    5.6762   -0.6776    0.0000 H   0  0  0  0  0  0  0  0  0  0  0  0
    6.0747    0.0127    0.0000 H   0  0  0  0  0  0  0  0  0  0  0  0
    4.5981    0.2550    0.0000 H   0  0  0  0  0  0  0  0  0  0  0  0
    4.5981   -2.4450    0.0000 H   0  0  0  0  0  0  0  0  0  0  0  0
    3.7320   -1.2450    0.0000 H   0  0  0  0  0  0  0  0  0  0  0  0
    3.7320   -3.9450    0.0000 H   0  0  0  0  0  0  0  0  0  0  0  0
    3.1951   -0.4050    0.0000 H   0  0  0  0  0  0  0  0  0  0  0  0
    5.4641   -2.7150    0.0000 H   0  0  0  0  0  0  0  0  0  0  0  0
    2.3291   -1.9050    0.0000 H   0  0  0  0  0  0  0  0  0  0  0  0
    4.5981   -4.2150    0.0000 H   0  0  0  0  0  0  0  0  0  0  0  0
    2.3291   -4.9050    0.0000 H   0  0  0  0  0  0  0  0  0  0  0  0
  1 16  1  0  0  0  0
  1 25  1  0  0  0  0
  2 16  2  0  0  0  0
  3 26  1  0  0  0  0
  3 66  1  0  0  0  0
  4 27  1  0  0  0  0
  4 67  1  0  0  0  0
  5 28  1  0  0  0  0
  5 68  1  0  0  0  0
  6 29  1  0  0  0  0
  6 69  1  0  0  0  0
  7 30  1  0  0  0  0
  7 70  1  0  0  0  0
  8 30  2  0  0  0  0
  9 11  1  0  0  0  0
  9 14  1  0  0  0  0
  9 15  1  0  0  0  0
 10 11  1  0  0  0  0
 10 12  1  0  0  0  0
 10 13  1  0  0  0  0
 11 16  1  0  0  0  0
 11 31  1  0  0  0  0
 12 17  1  0  0  0  0
 12 18  1  0  0  0  0
 12 35  1  0  0  0  0
 13 19  1  0  0  0  0
 13 20  1  0  0  0  0
 13 34  1  0  0  0  0
 14 21  1  0  0  0  0
 14 22  1  0  0  0  0
 14 33  1  0  0  0  0
 15 23  1  0  0  0  0
 15 24  1  0  0  0  0
 15 32  1  0  0  0  0
 17 42  1  0  0  0  0
 17 43  1  0  0  0  0
 17 44  1  0  0  0  0
 18 36  1  0  0  0  0
 18 37  1  0  0  0  0
 18 45  1  0  0  0  0
 19 38  1  0  0  0  0
 19 39  1  0  0  0  0
 19 40  1  0  0  0  0
 20 41  1  0  0  0  0
 20 58  1  0  0  0  0
 20 59  1  0  0  0  0
 21 55  1  0  0  0  0
 21 56  1  0  0  0  0
 21 57  1  0  0  0  0
 22 52  1  0  0  0  0
 22 53  1  0  0  0  0
 22 54  1  0  0  0  0
 23 49  1  0  0  0  0
 23 50  1  0  0  0  0
 23 51  1  0  0  0  0
 24 46  1  0  0  0  0
 24 47  1  0  0  0  0
 24 48  1  0  0  0  0
 25 26  1  0  0  0  0
 25 60  1  0  0  0  0
 25 61  1  0  0  0  0
 26 27  1  0  0  0  0
 26 62  1  0  0  0  0
 27 28  1  0  0  0  0
 27 63  1  0  0  0  0
 28 29  1  0  0  0  0
 28 64  1  0  0  0  0
 29 30  1  0  0  0  0
 29 65  1  0  0  0  0
M  END
>  <PUBCHEM_COMPOUND_CID>
429581

>  <PUBCHEM_COMPOUND_CANONICALIZED>
1

>  <PUBCHEM_CACTVS_COMPLEXITY>
505

>  <PUBCHEM_CACTVS_HBOND_ACCEPTOR>
10

>  <PUBCHEM_CACTVS_HBOND_DONOR>
5

>  <PUBCHEM_CACTVS_ROTATABLE_BOND>
14

>  <PUBCHEM_CACTVS_SUBSKEYS>
AAADcfB7PAAAAAAAAAAAAAAAAAAAAAAAAAAAAAAAAAAAAAAAAAAAHgAACAAACDzhgAYDCAMABgAIAACQCAIAAAAAAAAAAAHIAACDEBYAACADQAANIAKTAAHKbAxAAAAAAAAAAAAAAAAAAAAAAAAAAAAAAA==

>  <PUBCHEM_IUPAC_OPENEYE_NAME>
6-[2,2-bis(diisopropylamino)acetyl]oxy-2,3,4,5-tetrahydroxy-hexanoic acid

>  <PUBCHEM_IUPAC_CAS_NAME>
6-[2,2-bis[di(propan-2-yl)amino]-1-oxoethoxy]-2,3,4,5-tetrahydroxyhexanoic acid

>  <PUBCHEM_IUPAC_NAME>
6-[2,2-bis[di(propan-2-yl)amino]acetyl]oxy-2,3,4,5-tetrahydroxyhexanoic acid

>  <PUBCHEM_IUPAC_SYSTEMATIC_NAME>
6-[2,2-bis[di(propan-2-yl)amino]ethanoyloxy]-2,3,4,5-tetrakis(oxidanyl)hexanoic acid

>  <PUBCHEM_IUPAC_TRADITIONAL_NAME>
6-[2,2-bis(diisopropylamino)acetyl]oxy-2,3,4,5-tetrahydroxy-hexanoic acid

>  <PUBCHEM_IUPAC_INCHI>
InChI=1S/C20H40N2O8/c1-10(2)21(11(3)4)18(22(12(5)6)13(7)8)20(29)30-9-14(23)15(24)16(25)17(26)19(27)28/h10-18,23-26H,9H2,1-8H3,(H,27,28)

>  <PUBCHEM_IUPAC_INCHIKEY>
RVSTWRHIGKXTLG-UHFFFAOYSA-N

>  <PUBCHEM_XLOGP3_AA>
-1.6

>  <PUBCHEM_EXACT_MASS>
436.278

>  <PUBCHEM_MOLECULAR_FORMULA>
C20H40N2O8

>  <PUBCHEM_MOLECULAR_WEIGHT>
436.546

>  <PUBCHEM_OPENEYE_CAN_SMILES>
CC(C)N(C(C)C)C(C(=O)OCC(C(C(C(C(=O)O)O)O)O)O)N(C(C)C)C(C)C

>  <PUBCHEM_OPENEYE_ISO_SMILES>
CC(C)N(C(C)C)C(C(=O)OCC(C(C(C(C(=O)O)O)O)O)O)N(C(C)C)C(C)C

>  <PUBCHEM_CACTVS_TPSA>
151

>  <PUBCHEM_MONOISOTOPIC_WEIGHT>
436.278

>  <PUBCHEM_TOTAL_CHARGE>
0

>  <PUBCHEM_HEAVY_ATOM_COUNT>
30

>  <PUBCHEM_ATOM_DEF_STEREO_COUNT>
0

>  <PUBCHEM_ATOM_UDEF_STEREO_COUNT>
4

>  <PUBCHEM_BOND_DEF_STEREO_COUNT>
0

>  <PUBCHEM_BOND_UDEF_STEREO_COUNT>
0

>  <PUBCHEM_ISOTOPIC_ATOM_COUNT>
0

>  <PUBCHEM_COMPONENT_COUNT>
1

>  <PUBCHEM_CACTVS_TAUTO_COUNT>
1

>  <PUBCHEM_COORDINATE_TYPE>
1
5
255

>  <PUBCHEM_BONDANNOTATIONS>
26  62  3
27  63  3
28  64  3
29  65  3

$$$$
