433554
 OpenBabel06101807152D

 53 56  0  0  1  0  0  0  0  0999 V2000
    8.1745    0.2552    0.0000 O   0  0  0  0  0  0  0  0  0  0  0  0
    2.3052   -1.9292    0.0000 O   0  0  0  0  0  0  0  0  0  0  0  0
    3.8128   -2.7819    0.0000 O   0  0  0  0  0  0  0  0  0  0  0  0
    6.5090    0.5618    0.0000 C   0  0  3  0  0  0  0  0  0  0  0  0
    5.6405    1.0574    0.0000 C   0  0  3  0  0  0  0  0  0  0  0  0
    4.7330    0.5461    0.0000 C   0  0  3  0  0  0  0  0  0  0  0  0
    4.7302   -0.4956    0.0000 C   0  0  3  0  0  0  0  0  0  0  0  0
    6.4845    1.7431    0.0000 C   0  0  0  0  0  0  0  0  0  0  0  0
    6.5302   -0.4797    0.0000 C   0  0  0  0  0  0  0  0  0  0  0  0
    7.1606    2.7122    0.0000 C   0  0  3  0  0  0  0  0  0  0  0  0
    7.4380    0.9317    0.0000 C   0  0  3  0  0  0  0  0  0  0  0  0
    5.4865    2.0455    0.0000 C   0  0  0  0  0  0  0  0  0  0  0  0
    5.6349   -1.0119    0.0000 C   0  0  0  0  0  0  0  0  0  0  0  0
    3.7975   -1.0500    0.0000 C   0  0  3  0  0  0  0  0  0  0  0  0
    3.8034    1.1055    0.0000 C   0  0  0  0  0  0  0  0  0  0  0  0
    6.1630    2.7819    0.0000 C   0  0  0  0  0  0  0  0  0  0  0  0
    7.7280    1.8888    0.0000 C   0  0  0  0  0  0  0  0  0  0  0  0
    4.7358    1.5460    0.0000 C   0  0  0  0  0  0  0  0  0  0  0  0
    2.8552   -0.5122    0.0000 C   0  0  0  0  0  0  0  0  0  0  0  0
    2.8582    0.5728    0.0000 C   0  0  0  0  0  0  0  0  0  0  0  0
    4.3052   -1.9115    0.0000 C   0  0  0  0  0  0  0  0  0  0  0  0
    3.3052   -1.9204    0.0000 C   0  0  0  0  0  0  0  0  0  0  0  0
    8.7161    2.0427    0.0000 C   0  0  0  0  0  0  0  0  0  0  0  0
    6.3404    1.5398    0.0000 H   0  0  0  0  0  0  0  0  0  0  0  0
    4.7377   -1.3455    0.0000 H   0  0  0  0  0  0  0  0  0  0  0  0
    6.1103    2.2374    0.0000 H   0  0  0  0  0  0  0  0  0  0  0  0
    5.8988    1.5396    0.0000 H   0  0  0  0  0  0  0  0  0  0  0  0
    6.7512   -1.0590    0.0000 H   0  0  0  0  0  0  0  0  0  0  0  0
    7.1388   -0.3611    0.0000 H   0  0  0  0  0  0  0  0  0  0  0  0
    7.5819    3.4504    0.0000 H   0  0  0  0  0  0  0  0  0  0  0  0
    7.2842    0.0958    0.0000 H   0  0  0  0  0  0  0  0  0  0  0  0
    5.1347    2.5560    0.0000 H   0  0  0  0  0  0  0  0  0  0  0  0
    4.9105    1.8161    0.0000 H   0  0  0  0  0  0  0  0  0  0  0  0
    5.2399   -1.4898    0.0000 H   0  0  0  0  0  0  0  0  0  0  0  0
    6.0382   -1.4828    0.0000 H   0  0  0  0  0  0  0  0  0  0  0  0
    4.2093    1.5742    0.0000 H   0  0  0  0  0  0  0  0  0  0  0  0
    3.4111    1.5856    0.0000 H   0  0  0  0  0  0  0  0  0  0  0  0
    6.3428    3.3753    0.0000 H   0  0  0  0  0  0  0  0  0  0  0  0
    5.6246    3.0893    0.0000 H   0  0  0  0  0  0  0  0  0  0  0  0
    5.3557    1.5444    0.0000 H   0  0  0  0  0  0  0  0  0  0  0  0
    4.7374    2.1660    0.0000 H   0  0  0  0  0  0  0  0  0  0  0  0
    4.1158    1.5477    0.0000 H   0  0  0  0  0  0  0  0  0  0  0  0
    2.2446   -0.4044    0.0000 H   0  0  0  0  0  0  0  0  0  0  0  0
    2.6446   -1.0953    0.0000 H   0  0  0  0  0  0  0  0  0  0  0  0
    2.6507    1.1571    0.0000 H   0  0  0  0  0  0  0  0  0  0  0  0
    2.2470    0.4684    0.0000 H   0  0  0  0  0  0  0  0  0  0  0  0
    3.7710   -2.2263    0.0000 H   0  0  0  0  0  0  0  0  0  0  0  0
    4.6199   -2.4457    0.0000 H   0  0  0  0  0  0  0  0  0  0  0  0
    4.8393   -1.5968    0.0000 H   0  0  0  0  0  0  0  0  0  0  0  0
    8.7660    0.4409    0.0000 H   0  0  0  0  0  0  0  0  0  0  0  0
    9.1051    1.5599    0.0000 H   0  0  0  0  0  0  0  0  0  0  0  0
    8.9397    2.6210    0.0000 H   0  0  0  0  0  0  0  0  0  0  0  0
    2.0000   -2.4689    0.0000 H   0  0  0  0  0  0  0  0  0  0  0  0
  1 11  1  0  0  0  0
  1 50  1  0  0  0  0
  2 22  1  0  0  0  0
  2 53  1  0  0  0  0
  3 22  2  0  0  0  0
  4  5  1  0  0  0  0
  4  8  1  0  0  0  0
  4  9  1  0  0  0  0
  4 11  1  0  0  0  0
  5  6  1  0  0  0  0
  5 12  1  0  0  0  0
  5 24  1  0  0  0  0
  6  7  1  0  0  0  0
  6 15  1  0  0  0  0
  6 18  1  0  0  0  0
  7 13  1  0  0  0  0
  7 14  1  0  0  0  0
  7 25  1  0  0  0  0
  8 10  1  0  0  0  0
  8 26  1  0  0  0  0
  8 27  1  0  0  0  0
  9 13  1  0  0  0  0
  9 28  1  0  0  0  0
  9 29  1  0  0  0  0
 10 16  1  0  0  0  0
 10 17  1  0  0  0  0
 10 30  1  0  0  0  0
 11 17  1  0  0  0  0
 11 31  1  0  0  0  0
 12 16  1  0  0  0  0
 12 32  1  0  0  0  0
 12 33  1  0  0  0  0
 13 34  1  0  0  0  0
 13 35  1  0  0  0  0
 14 19  1  0  0  0  0
 14 21  1  0  0  0  0
 14 22  1  0  0  0  0
 15 20  1  0  0  0  0
 15 36  1  0  0  0  0
 15 37  1  0  0  0  0
 16 38  1  0  0  0  0
 16 39  1  0  0  0  0
 17 23  2  0  0  0  0
 18 40  1  0  0  0  0
 18 41  1  0  0  0  0
 18 42  1  0  0  0  0
 19 20  1  0  0  0  0
 19 43  1  0  0  0  0
 19 44  1  0  0  0  0
 20 45  1  0  0  0  0
 20 46  1  0  0  0  0
 21 47  1  0  0  0  0
 21 48  1  0  0  0  0
 21 49  1  0  0  0  0
 23 51  1  0  0  0  0
 23 52  1  0  0  0  0
M  END
>  <PUBCHEM_COMPOUND_CID>
433554

>  <PUBCHEM_COMPOUND_CANONICALIZED>
1

>  <PUBCHEM_CACTVS_COMPLEXITY>
569

>  <PUBCHEM_CACTVS_HBOND_ACCEPTOR>
3

>  <PUBCHEM_CACTVS_HBOND_DONOR>
2

>  <PUBCHEM_CACTVS_ROTATABLE_BOND>
1

>  <PUBCHEM_CACTVS_SUBSKEYS>
AAADceB4MAAAAAAAAAAAAAAAAAAAAYAAAAAwYMAABgAAAADAAAAAGgAACAAADxSggAICCAAAAgCIAgDSCAAAAAAgAAAAAAEAAAgAFBIAAQAAQAAEgAAAEAGIyPCPgAAAAAAAAACAAAQAACAAAYAABAAAAA==

>  <PUBCHEM_IUPAC_INCHI>
InChI=1S/C20H30O3/c1-12-13-5-6-15-18(2)8-4-9-19(3,17(22)23)14(18)7-10-20(15,11-13)16(12)21/h13-16,21H,1,4-11H2,2-3H3,(H,22,23)

>  <PUBCHEM_IUPAC_INCHIKEY>
GVGJRXSJJHLPGZ-UHFFFAOYSA-N

>  <PUBCHEM_XLOGP3_AA>
3.9

>  <PUBCHEM_EXACT_MASS>
318.219

>  <PUBCHEM_MOLECULAR_FORMULA>
C20H30O3

>  <PUBCHEM_MOLECULAR_WEIGHT>
318.457

>  <PUBCHEM_OPENEYE_CAN_SMILES>
CC12CCCC(C1CCC34C2CCC(C3)C(=C)C4O)(C)C(=O)O

>  <PUBCHEM_OPENEYE_ISO_SMILES>
CC12CCCC(C1CCC34C2CCC(C3)C(=C)C4O)(C)C(=O)O

>  <PUBCHEM_CACTVS_TPSA>
57.5

>  <PUBCHEM_MONOISOTOPIC_WEIGHT>
318.219

>  <PUBCHEM_TOTAL_CHARGE>
0

>  <PUBCHEM_HEAVY_ATOM_COUNT>
23

>  <PUBCHEM_ATOM_DEF_STEREO_COUNT>
0

>  <PUBCHEM_ATOM_UDEF_STEREO_COUNT>
7

>  <PUBCHEM_BOND_DEF_STEREO_COUNT>
0

>  <PUBCHEM_BOND_UDEF_STEREO_COUNT>
0

>  <PUBCHEM_ISOTOPIC_ATOM_COUNT>
0

>  <PUBCHEM_COMPONENT_COUNT>
1

>  <PUBCHEM_CACTVS_TAUTO_COUNT>
1

>  <PUBCHEM_COORDINATE_TYPE>
1
5
255

>  <PUBCHEM_BONDANNOTATIONS>
10  30  3
11  31  3
14  21  3
4  8  3
5  24  3
6  18  3
7  25  3

$$$$
