4369318
 OpenBabel06101807152D

141144  0  0  1  0  0  0  0  0999 V2000
   12.9965   -1.5939    0.0000 O   0  0  0  0  0  0  0  0  0  0  0  0
   12.8542   -2.9486    0.0000 O   0  0  0  0  0  0  0  0  0  0  0  0
   13.8626   -1.0939    0.0000 O   0  0  0  0  0  0  0  0  0  0  0  0
   13.5973   -3.6177    0.0000 O   0  0  0  0  0  0  0  0  0  0  0  0
    9.5852   -5.8319    0.0000 O   0  0  0  0  0  0  0  0  0  0  0  0
   11.2794   -6.1920    0.0000 O   0  0  0  0  0  0  0  0  0  0  0  0
   16.0632    8.9061    0.0000 O   0  0  0  0  0  0  0  0  0  0  0  0
   14.7286    3.4061    0.0000 O   0  0  0  0  0  0  0  0  0  0  0  0
   12.9965    3.4061    0.0000 O   0  0  0  0  0  0  0  0  0  0  0  0
   14.3312    5.9061    0.0000 O   0  0  0  0  0  0  0  0  0  0  0  0
   14.5484   -3.3087    0.0000 O   0  0  0  0  0  0  0  0  0  0  0  0
    8.8671    8.9061    0.0000 O   0  0  0  0  0  0  0  0  0  0  0  0
    8.8671    5.9061    0.0000 O   0  0  0  0  0  0  0  0  0  0  0  0
   11.5991    8.4061    0.0000 O   0  0  0  0  0  0  0  0  0  0  0  0
   16.8972   -8.9196    0.0000 O   0  0  0  0  0  0  0  0  0  0  0  0
    6.1350    8.4061    0.0000 O   0  0  0  0  0  0  0  0  0  0  0  0
    2.5369    7.4061    0.0000 O   0  0  0  0  0  0  0  0  0  0  0  0
    3.4030    5.9061    0.0000 O   0  0  0  0  0  0  0  0  0  0  0  0
   11.1600   -2.5884    0.0000 N   0  0  0  0  0  0  0  0  0  0  0  0
   12.1305   -0.0939    0.0000 N   0  0  0  0  0  0  0  0  0  0  0  0
   12.4383   -4.9048    0.0000 N   0  0  0  0  0  0  0  0  0  0  0  0
   16.0632    6.9061    0.0000 N   0  0  0  0  0  0  0  0  0  0  0  0
   15.0836   -4.9559    0.0000 N   0  0  0  0  0  0  0  0  0  0  0  0
   13.3312    7.4061    0.0000 N   0  0  0  0  0  0  0  0  0  0  0  0
    7.8671    7.4061    0.0000 N   0  0  0  0  0  0  0  0  0  0  0  0
   10.5991    6.9061    0.0000 N   0  0  0  0  0  0  0  0  0  0  0  0
   16.4505   -2.6906    0.0000 N   0  3  0  0  0  0  0  0  0  0  0  0
    4.5601    5.0742    0.0000 N   0  0  0  0  0  0  0  0  0  0  0  0
    5.1350    6.9061    0.0000 N   0  0  0  0  0  0  0  0  0  0  0  0
   11.2645   -1.5939    0.0000 C   0  0  1  0  0  0  0  0  0  0  0  0
   10.3509   -1.1872    0.0000 C   0  0  0  0  0  0  0  0  0  0  0  0
    9.6818   -1.9303    0.0000 C   0  0  0  0  0  0  0  0  0  0  0  0
   10.1818   -2.7964    0.0000 C   0  0  0  0  0  0  0  0  0  0  0  0
   12.1305   -1.0939    0.0000 C   0  0  0  0  0  0  0  0  0  0  0  0
   11.9031   -3.2576    0.0000 C   0  0  0  0  0  0  0  0  0  0  0  0
   11.6952   -4.2357    0.0000 C   0  0  2  0  0  0  0  0  0  0  0  0
   12.9965    0.4061    0.0000 C   0  0  1  0  0  0  0  0  0  0  0  0
   10.7441   -4.5447    0.0000 C   0  0  0  0  0  0  0  0  0  0  0  0
   12.9965    1.4061    0.0000 C   0  0  0  0  0  0  0  0  0  0  0  0
   13.8626   -0.0939    0.0000 C   0  0  0  0  0  0  0  0  0  0  0  0
   13.3894   -4.5958    0.0000 C   0  0  0  0  0  0  0  0  0  0  0  0
   13.8626    1.9061    0.0000 C   0  0  0  0  0  0  0  0  0  0  0  0
   14.1325   -5.2650    0.0000 C   0  0  2  0  0  0  0  0  0  0  0  0
   10.5362   -5.5229    0.0000 C   0  0  0  0  0  0  0  0  0  0  0  0
   15.1972    7.4061    0.0000 C   0  0  1  0  0  0  0  0  0  0  0  0
   13.9246   -6.2431    0.0000 C   0  0  0  0  0  0  0  0  0  0  0  0
   15.1972    8.4061    0.0000 C   0  0  1  0  0  0  0  0  0  0  0  0
   13.8626    2.9061    0.0000 C   0  0  0  0  0  0  0  0  0  0  0  0
   14.3312    6.9061    0.0000 C   0  0  0  0  0  0  0  0  0  0  0  0
   14.6678   -6.9122    0.0000 C   0  0  0  0  0  0  0  0  0  0  0  0
   14.3312    8.9061    0.0000 C   0  0  0  0  0  0  0  0  0  0  0  0
   15.2915   -3.9778    0.0000 C   0  0  0  0  0  0  0  0  0  0  0  0
   15.6188   -6.6032    0.0000 C   0  0  0  0  0  0  0  0  0  0  0  0
   14.4599   -7.8904    0.0000 C   0  0  0  0  0  0  0  0  0  0  0  0
   16.2426   -3.6688    0.0000 C   0  0  0  0  0  0  0  0  0  0  0  0
   12.4651    6.9061    0.0000 C   0  0  0  0  0  0  0  0  0  0  0  0
    7.0010    6.9061    0.0000 C   0  0  1  0  0  0  0  0  0  0  0  0
    9.7331    7.4061    0.0000 C   0  0  1  0  0  0  0  0  0  0  0  0
    7.0010    5.9061    0.0000 C   0  0  0  0  0  0  0  0  0  0  0  0
    6.1350    5.4061    0.0000 C   0  0  0  0  0  0  0  0  0  0  0  0
    9.7331    8.4061    0.0000 C   0  0  1  0  0  0  0  0  0  0  0  0
   16.3620   -7.2724    0.0000 C   0  0  0  0  0  0  0  0  0  0  0  0
   15.2030   -8.5595    0.0000 C   0  0  0  0  0  0  0  0  0  0  0  0
   11.5991    7.4061    0.0000 C   0  0  0  0  0  0  0  0  0  0  0  0
    8.8671    6.9061    0.0000 C   0  0  0  0  0  0  0  0  0  0  0  0
    6.0320    4.4174    0.0000 C   0  0  0  0  0  0  0  0  0  0  0  0
   16.1541   -8.2505    0.0000 C   0  0  0  0  0  0  0  0  0  0  0  0
    5.0534    4.2111    0.0000 C   0  0  0  0  0  0  0  0  0  0  0  0
    5.2272    5.8112    0.0000 C   0  0  0  0  0  0  0  0  0  0  0  0
    6.1350    7.4061    0.0000 C   0  0  0  0  0  0  0  0  0  0  0  0
   10.5991    8.9061    0.0000 C   0  0  0  0  0  0  0  0  0  0  0  0
    6.6998    3.6731    0.0000 C   0  0  0  0  0  0  0  0  0  0  0  0
    4.7428    3.2606    0.0000 C   0  0  0  0  0  0  0  0  0  0  0  0
    6.3891    2.7225    0.0000 C   0  0  0  0  0  0  0  0  0  0  0  0
    5.4106    2.5163    0.0000 C   0  0  0  0  0  0  0  0  0  0  0  0
    4.2690    7.4061    0.0000 C   0  0  0  0  0  0  0  0  0  0  0  0
    3.4030    6.9061    0.0000 C   0  0  0  0  0  0  0  0  0  0  0  0
   11.7845   -1.9316    0.0000 H   0  0  0  0  0  0  0  0  0  0  0  0
   10.6609   -0.6502    0.0000 H   0  0  0  0  0  0  0  0  0  0  0  0
    9.8494   -0.8228    0.0000 H   0  0  0  0  0  0  0  0  0  0  0  0
    9.2670   -1.4696    0.0000 H   0  0  0  0  0  0  0  0  0  0  0  0
    9.1802   -2.2948    0.0000 H   0  0  0  0  0  0  0  0  0  0  0  0
    9.6154   -3.0485    0.0000 H   0  0  0  0  0  0  0  0  0  0  0  0
   10.3734   -3.3860    0.0000 H   0  0  0  0  0  0  0  0  0  0  0  0
   12.2849   -4.0441    0.0000 H   0  0  0  0  0  0  0  0  0  0  0  0
   12.6675    0.2161    0.0000 H   0  0  0  0  0  0  0  0  0  0  0  0
   12.4596    0.7161    0.0000 H   0  0  0  0  0  0  0  0  0  0  0  0
   10.6579   -3.9308    0.0000 H   0  0  0  0  0  0  0  0  0  0  0  0
   10.1245   -4.5231    0.0000 H   0  0  0  0  0  0  0  0  0  0  0  0
   12.3094   -5.5113    0.0000 H   0  0  0  0  0  0  0  0  0  0  0  0
   12.7845    1.9887    0.0000 H   0  0  0  0  0  0  0  0  0  0  0  0
   12.3860    1.2984    0.0000 H   0  0  0  0  0  0  0  0  0  0  0  0
   14.0746    1.3235    0.0000 H   0  0  0  0  0  0  0  0  0  0  0  0
   14.4732    2.0137    0.0000 H   0  0  0  0  0  0  0  0  0  0  0  0
   14.5933   -5.6798    0.0000 H   0  0  0  0  0  0  0  0  0  0  0  0
   16.6001    6.5961    0.0000 H   0  0  0  0  0  0  0  0  0  0  0  0
   15.7341    7.7161    0.0000 H   0  0  0  0  0  0  0  0  0  0  0  0
   13.3498   -6.0108    0.0000 H   0  0  0  0  0  0  0  0  0  0  0  0
   13.5961   -6.7689    0.0000 H   0  0  0  0  0  0  0  0  0  0  0  0
   15.1972    9.0261    0.0000 H   0  0  0  0  0  0  0  0  0  0  0  0
   15.5444   -5.3708    0.0000 H   0  0  0  0  0  0  0  0  0  0  0  0
    9.4563   -6.4384    0.0000 H   0  0  0  0  0  0  0  0  0  0  0  0
   14.6412    9.4430    0.0000 H   0  0  0  0  0  0  0  0  0  0  0  0
   13.7942    9.2161    0.0000 H   0  0  0  0  0  0  0  0  0  0  0  0
   14.0212    8.3692    0.0000 H   0  0  0  0  0  0  0  0  0  0  0  0
   13.8681    7.7161    0.0000 H   0  0  0  0  0  0  0  0  0  0  0  0
   15.7477   -5.9968    0.0000 H   0  0  0  0  0  0  0  0  0  0  0  0
   13.8702   -8.0820    0.0000 H   0  0  0  0  0  0  0  0  0  0  0  0
   16.0632    9.5261    0.0000 H   0  0  0  0  0  0  0  0  0  0  0  0
   16.3289   -4.2828    0.0000 H   0  0  0  0  0  0  0  0  0  0  0  0
   16.8622   -3.6904    0.0000 H   0  0  0  0  0  0  0  0  0  0  0  0
   12.0666    6.4311    0.0000 H   0  0  0  0  0  0  0  0  0  0  0  0
   12.8637    6.4311    0.0000 H   0  0  0  0  0  0  0  0  0  0  0  0
    7.5380    6.5961    0.0000 H   0  0  0  0  0  0  0  0  0  0  0  0
   15.2655    3.0961    0.0000 H   0  0  0  0  0  0  0  0  0  0  0  0
   10.2700    7.7161    0.0000 H   0  0  0  0  0  0  0  0  0  0  0  0
    7.2131    5.3235    0.0000 H   0  0  0  0  0  0  0  0  0  0  0  0
    7.6116    6.0138    0.0000 H   0  0  0  0  0  0  0  0  0  0  0  0
    9.7331    9.0261    0.0000 H   0  0  0  0  0  0  0  0  0  0  0  0
    8.4040    7.7161    0.0000 H   0  0  0  0  0  0  0  0  0  0  0  0
   16.9516   -7.0808    0.0000 H   0  0  0  0  0  0  0  0  0  0  0  0
   15.0741   -9.1660    0.0000 H   0  0  0  0  0  0  0  0  0  0  0  0
   11.1360    6.5961    0.0000 H   0  0  0  0  0  0  0  0  0  0  0  0
   16.5794   -2.0842    0.0000 H   0  0  0  0  0  0  0  0  0  0  0  0
   17.0569   -2.8195    0.0000 H   0  0  0  0  0  0  0  0  0  0  0  0
   15.8440   -2.5617    0.0000 H   0  0  0  0  0  0  0  0  0  0  0  0
    5.0994    6.4179    0.0000 H   0  0  0  0  0  0  0  0  0  0  0  0
    3.9438    5.1411    0.0000 H   0  0  0  0  0  0  0  0  0  0  0  0
   10.9091    8.3692    0.0000 H   0  0  0  0  0  0  0  0  0  0  0  0
   11.1360    9.2161    0.0000 H   0  0  0  0  0  0  0  0  0  0  0  0
   10.2891    9.4430    0.0000 H   0  0  0  0  0  0  0  0  0  0  0  0
    7.3065    3.8009    0.0000 H   0  0  0  0  0  0  0  0  0  0  0  0
    4.1361    3.1328    0.0000 H   0  0  0  0  0  0  0  0  0  0  0  0
    5.6720    6.5961    0.0000 H   0  0  0  0  0  0  0  0  0  0  0  0
    6.8032    2.2611    0.0000 H   0  0  0  0  0  0  0  0  0  0  0  0
    8.8671    9.5261    0.0000 H   0  0  0  0  0  0  0  0  0  0  0  0
    5.2180    1.9270    0.0000 H   0  0  0  0  0  0  0  0  0  0  0  0
    4.6675    7.8810    0.0000 H   0  0  0  0  0  0  0  0  0  0  0  0
    3.8705    7.8810    0.0000 H   0  0  0  0  0  0  0  0  0  0  0  0
   16.7683   -9.5261    0.0000 H   0  0  0  0  0  0  0  0  0  0  0  0
    2.0000    7.0961    0.0000 H   0  0  0  0  0  0  0  0  0  0  0  0
  1 34  2  0  0  0  0
  2 35  2  0  0  0  0
  3 40  2  0  0  0  0
  4 41  2  0  0  0  0
  5 44  1  0  0  0  0
  5102  1  0  0  0  0
  6 44  2  0  0  0  0
  7109  1  0  0  0  0
  8 48  1  0  0  0  0
  8115  1  0  0  0  0
  9 48  2  0  0  0  0
 10 49  2  0  0  0  0
 11 52  2  0  0  0  0
 12136  1  0  0  0  0
 13 65  2  0  0  0  0
 14 64  2  0  0  0  0
 15 67  1  0  0  0  0
 15140  1  0  0  0  0
 16 70  2  0  0  0  0
 17 77  1  0  0  0  0
 17141  1  0  0  0  0
 18 77  2  0  0  0  0
 19 30  1  0  0  0  0
 19 33  1  0  0  0  0
 19 35  1  0  0  0  0
 20 34  1  0  0  0  0
 20 86  1  0  0  0  0
 21 41  1  0  0  0  0
 21 90  1  0  0  0  0
 22 40  1  0  0  0  0
 22 96  1  0  0  0  0
 23 52  1  0  0  0  0
 23101  1  0  0  0  0
 24 49  1  0  0  0  0
 24 56  1  0  0  0  0
 24106  1  0  0  0  0
 25 65  1  0  0  0  0
 25120  1  0  0  0  0
 26 64  1  0  0  0  0
 26123  1  0  0  0  0
 27 55  1  0  0  0  0
 27124  1  0  0  0  0
 27125  1  0  0  0  0
 27126  1  0  0  0  0
 28 68  1  0  0  0  0
 28 69  1  0  0  0  0
 28128  1  0  0  0  0
 29 70  1  0  0  0  0
 29 76  1  0  0  0  0
 29134  1  0  0  0  0
 30 31  1  0  0  0  0
 30 34  1  0  0  0  0
 30 78  1  6  0  0  0
 31 32  1  0  0  0  0
 31 79  1  0  0  0  0
 31 80  1  0  0  0  0
 32 33  1  0  0  0  0
 32 81  1  0  0  0  0
 32 82  1  0  0  0  0
 33 83  1  0  0  0  0
 33 84  1  0  0  0  0
 35 36  1  0  0  0  0
 36 21  1  0  0  0  0
 36 38  1  0  0  0  0
 36 85  1  6  0  0  0
 37 20  1  0  0  0  0
 37 39  1  0  0  0  0
 37 40  1  0  0  0  0
 37 87  1  6  0  0  0
 38 44  1  0  0  0  0
 38 88  1  0  0  0  0
 38 89  1  0  0  0  0
 39 42  1  0  0  0  0
 39 91  1  0  0  0  0
 39 92  1  0  0  0  0
 41 43  1  0  0  0  0
 42 48  1  0  0  0  0
 42 93  1  0  0  0  0
 42 94  1  0  0  0  0
 43 23  1  0  0  0  0
 43 46  1  0  0  0  0
 43 95  1  6  0  0  0
 45 22  1  0  0  0  0
 45 47  1  0  0  0  0
 45 49  1  0  0  0  0
 45 97  1  1  0  0  0
 46 50  1  0  0  0  0
 46 98  1  0  0  0  0
 46 99  1  0  0  0  0
 47  7  1  0  0  0  0
 47 51  1  0  0  0  0
 47100  1  6  0  0  0
 50 53  2  0  0  0  0
 50 54  1  0  0  0  0
 51103  1  0  0  0  0
 51104  1  0  0  0  0
 51105  1  0  0  0  0
 52 55  1  0  0  0  0
 53 62  1  0  0  0  0
 53107  1  0  0  0  0
 54 63  2  0  0  0  0
 54108  1  0  0  0  0
 55110  1  0  0  0  0
 55111  1  0  0  0  0
 56 64  1  0  0  0  0
 56112  1  0  0  0  0
 56113  1  0  0  0  0
 57 25  1  0  0  0  0
 57 59  1  0  0  0  0
 57 70  1  0  0  0  0
 57114  1  6  0  0  0
 58 26  1  0  0  0  0
 58 61  1  0  0  0  0
 58 65  1  0  0  0  0
 58116  1  1  0  0  0
 59 60  1  0  0  0  0
 59117  1  0  0  0  0
 59118  1  0  0  0  0
 60 66  1  0  0  0  0
 60 69  2  0  0  0  0
 61 12  1  0  0  0  0
 61 71  1  0  0  0  0
 61119  1  1  0  0  0
 62 67  2  0  0  0  0
 62121  1  0  0  0  0
 63 67  1  0  0  0  0
 63122  1  0  0  0  0
 66 68  1  0  0  0  0
 66 72  2  0  0  0  0
 68 73  2  0  0  0  0
 69127  1  0  0  0  0
 71129  1  0  0  0  0
 71130  1  0  0  0  0
 71131  1  0  0  0  0
 72 74  1  0  0  0  0
 72132  1  0  0  0  0
 73 75  1  0  0  0  0
 73133  1  0  0  0  0
 74 75  2  0  0  0  0
 74135  1  0  0  0  0
 75137  1  0  0  0  0
 76 77  1  0  0  0  0
 76138  1  0  0  0  0
 76139  1  0  0  0  0
M  CHG  1  27   1
M  END
>  <PUBCHEM_COMPOUND_CID>
4369318

>  <PUBCHEM_COMPOUND_CANONICALIZED>
1

>  <PUBCHEM_CACTVS_COMPLEXITY>
2140

>  <PUBCHEM_CACTVS_HBOND_ACCEPTOR>
18

>  <PUBCHEM_CACTVS_HBOND_DONOR>
16

>  <PUBCHEM_CACTVS_ROTATABLE_BOND>
29

>  <PUBCHEM_CACTVS_SUBSKEYS>
AAADcfB//gAAAAAAAAAAAAAAAAAAAWLAAAAwYAAAAAAAAFgB9AAAHgAQCAAADDzhngY+zvPJkgCoAzX3XACCgCAxIiAI2aG+bJgKdv7CkbOUcAhm9hHY2Ae/3+KOoAAAAAACAABAAAAAAAQAAAAAAAAAAA==

>  <PUBCHEM_IUPAC_OPENEYE_NAME>
[2-[[(1S)-2-[[(1S)-2-[(2S)-2-[[(1S)-3-carboxy-1-[[(1S,2R)-1-[[2-[[(1S,2R)-1-[[(1S)-2-(carboxymethylamino)-1-(1H-indol-3-ylmethyl)-2-oxo-ethyl]carbamoyl]-2-hydroxy-propyl]amino]-2-oxo-ethyl]carbamoyl]-2-hydroxy-propyl]carbamoyl]propyl]carbamoyl]pyrrolidin-1-yl]-1-(carboxymethyl)-2-oxo-ethyl]amino]-1-[(4-hydroxyphenyl)methyl]-2-oxo-ethyl]amino]-2-oxo-ethyl]ammonium

>  <PUBCHEM_IUPAC_CAS_NAME>
[2-[[(2S)-1-[[(2S)-3-carboxy-1-[(2S)-2-[[[(2S)-4-carboxy-1-[[(2S,3R)-1-[[2-[[(2S,3R)-1-[[(2S)-1-(carboxymethylamino)-3-(1H-indol-3-yl)-1-oxopropan-2-yl]amino]-3-hydroxy-1-oxobutan-2-yl]amino]-2-oxoethyl]amino]-3-hydroxy-1-oxobutan-2-yl]amino]-1-oxobutan-2-yl]amino]-oxomethyl]-1-pyrrolidinyl]-1-oxopropan-2-yl]amino]-3-(4-hydroxyphenyl)-1-oxopropan-2-yl]amino]-2-oxoethyl]ammonium

>  <PUBCHEM_IUPAC_NAME>
[2-[[(2S)-1-[[(2S)-3-carboxy-1-[(2S)-2-[[(2S)-4-carboxy-1-[[(2S,3R)-1-[[2-[[(2S,3R)-1-[[(2S)-1-(carboxymethylamino)-3-(1H-indol-3-yl)-1-oxopropan-2-yl]amino]-3-hydroxy-1-oxobutan-2-yl]amino]-2-oxoethyl]amino]-3-hydroxy-1-oxobutan-2-yl]amino]-1-oxobutan-2-yl]carbamoyl]pyrrolidin-1-yl]-1-oxopropan-2-yl]amino]-3-(4-hydroxyphenyl)-1-oxopropan-2-yl]amino]-2-oxoethyl]azanium

>  <PUBCHEM_IUPAC_SYSTEMATIC_NAME>
[2-[[(2S)-1-[[(2S)-1-[(2S)-2-[[(2S)-1-[[(2S,3R)-1-[[2-[[(2S,3R)-1-[[(2S)-1-(2-hydroxy-2-oxoethylamino)-3-(1H-indol-3-yl)-1-oxidanylidene-propan-2-yl]amino]-3-oxidanyl-1-oxidanylidene-butan-2-yl]amino]-2-oxidanylidene-ethyl]amino]-3-oxidanyl-1-oxidanylidene-butan-2-yl]amino]-5-oxidanyl-1,5-bis(oxidanylidene)pentan-2-yl]carbamoyl]pyrrolidin-1-yl]-4-oxidanyl-1,4-bis(oxidanylidene)butan-2-yl]amino]-3-(4-hydroxyphenyl)-1-oxidanylidene-propan-2-yl]amino]-2-oxidanylidene-ethyl]azanium

>  <PUBCHEM_IUPAC_TRADITIONAL_NAME>
[2-[[(1S)-2-[[(1S)-2-[(2S)-2-[[(1S)-3-carboxy-1-[[(1S,2R)-1-[[2-[[(1S,2R)-1-[[(1S)-2-(carboxymethylamino)-1-(1H-indol-3-ylmethyl)-2-keto-ethyl]carbamoyl]-2-hydroxy-propyl]amino]-2-keto-ethyl]carbamoyl]-2-hydroxy-propyl]carbamoyl]propyl]carbamoyl]pyrrolidino]-1-(carboxymethyl)-2-keto-ethyl]amino]-1-(4-hydroxybenzyl)-2-keto-ethyl]amino]-2-keto-ethyl]ammonium

>  <PUBCHEM_IUPAC_INCHI>
InChI=1S/C48H63N11O18/c1-23(60)40(46(75)51-21-36(64)57-41(24(2)61)47(76)55-32(42(71)52-22-39(69)70)17-26-20-50-29-7-4-3-6-28(26)29)58-43(72)30(13-14-37(65)66)54-45(74)34-8-5-15-59(34)48(77)33(18-38(67)68)56-44(73)31(53-35(63)19-49)16-25-9-11-27(62)12-10-25/h3-4,6-7,9-12,20,23-24,30-34,40-41,50,60-62H,5,8,13-19,21-22,49H2,1-2H3,(H,51,75)(H,52,71)(H,53,63)(H,54,74)(H,55,76)(H,56,73)(H,57,64)(H,58,72)(H,65,66)(H,67,68)(H,69,70)/p+1/t23-,24-,30+,31+,32+,33+,34+,40+,41+/m1/s1

>  <PUBCHEM_IUPAC_INCHIKEY>
YYYJTUAEGPSBSQ-GZCAAYOFSA-O

>  <PUBCHEM_XLOGP3>
-6.2

>  <PUBCHEM_EXACT_MASS>
1082.443

>  <PUBCHEM_MOLECULAR_FORMULA>
C48H64N11O18+

>  <PUBCHEM_MOLECULAR_WEIGHT>
1083.099

>  <PUBCHEM_OPENEYE_CAN_SMILES>
CC(C(C(=O)NC(CC1=CNC2=CC=CC=C21)C(=O)NCC(=O)O)NC(=O)CNC(=O)C(C(C)O)NC(=O)C(CCC(=O)O)NC(=O)C3CCCN3C(=O)C(CC(=O)O)NC(=O)C(CC4=CC=C(C=C4)O)NC(=O)C[NH3+])O

>  <PUBCHEM_OPENEYE_ISO_SMILES>
C[C@H]([C@@H](C(=O)N[C@@H](CC1=CNC2=CC=CC=C21)C(=O)NCC(=O)O)NC(=O)CNC(=O)[C@H]([C@@H](C)O)NC(=O)[C@H](CCC(=O)O)NC(=O)[C@@H]3CCCN3C(=O)[C@H](CC(=O)O)NC(=O)[C@H](CC4=CC=C(C=C4)O)NC(=O)C[NH3+])O

>  <PUBCHEM_CACTVS_TPSA>
469

>  <PUBCHEM_MONOISOTOPIC_WEIGHT>
1082.443

>  <PUBCHEM_TOTAL_CHARGE>
1

>  <PUBCHEM_HEAVY_ATOM_COUNT>
77

>  <PUBCHEM_ATOM_DEF_STEREO_COUNT>
9

>  <PUBCHEM_ATOM_UDEF_STEREO_COUNT>
0

>  <PUBCHEM_BOND_DEF_STEREO_COUNT>
0

>  <PUBCHEM_BOND_UDEF_STEREO_COUNT>
0

>  <PUBCHEM_ISOTOPIC_ATOM_COUNT>
0

>  <PUBCHEM_COMPONENT_COUNT>
1

>  <PUBCHEM_CACTVS_TAUTO_COUNT>
512

>  <PUBCHEM_COORDINATE_TYPE>
1
5
255

>  <PUBCHEM_BONDANNOTATIONS>
61  12  6
37  20  5
36  21  5
45  22  6
43  23  5
57  25  5
58  26  6
28  68  8
28  69  8
30  34  5
50  53  8
50  54  8
53  62  8
54  63  8
60  66  8
60  69  8
62  67  8
63  67  8
66  68  8
66  72  8
68  73  8
47  7  5
72  74  8
73  75  8
74  75  8

$$$$
