44143572
 OpenBabel06101807152D

 65 69  0  0  1  0  0  0  0  0999 V2000
    9.7142    2.7166    0.0000 O   0  0  0  0  0  0  0  0  0  0  0  0
    2.8680   -1.8319    0.0000 O   0  0  0  0  0  0  0  0  0  0  0  0
    3.7282   -3.3353    0.0000 O   0  0  0  0  0  0  0  0  0  0  0  0
    9.1251    0.7171    0.0000 C   0  0  1  0  0  0  0  0  0  0  0  0
    9.1251   -0.2829    0.0000 C   0  0  3  0  0  0  0  0  0  0  0  0
    8.2591   -0.7829    0.0000 C   0  0  3  0  0  0  0  0  0  0  0  0
    7.3931   -0.2829    0.0000 C   0  0  3  0  0  0  0  0  0  0  0  0
   10.0713    1.0218    0.0000 C   0  0  2  0  0  0  0  0  0  0  0  0
    8.2591    1.2171    0.0000 C   0  0  0  0  0  0  0  0  0  0  0  0
    6.4831   -0.7898    0.0000 C   0  0  2  0  0  0  0  0  0  0  0  0
    7.3931    0.7171    0.0000 C   0  0  0  0  0  0  0  0  0  0  0  0
   10.0713   -0.5877    0.0000 C   0  0  0  0  0  0  0  0  0  0  0  0
   10.6550    0.2171    0.0000 C   0  0  0  0  0  0  0  0  0  0  0  0
    8.2752   -1.8244    0.0000 C   0  0  0  0  0  0  0  0  0  0  0  0
    9.1251    1.7171    0.0000 C   0  0  0  0  0  0  0  0  0  0  0  0
    6.4750   -1.8314    0.0000 C   0  0  0  0  0  0  0  0  0  0  0  0
    5.5562   -0.2257    0.0000 C   0  0  0  0  0  0  0  0  0  0  0  0
    7.3771   -2.3522    0.0000 C   0  0  0  0  0  0  0  0  0  0  0  0
    6.4908    0.2102    0.0000 C   0  0  0  0  0  0  0  0  0  0  0  0
   10.3820    1.9723    0.0000 C   0  0  0  0  0  0  0  0  0  0  0  0
    4.6084   -0.7537    0.0000 C   0  0  0  0  0  0  0  0  0  0  0  0
    5.5396   -2.3811    0.0000 C   0  0  0  0  0  0  0  0  0  0  0  0
    4.6000   -1.8386    0.0000 C   0  0  0  0  0  0  0  0  0  0  0  0
   11.3605    2.1785    0.0000 C   0  0  0  0  0  0  0  0  0  0  0  0
    3.7320   -2.3353    0.0000 C   0  0  0  0  0  0  0  0  0  0  0  0
   12.0284    1.4342    0.0000 C   0  0  0  0  0  0  0  0  0  0  0  0
   11.6712    3.1290    0.0000 C   0  0  0  0  0  0  0  0  0  0  0  0
   13.0069    1.6404    0.0000 C   0  0  0  0  0  0  0  0  0  0  0  0
   12.6497    3.3353    0.0000 C   0  0  0  0  0  0  0  0  0  0  0  0
   13.3175    2.5910    0.0000 C   0  0  0  0  0  0  0  0  0  0  0  0
    2.0000   -2.3286    0.0000 C   0  0  0  0  0  0  0  0  0  0  0  0
    9.1907   -0.8995    0.0000 H   0  0  0  0  0  0  0  0  0  0  0  0
    8.7984   -1.0888    0.0000 H   0  0  0  0  0  0  0  0  0  0  0  0
    7.9300    0.0271    0.0000 H   0  0  0  0  0  0  0  0  0  0  0  0
    9.6339    1.4611    0.0000 H   0  0  0  0  0  0  0  0  0  0  0  0
    8.6576    1.6920    0.0000 H   0  0  0  0  0  0  0  0  0  0  0  0
    7.8606    1.6920    0.0000 H   0  0  0  0  0  0  0  0  0  0  0  0
    7.1810    1.2997    0.0000 H   0  0  0  0  0  0  0  0  0  0  0  0
    6.7825    0.6094    0.0000 H   0  0  0  0  0  0  0  0  0  0  0  0
    9.8203   -1.1546    0.0000 H   0  0  0  0  0  0  0  0  0  0  0  0
   10.6087   -0.8969    0.0000 H   0  0  0  0  0  0  0  0  0  0  0  0
   11.1158   -0.1977    0.0000 H   0  0  0  0  0  0  0  0  0  0  0  0
   11.1158    0.6318    0.0000 H   0  0  0  0  0  0  0  0  0  0  0  0
    8.4932   -2.4048    0.0000 H   0  0  0  0  0  0  0  0  0  0  0  0
    8.8843   -1.7090    0.0000 H   0  0  0  0  0  0  0  0  0  0  0  0
    9.7451    1.7171    0.0000 H   0  0  0  0  0  0  0  0  0  0  0  0
    9.1251    2.3371    0.0000 H   0  0  0  0  0  0  0  0  0  0  0  0
    8.5051    1.7171    0.0000 H   0  0  0  0  0  0  0  0  0  0  0  0
    5.9644    0.2409    0.0000 H   0  0  0  0  0  0  0  0  0  0  0  0
    5.1663    0.2563    0.0000 H   0  0  0  0  0  0  0  0  0  0  0  0
    7.3795   -2.9722    0.0000 H   0  0  0  0  0  0  0  0  0  0  0  0
    7.1108    0.2054    0.0000 H   0  0  0  0  0  0  0  0  0  0  0  0
    6.4956    0.8302    0.0000 H   0  0  0  0  0  0  0  0  0  0  0  0
    5.8708    0.2150    0.0000 H   0  0  0  0  0  0  0  0  0  0  0  0
    4.4038   -0.1684    0.0000 H   0  0  0  0  0  0  0  0  0  0  0  0
    3.9967   -0.8550    0.0000 H   0  0  0  0  0  0  0  0  0  0  0  0
    5.5420   -3.0011    0.0000 H   0  0  0  0  0  0  0  0  0  0  0  0
   11.8357    0.8449    0.0000 H   0  0  0  0  0  0  0  0  0  0  0  0
   11.2571    3.5905    0.0000 H   0  0  0  0  0  0  0  0  0  0  0  0
   13.4209    1.1790    0.0000 H   0  0  0  0  0  0  0  0  0  0  0  0
   12.8423    3.9246    0.0000 H   0  0  0  0  0  0  0  0  0  0  0  0
   13.9242    2.7188    0.0000 H   0  0  0  0  0  0  0  0  0  0  0  0
    1.6921   -1.7905    0.0000 H   0  0  0  0  0  0  0  0  0  0  0  0
    1.4619   -2.6365    0.0000 H   0  0  0  0  0  0  0  0  0  0  0  0
    2.3079   -2.8667    0.0000 H   0  0  0  0  0  0  0  0  0  0  0  0
  1 20  2  0  0  0  0
  2 25  1  0  0  0  0
  2 31  1  0  0  0  0
  3 25  2  0  0  0  0
  4  5  1  1  0  0  0
  4  9  1  0  0  0  0
  4 15  1  0  0  0  0
  5  6  1  0  0  0  0
  5 12  1  0  0  0  0
  5 32  1  0  0  0  0
  6  7  1  0  0  0  0
  6 14  1  0  0  0  0
  6 33  1  0  0  0  0
  7 11  1  0  0  0  0
  7 34  1  0  0  0  0
  8  4  1  1  0  0  0
  8 13  1  0  0  0  0
  8 20  1  0  0  0  0
  8 35  1  0  0  0  0
  9 11  1  0  0  0  0
  9 36  1  0  0  0  0
  9 37  1  0  0  0  0
 10  7  1  6  0  0  0
 10 16  1  0  0  0  0
 10 17  1  0  0  0  0
 10 19  1  0  0  0  0
 11 38  1  0  0  0  0
 11 39  1  0  0  0  0
 12 13  1  0  0  0  0
 12 40  1  0  0  0  0
 12 41  1  0  0  0  0
 13 42  1  0  0  0  0
 13 43  1  0  0  0  0
 14 18  1  0  0  0  0
 14 44  1  0  0  0  0
 14 45  1  0  0  0  0
 15 46  1  0  0  0  0
 15 47  1  0  0  0  0
 15 48  1  0  0  0  0
 16 18  2  0  0  0  0
 16 22  1  0  0  0  0
 17 21  1  0  0  0  0
 17 49  1  0  0  0  0
 17 50  1  0  0  0  0
 18 51  1  0  0  0  0
 19 52  1  0  0  0  0
 19 53  1  0  0  0  0
 19 54  1  0  0  0  0
 20 24  1  0  0  0  0
 21 23  1  0  0  0  0
 21 55  1  0  0  0  0
 21 56  1  0  0  0  0
 22 23  2  0  0  0  0
 22 57  1  0  0  0  0
 23 25  1  0  0  0  0
 24 26  2  0  0  0  0
 24 27  1  0  0  0  0
 26 28  1  0  0  0  0
 26 58  1  0  0  0  0
 27 29  2  0  0  0  0
 27 59  1  0  0  0  0
 28 30  2  0  0  0  0
 28 60  1  0  0  0  0
 29 30  1  0  0  0  0
 29 61  1  0  0  0  0
 30 62  1  0  0  0  0
 31 63  1  0  0  0  0
 31 64  1  0  0  0  0
 31 65  1  0  0  0  0
M  END
>  <PUBCHEM_COMPOUND_CID>
44143572

>  <PUBCHEM_COMPOUND_CANONICALIZED>
1

>  <PUBCHEM_CACTVS_COMPLEXITY>
816

>  <PUBCHEM_CACTVS_HBOND_ACCEPTOR>
3

>  <PUBCHEM_CACTVS_HBOND_DONOR>
0

>  <PUBCHEM_CACTVS_ROTATABLE_BOND>
4

>  <PUBCHEM_CACTVS_SUBSKEYS>
AAADcfB4MAAAAAAAAAAAAAAAAAAAAYAAAAAwYIEAAAAAAGCBAAAAGgAAAAAADwSAmAIyCIAABACIAqDSCAACAAAkAAAIiAEAAMgIJDKANRCAMQAkgAAIqYeIyPCPgAAAAAAAAACAAAQAACAAAQAACAAAAA==

>  <PUBCHEM_IUPAC_OPENEYE_NAME>
methyl (10R,13S,17S)-17-benzoyl-10,13-dimethyl-2,7,8,9,11,12,14,15,16,17-decahydro-1H-cyclopenta[a]phenanthrene-3-carboxylate

>  <PUBCHEM_IUPAC_CAS_NAME>
(10R,13S,17S)-17-benzoyl-10,13-dimethyl-2,7,8,9,11,12,14,15,16,17-decahydro-1H-cyclopenta[a]phenanthrene-3-carboxylic acid methyl ester

>  <PUBCHEM_IUPAC_NAME>
methyl (10R,13S,17S)-17-benzoyl-10,13-dimethyl-2,7,8,9,11,12,14,15,16,17-decahydro-1H-cyclopenta[a]phenanthrene-3-carboxylate

>  <PUBCHEM_IUPAC_SYSTEMATIC_NAME>
methyl (10R,13S,17S)-10,13-dimethyl-17-(phenylcarbonyl)-2,7,8,9,11,12,14,15,16,17-decahydro-1H-cyclopenta[a]phenanthrene-3-carboxylate

>  <PUBCHEM_IUPAC_TRADITIONAL_NAME>
(10R,13S,17S)-17-benzoyl-10,13-dimethyl-2,7,8,9,11,12,14,15,16,17-decahydro-1H-cyclopenta[a]phenanthrene-3-carboxylic acid methyl ester

>  <PUBCHEM_IUPAC_INCHI>
InChI=1S/C28H34O3/c1-27-15-13-19(26(30)31-3)17-20(27)9-10-21-22-11-12-24(28(22,2)16-14-23(21)27)25(29)18-7-5-4-6-8-18/h4-9,17,21-24H,10-16H2,1-3H3/t21?,22?,23?,24-,27+,28+/m1/s1

>  <PUBCHEM_IUPAC_INCHIKEY>
AGWLVIYLIXLESA-GCUODRBBSA-N

>  <PUBCHEM_XLOGP3_AA>
6.5

>  <PUBCHEM_EXACT_MASS>
418.251

>  <PUBCHEM_MOLECULAR_FORMULA>
C28H34O3

>  <PUBCHEM_MOLECULAR_WEIGHT>
418.577

>  <PUBCHEM_OPENEYE_CAN_SMILES>
CC12CCC3C(C1CCC2C(=O)C4=CC=CC=C4)CC=C5C3(CCC(=C5)C(=O)OC)C

>  <PUBCHEM_OPENEYE_ISO_SMILES>
C[C@]12CCC3C(C1CC[C@@H]2C(=O)C4=CC=CC=C4)CC=C5[C@@]3(CCC(=C5)C(=O)OC)C

>  <PUBCHEM_CACTVS_TPSA>
43.4

>  <PUBCHEM_MONOISOTOPIC_WEIGHT>
418.251

>  <PUBCHEM_TOTAL_CHARGE>
0

>  <PUBCHEM_HEAVY_ATOM_COUNT>
31

>  <PUBCHEM_ATOM_DEF_STEREO_COUNT>
3

>  <PUBCHEM_ATOM_UDEF_STEREO_COUNT>
3

>  <PUBCHEM_BOND_DEF_STEREO_COUNT>
0

>  <PUBCHEM_BOND_UDEF_STEREO_COUNT>
0

>  <PUBCHEM_ISOTOPIC_ATOM_COUNT>
0

>  <PUBCHEM_COMPONENT_COUNT>
1

>  <PUBCHEM_CACTVS_TAUTO_COUNT>
6

>  <PUBCHEM_COORDINATE_TYPE>
1
5
255

>  <PUBCHEM_BONDANNOTATIONS>
10  19  5
24  26  8
24  27  8
26  28  8
27  29  8
28  30  8
29  30  8
4  15  5
5  12  3
6  14  3
7  11  3
8  20  5

$$$$
