44159808
 OpenBabel06101807152D

 56 58  0  0  0  0  0  0  0  0999 V2000
   10.7156    2.9362    0.0000 O   0  0  0  0  0  0  0  0  0  0  0  0
    8.1301   -2.6082    0.0000 O   0  0  0  0  0  0  0  0  0  0  0  0
   11.6602   -0.5841    0.0000 O   0  0  0  0  0  0  0  0  0  0  0  0
    8.1301    0.3918    0.0000 O   0  0  0  0  0  0  0  0  0  0  0  0
   11.6602   -2.6324    0.0000 O   0  0  0  0  0  0  0  0  0  0  0  0
    6.3817    0.4264    0.0000 O   0  0  0  0  0  0  0  0  0  0  0  0
    4.6000   -2.6324    0.0000 O   0  0  0  0  0  0  0  0  0  0  0  0
   10.7271    1.9363    0.0000 C   0  0  0  0  0  0  0  0  0  0  0  0
   10.7387    0.9363    0.0000 C   0  0  0  0  0  0  0  0  0  0  0  0
    9.8785    0.4264    0.0000 C   0  0  0  0  0  0  0  0  0  0  0  0
    9.8901   -0.5736    0.0000 C   0  0  0  0  0  0  0  0  0  0  0  0
    8.9961   -1.1082    0.0000 C   0  0  0  0  0  0  0  0  0  0  0  0
   11.7271    1.9478    0.0000 C   0  0  0  0  0  0  0  0  0  0  0  0
    9.7272    1.9247    0.0000 C   0  0  0  0  0  0  0  0  0  0  0  0
    8.9961   -2.1082    0.0000 C   0  0  0  0  0  0  0  0  0  0  0  0
   10.7961   -1.0874    0.0000 C   0  0  0  0  0  0  0  0  0  0  0  0
    8.1301   -0.6082    0.0000 C   0  0  0  0  0  0  0  0  0  0  0  0
    7.2641   -1.1082    0.0000 C   0  0  0  0  0  0  0  0  0  0  0  0
    7.2641   -2.1082    0.0000 C   0  0  0  0  0  0  0  0  0  0  0  0
    9.8901   -2.6429    0.0000 C   0  0  0  0  0  0  0  0  0  0  0  0
   10.7961   -2.1291    0.0000 C   0  0  0  0  0  0  0  0  0  0  0  0
    6.3701   -0.5736    0.0000 C   0  0  0  0  0  0  0  0  0  0  0  0
    5.4641   -1.0874    0.0000 C   0  0  0  0  0  0  0  0  0  0  0  0
    6.3701   -2.6429    0.0000 C   0  0  0  0  0  0  0  0  0  0  0  0
    5.4641   -2.1291    0.0000 C   0  0  0  0  0  0  0  0  0  0  0  0
    4.6000   -0.5841    0.0000 C   0  0  0  0  0  0  0  0  0  0  0  0
    3.7320   -1.0808    0.0000 C   0  0  0  0  0  0  0  0  0  0  0  0
    2.8680   -0.5774    0.0000 C   0  0  0  0  0  0  0  0  0  0  0  0
    2.0000   -1.0741    0.0000 C   0  0  0  0  0  0  0  0  0  0  0  0
    2.8718    0.4226    0.0000 C   0  0  0  0  0  0  0  0  0  0  0  0
   10.9575    0.3562    0.0000 H   0  0  0  0  0  0  0  0  0  0  0  0
   11.3480    1.0510    0.0000 H   0  0  0  0  0  0  0  0  0  0  0  0
    9.6597    1.0065    0.0000 H   0  0  0  0  0  0  0  0  0  0  0  0
    9.2692    0.3116    0.0000 H   0  0  0  0  0  0  0  0  0  0  0  0
    9.7200    2.5447    0.0000 H   0  0  0  0  0  0  0  0  0  0  0  0
    9.1072    1.9175    0.0000 H   0  0  0  0  0  0  0  0  0  0  0  0
    9.7344    1.3047    0.0000 H   0  0  0  0  0  0  0  0  0  0  0  0
   11.7342    1.3279    0.0000 H   0  0  0  0  0  0  0  0  0  0  0  0
   12.3470    1.9550    0.0000 H   0  0  0  0  0  0  0  0  0  0  0  0
   11.7199    2.5678    0.0000 H   0  0  0  0  0  0  0  0  0  0  0  0
    9.8829   -3.2629    0.0000 H   0  0  0  0  0  0  0  0  0  0  0  0
   11.2489    3.2524    0.0000 H   0  0  0  0  0  0  0  0  0  0  0  0
    6.3773   -3.2629    0.0000 H   0  0  0  0  0  0  0  0  0  0  0  0
    5.0003   -0.1107    0.0000 H   0  0  0  0  0  0  0  0  0  0  0  0
    4.2033   -0.1076    0.0000 H   0  0  0  0  0  0  0  0  0  0  0  0
   12.1984   -0.8920    0.0000 H   0  0  0  0  0  0  0  0  0  0  0  0
    3.7296   -1.7008    0.0000 H   0  0  0  0  0  0  0  0  0  0  0  0
   11.6578   -3.2524    0.0000 H   0  0  0  0  0  0  0  0  0  0  0  0
    5.8484    0.7425    0.0000 H   0  0  0  0  0  0  0  0  0  0  0  0
    4.6024   -3.2524    0.0000 H   0  0  0  0  0  0  0  0  0  0  0  0
    1.6921   -0.5359    0.0000 H   0  0  0  0  0  0  0  0  0  0  0  0
    3.4918    0.4202    0.0000 H   0  0  0  0  0  0  0  0  0  0  0  0
    2.8742    1.0426    0.0000 H   0  0  0  0  0  0  0  0  0  0  0  0
    2.2518    0.4250    0.0000 H   0  0  0  0  0  0  0  0  0  0  0  0
    1.4619   -1.3820    0.0000 H   0  0  0  0  0  0  0  0  0  0  0  0
    2.3079   -1.6122    0.0000 H   0  0  0  0  0  0  0  0  0  0  0  0
  1  8  1  0  0  0  0
  1 42  1  0  0  0  0
  2 15  1  0  0  0  0
  2 19  1  0  0  0  0
  3 16  1  0  0  0  0
  3 46  1  0  0  0  0
  4 17  2  0  0  0  0
  5 21  1  0  0  0  0
  5 48  1  0  0  0  0
  6 22  1  0  0  0  0
  6 49  1  0  0  0  0
  7 25  1  0  0  0  0
  7 50  1  0  0  0  0
  8  9  1  0  0  0  0
  8 13  1  0  0  0  0
  8 14  1  0  0  0  0
  9 10  1  0  0  0  0
  9 31  1  0  0  0  0
  9 32  1  0  0  0  0
 10 11  1  0  0  0  0
 10 33  1  0  0  0  0
 10 34  1  0  0  0  0
 11 12  1  0  0  0  0
 11 16  2  0  0  0  0
 12 15  2  0  0  0  0
 12 17  1  0  0  0  0
 13 38  1  0  0  0  0
 13 39  1  0  0  0  0
 13 40  1  0  0  0  0
 14 35  1  0  0  0  0
 14 36  1  0  0  0  0
 14 37  1  0  0  0  0
 15 20  1  0  0  0  0
 16 21  1  0  0  0  0
 17 18  1  0  0  0  0
 18 19  2  0  0  0  0
 18 22  1  0  0  0  0
 19 24  1  0  0  0  0
 20 21  2  0  0  0  0
 20 41  1  0  0  0  0
 22 23  2  0  0  0  0
 23 25  1  0  0  0  0
 23 26  1  0  0  0  0
 24 25  2  0  0  0  0
 24 43  1  0  0  0  0
 26 27  1  0  0  0  0
 26 44  1  0  0  0  0
 26 45  1  0  0  0  0
 27 28  2  0  0  0  0
 27 47  1  0  0  0  0
 28 29  1  0  0  0  0
 28 30  1  0  0  0  0
 29 51  1  0  0  0  0
 29 55  1  0  0  0  0
 29 56  1  0  0  0  0
 30 52  1  0  0  0  0
 30 53  1  0  0  0  0
 30 54  1  0  0  0  0
M  END
>  <PUBCHEM_COMPOUND_CID>
44159808

>  <PUBCHEM_COMPOUND_CANONICALIZED>
1

>  <PUBCHEM_CACTVS_COMPLEXITY>
656

>  <PUBCHEM_CACTVS_HBOND_ACCEPTOR>
7

>  <PUBCHEM_CACTVS_HBOND_DONOR>
5

>  <PUBCHEM_CACTVS_ROTATABLE_BOND>
5

>  <PUBCHEM_CACTVS_SUBSKEYS>
AAADceB4OAAAAAAAAAAAAAAAAAAAAAAAAAA0YIAAAAAAAACRQAAAGgAACAAADESAmAAyBoAABgCIAqBSAAACCAAkIAAAiAEGiMgNJzaGNRqCeWGl4BUJuQfK7PzOoQADCAAYQABCAAYQADCAAAAAAAAAAA==

>  <PUBCHEM_IUPAC_OPENEYE_NAME>
1,3,6,7-tetrahydroxy-8-(3-hydroxy-3-methyl-butyl)-2-(3-methylbut-2-enyl)xanthen-9-one

>  <PUBCHEM_IUPAC_CAS_NAME>
1,3,6,7-tetrahydroxy-8-(3-hydroxy-3-methylbutyl)-2-(3-methylbut-2-enyl)-9-xanthenone

>  <PUBCHEM_IUPAC_NAME>
1,3,6,7-tetrahydroxy-8-(3-hydroxy-3-methylbutyl)-2-(3-methylbut-2-enyl)xanthen-9-one

>  <PUBCHEM_IUPAC_SYSTEMATIC_NAME>
7-(3-methylbut-2-enyl)-1-(3-methyl-3-oxidanyl-butyl)-2,3,6,8-tetrakis(oxidanyl)xanthen-9-one

>  <PUBCHEM_IUPAC_TRADITIONAL_NAME>
1,3,6,7-tetrahydroxy-8-(3-hydroxy-3-methyl-butyl)-2-(3-methylbut-2-enyl)xanthone

>  <PUBCHEM_IUPAC_INCHI>
InChI=1S/C23H26O7/c1-11(2)5-6-12-14(24)9-17-19(21(12)27)22(28)18-13(7-8-23(3,4)29)20(26)15(25)10-16(18)30-17/h5,9-10,24-27,29H,6-8H2,1-4H3

>  <PUBCHEM_IUPAC_INCHIKEY>
HLOCLVMUASBDDP-UHFFFAOYSA-N

>  <PUBCHEM_XLOGP3_AA>
4.6

>  <PUBCHEM_EXACT_MASS>
414.168

>  <PUBCHEM_MOLECULAR_FORMULA>
C23H26O7

>  <PUBCHEM_MOLECULAR_WEIGHT>
414.454

>  <PUBCHEM_OPENEYE_CAN_SMILES>
CC(=CCC1=C(C=C2C(=C1O)C(=O)C3=C(C(=C(C=C3O2)O)O)CCC(C)(C)O)O)C

>  <PUBCHEM_OPENEYE_ISO_SMILES>
CC(=CCC1=C(C=C2C(=C1O)C(=O)C3=C(C(=C(C=C3O2)O)O)CCC(C)(C)O)O)C

>  <PUBCHEM_CACTVS_TPSA>
127

>  <PUBCHEM_MONOISOTOPIC_WEIGHT>
414.168

>  <PUBCHEM_TOTAL_CHARGE>
0

>  <PUBCHEM_HEAVY_ATOM_COUNT>
30

>  <PUBCHEM_ATOM_DEF_STEREO_COUNT>
0

>  <PUBCHEM_ATOM_UDEF_STEREO_COUNT>
0

>  <PUBCHEM_BOND_DEF_STEREO_COUNT>
0

>  <PUBCHEM_BOND_UDEF_STEREO_COUNT>
0

>  <PUBCHEM_ISOTOPIC_ATOM_COUNT>
0

>  <PUBCHEM_COMPONENT_COUNT>
1

>  <PUBCHEM_CACTVS_TAUTO_COUNT>
369

>  <PUBCHEM_COORDINATE_TYPE>
1
5
255

>  <PUBCHEM_BONDANNOTATIONS>
11  12  8
11  16  8
12  15  8
12  17  8
15  20  8
16  21  8
17  18  8
18  19  8
18  22  8
19  24  8
2  15  8
2  19  8
20  21  8
22  23  8
23  25  8
24  25  8

$$$$
