441878
 OpenBabel06101807152D

177187  0  0  1  0  0  0  0  0999 V2000
   10.8882    3.4270    0.0000 O   0  0  0  0  0  0  0  0  0  0  0  0
   10.7717    4.5892    0.0000 O   0  0  0  0  0  0  0  0  0  0  0  0
    9.4651   -4.8170    0.0000 O   0  0  0  0  0  0  0  0  0  0  0  0
    9.3400    6.8997    0.0000 O   0  0  0  0  0  0  0  0  0  0  0  0
    7.7331   -4.8170    0.0000 O   0  0  0  0  0  0  0  0  0  0  0  0
    8.3177    8.2979    0.0000 O   0  0  0  0  0  0  0  0  0  0  0  0
    9.4651   -6.8170    0.0000 O   0  0  0  0  0  0  0  0  0  0  0  0
    7.7331   -7.8170    0.0000 O   0  0  0  0  0  0  0  0  0  0  0  0
   10.9545    8.0801    0.0000 O   0  0  0  0  0  0  0  0  0  0  0  0
    6.0010   -6.8170    0.0000 O   0  0  0  0  0  0  0  0  0  0  0  0
   10.7395   10.0685    0.0000 O   0  0  0  0  0  0  0  0  0  0  0  0
    8.9099   10.8765    0.0000 O   0  0  0  0  0  0  0  0  0  0  0  0
   10.3312   -5.3170    0.0000 O   0  0  0  0  0  0  0  0  0  0  0  0
    6.0010   -3.8170    0.0000 O   0  0  0  0  0  0  0  0  0  0  0  0
    6.4882    9.1060    0.0000 O   0  0  0  0  0  0  0  0  0  0  0  0
    5.1350   -5.3170    0.0000 O   0  0  0  0  0  0  0  0  0  0  0  0
   11.1972   -7.8170    0.0000 O   0  0  0  0  0  0  0  0  0  0  0  0
   12.9292   -6.8170    0.0000 O   0  0  0  0  0  0  0  0  0  0  0  0
   12.9292   -4.8170    0.0000 O   0  0  0  0  0  0  0  0  0  0  0  0
    4.2690   -7.8170    0.0000 O   0  0  0  0  0  0  0  0  0  0  0  0
    2.5369   -6.8170    0.0000 O   0  0  0  0  0  0  0  0  0  0  0  0
   12.0632   -3.3170    0.0000 O   0  0  0  0  0  0  0  0  0  0  0  0
    2.5369   -4.8170    0.0000 O   0  0  0  0  0  0  0  0  0  0  0  0
   12.0632   -8.3170    0.0000 O   0  0  0  0  0  0  0  0  0  0  0  0
   14.6613   -7.8170    0.0000 O   0  0  0  0  0  0  0  0  0  0  0  0
   14.6613   -9.8170    0.0000 O   0  0  0  0  0  0  0  0  0  0  0  0
   12.9292  -10.8170    0.0000 O   0  0  0  0  0  0  0  0  0  0  0  0
   11.1972  -10.8170    0.0000 O   0  0  0  0  0  0  0  0  0  0  0  0
    9.4944    1.3798    0.0000 C   0  0  1  0  0  0  0  0  0  0  0  0
   10.3623    0.8832    0.0000 C   0  0  2  0  0  0  0  0  0  0  0  0
    9.6999    2.3525    0.0000 C   0  0  2  0  0  0  0  0  0  0  0  0
   10.3662   -0.1168    0.0000 C   0  0  1  0  0  0  0  0  0  0  0  0
   10.6882    2.4593    0.0000 C   0  0  2  0  0  0  0  0  0  0  0  0
   11.0968    1.5531    0.0000 C   0  0  0  0  0  0  0  0  0  0  0  0
    9.5021   -0.6201    0.0000 C   0  0  2  0  0  0  0  0  0  0  0  0
    9.2976    3.2551    0.0000 C   0  0  1  0  0  0  0  0  0  0  0  0
    8.6303    0.8765    0.0000 C   0  0  0  0  0  0  0  0  0  0  0  0
   10.0305    3.9178    0.0000 C   0  0  1  0  0  0  0  0  0  0  0  0
    8.6342   -0.1235    0.0000 C   0  0  0  0  0  0  0  0  0  0  0  0
    9.4901   -1.6617    0.0000 C   0  0  2  0  0  0  0  0  0  0  0  0
    8.6264    1.8765    0.0000 C   0  0  0  0  0  0  0  0  0  0  0  0
   11.2781   -0.6201    0.0000 C   0  0  0  0  0  0  0  0  0  0  0  0
   10.3901   -2.1860    0.0000 C   0  0  0  0  0  0  0  0  0  0  0  0
    9.1630    4.4153    0.0000 C   0  0  0  0  0  0  0  0  0  0  0  0
    8.5402   -2.1860    0.0000 C   0  0  0  0  0  0  0  0  0  0  0  0
    8.3192    3.4617    0.0000 C   0  0  0  0  0  0  0  0  0  0  0  0
   11.2902   -1.6617    0.0000 C   0  0  0  0  0  0  0  0  0  0  0  0
   10.3622    5.5015    0.0000 C   0  0  1  0  0  0  0  0  0  0  0  0
    8.6260   -1.1584    0.0000 C   0  0  0  0  0  0  0  0  0  0  0  0
    9.3680    5.3940    0.0000 C   0  0  0  0  0  0  0  0  0  0  0  0
   10.4027   -3.2709    0.0000 C   0  0  0  0  0  0  0  0  0  0  0  0
    8.5276   -3.2709    0.0000 C   0  0  0  0  0  0  0  0  0  0  0  0
    9.4651   -3.8170    0.0000 C   0  0  2  0  0  0  0  0  0  0  0  0
   10.2547    6.4957    0.0000 C   0  0  0  0  0  0  0  0  0  0  0  0
   11.2745    5.9110    0.0000 C   0  0  0  0  0  0  0  0  0  0  0  0
    8.5991   -5.3170    0.0000 C   0  0  2  0  0  0  0  0  0  0  0  0
    9.2324    7.8939    0.0000 C   0  0  2  0  0  0  0  0  0  0  0  0
    8.5991   -6.3170    0.0000 C   0  0  1  0  0  0  0  0  0  0  0  0
    7.7331   -6.8170    0.0000 C   0  0  2  0  0  0  0  0  0  0  0  0
   10.0397    8.4841    0.0000 C   0  0  1  0  0  0  0  0  0  0  0  0
    6.8671   -5.3170    0.0000 C   0  0  1  0  0  0  0  0  0  0  0  0
    6.8671   -6.3170    0.0000 C   0  0  1  0  0  0  0  0  0  0  0  0
    9.9322    9.4783    0.0000 C   0  0  2  0  0  0  0  0  0  0  0  0
    8.2102    9.2921    0.0000 C   0  0  1  0  0  0  0  0  0  0  0  0
    9.0174    9.8824    0.0000 C   0  0  1  0  0  0  0  0  0  0  0  0
    6.0010   -4.8170    0.0000 C   0  0  0  0  0  0  0  0  0  0  0  0
   10.3312   -6.3170    0.0000 C   0  0  2  0  0  0  0  0  0  0  0  0
    7.2954    9.6962    0.0000 C   0  0  0  0  0  0  0  0  0  0  0  0
   11.1972   -6.8170    0.0000 C   0  0  1  0  0  0  0  0  0  0  0  0
    5.1350   -6.3170    0.0000 C   0  0  2  0  0  0  0  0  0  0  0  0
   12.0632   -6.3170    0.0000 C   0  0  2  0  0  0  0  0  0  0  0  0
   11.1972   -4.8170    0.0000 C   0  0  1  0  0  0  0  0  0  0  0  0
   12.0632   -5.3170    0.0000 C   0  0  1  0  0  0  0  0  0  0  0  0
    4.2690   -6.8170    0.0000 C   0  0  1  0  0  0  0  0  0  0  0  0
    3.4030   -6.3170    0.0000 C   0  0  1  0  0  0  0  0  0  0  0  0
    4.2690   -4.8170    0.0000 C   0  0  2  0  0  0  0  0  0  0  0  0
   11.1972   -3.8170    0.0000 C   0  0  0  0  0  0  0  0  0  0  0  0
    3.4030   -5.3170    0.0000 C   0  0  2  0  0  0  0  0  0  0  0  0
   12.9292   -7.8170    0.0000 C   0  0  2  0  0  0  0  0  0  0  0  0
    4.2690   -3.8170    0.0000 C   0  0  0  0  0  0  0  0  0  0  0  0
   13.7953   -8.3170    0.0000 C   0  0  1  0  0  0  0  0  0  0  0  0
   13.7953   -9.3170    0.0000 C   0  0  2  0  0  0  0  0  0  0  0  0
   12.0632   -9.3170    0.0000 C   0  0  1  0  0  0  0  0  0  0  0  0
   12.9292   -9.8170    0.0000 C   0  0  1  0  0  0  0  0  0  0  0  0
   11.1972   -9.8170    0.0000 C   0  0  0  0  0  0  0  0  0  0  0  0
   11.1406    0.5415    0.0000 H   0  0  0  0  0  0  0  0  0  0  0  0
    8.8546    2.2629    0.0000 H   0  0  0  0  0  0  0  0  0  0  0  0
   11.0974    0.3167    0.0000 H   0  0  0  0  0  0  0  0  0  0  0  0
   11.5330    2.5525    0.0000 H   0  0  0  0  0  0  0  0  0  0  0  0
   11.4642    1.0537    0.0000 H   0  0  0  0  0  0  0  0  0  0  0  0
   11.6321    1.8659    0.0000 H   0  0  0  0  0  0  0  0  0  0  0  0
   10.2366   -1.0480    0.0000 H   0  0  0  0  0  0  0  0  0  0  0  0
    8.9078    2.7729    0.0000 H   0  0  0  0  0  0  0  0  0  0  0  0
    8.4160    1.4583    0.0000 H   0  0  0  0  0  0  0  0  0  0  0  0
    8.0201    0.7665    0.0000 H   0  0  0  0  0  0  0  0  0  0  0  0
    8.0232   -0.0182    0.0000 H   0  0  0  0  0  0  0  0  0  0  0  0
    8.4244   -0.7069    0.0000 H   0  0  0  0  0  0  0  0  0  0  0  0
    8.9344    2.4146    0.0000 H   0  0  0  0  0  0  0  0  0  0  0  0
    8.0883    2.1844    0.0000 H   0  0  0  0  0  0  0  0  0  0  0  0
    8.3185    1.3384    0.0000 H   0  0  0  0  0  0  0  0  0  0  0  0
   11.8902   -0.7192    0.0000 H   0  0  0  0  0  0  0  0  0  0  0  0
   11.4804   -0.0341    0.0000 H   0  0  0  0  0  0  0  0  0  0  0  0
    8.5728    4.6051    0.0000 H   0  0  0  0  0  0  0  0  0  0  0  0
    8.9125    3.8481    0.0000 H   0  0  0  0  0  0  0  0  0  0  0  0
    8.3379   -1.5999    0.0000 H   0  0  0  0  0  0  0  0  0  0  0  0
    7.9281   -2.2850    0.0000 H   0  0  0  0  0  0  0  0  0  0  0  0
    8.4473    4.0684    0.0000 H   0  0  0  0  0  0  0  0  0  0  0  0
    7.7125    3.5899    0.0000 H   0  0  0  0  0  0  0  0  0  0  0  0
    8.1910    2.8551    0.0000 H   0  0  0  0  0  0  0  0  0  0  0  0
   11.8295   -1.9676    0.0000 H   0  0  0  0  0  0  0  0  0  0  0  0
    8.9380   -0.6226    0.0000 H   0  0  0  0  0  0  0  0  0  0  0  0
    8.0902   -0.8463    0.0000 H   0  0  0  0  0  0  0  0  0  0  0  0
    8.3139   -1.6941    0.0000 H   0  0  0  0  0  0  0  0  0  0  0  0
    9.3662    6.0140    0.0000 H   0  0  0  0  0  0  0  0  0  0  0  0
    8.7512    5.4570    0.0000 H   0  0  0  0  0  0  0  0  0  0  0  0
   10.6185   -3.8522    0.0000 H   0  0  0  0  0  0  0  0  0  0  0  0
   11.0123   -3.1578    0.0000 H   0  0  0  0  0  0  0  0  0  0  0  0
    7.9180   -3.1578    0.0000 H   0  0  0  0  0  0  0  0  0  0  0  0
    8.3118   -3.8522    0.0000 H   0  0  0  0  0  0  0  0  0  0  0  0
   10.0027   -4.1260    0.0000 H   0  0  0  0  0  0  0  0  0  0  0  0
   10.8733    6.4543    0.0000 H   0  0  0  0  0  0  0  0  0  0  0  0
   10.4029    7.0978    0.0000 H   0  0  0  0  0  0  0  0  0  0  0  0
   11.5284    5.3454    0.0000 H   0  0  0  0  0  0  0  0  0  0  0  0
   11.8402    6.1649    0.0000 H   0  0  0  0  0  0  0  0  0  0  0  0
   11.0207    6.4766    0.0000 H   0  0  0  0  0  0  0  0  0  0  0  0
    8.5991   -4.6970    0.0000 H   0  0  0  0  0  0  0  0  0  0  0  0
    8.7320    7.5280    0.0000 H   0  0  0  0  0  0  0  0  0  0  0  0
    8.5991   -6.9370    0.0000 H   0  0  0  0  0  0  0  0  0  0  0  0
    7.1962   -7.1270    0.0000 H   0  0  0  0  0  0  0  0  0  0  0  0
   10.1064    7.8677    0.0000 H   0  0  0  0  0  0  0  0  0  0  0  0
    6.8671   -4.6970    0.0000 H   0  0  0  0  0  0  0  0  0  0  0  0
    6.3301   -6.0070    0.0000 H   0  0  0  0  0  0  0  0  0  0  0  0
    9.8656   10.0947    0.0000 H   0  0  0  0  0  0  0  0  0  0  0  0
    7.7097    8.9262    0.0000 H   0  0  0  0  0  0  0  0  0  0  0  0
    8.4503   10.1328    0.0000 H   0  0  0  0  0  0  0  0  0  0  0  0
    5.3905   -4.7094    0.0000 H   0  0  0  0  0  0  0  0  0  0  0  0
    5.7890   -5.3996    0.0000 H   0  0  0  0  0  0  0  0  0  0  0  0
    9.7942   -6.0070    0.0000 H   0  0  0  0  0  0  0  0  0  0  0  0
    7.1962   -8.1270    0.0000 H   0  0  0  0  0  0  0  0  0  0  0  0
   11.4550    8.4461    0.0000 H   0  0  0  0  0  0  0  0  0  0  0  0
    7.6406   10.2112    0.0000 H   0  0  0  0  0  0  0  0  0  0  0  0
    6.8482   10.1255    0.0000 H   0  0  0  0  0  0  0  0  0  0  0  0
   10.6728   10.6849    0.0000 H   0  0  0  0  0  0  0  0  0  0  0  0
   11.7341   -7.1270    0.0000 H   0  0  0  0  0  0  0  0  0  0  0  0
    5.1350   -6.9370    0.0000 H   0  0  0  0  0  0  0  0  0  0  0  0
    8.3428   11.1270    0.0000 H   0  0  0  0  0  0  0  0  0  0  0  0
    5.4641   -3.5070    0.0000 H   0  0  0  0  0  0  0  0  0  0  0  0
   12.6002   -6.0070    0.0000 H   0  0  0  0  0  0  0  0  0  0  0  0
   10.6603   -4.5070    0.0000 H   0  0  0  0  0  0  0  0  0  0  0  0
   12.0632   -4.6970    0.0000 H   0  0  0  0  0  0  0  0  0  0  0  0
    3.7320   -7.1270    0.0000 H   0  0  0  0  0  0  0  0  0  0  0  0
    5.9210    9.3564    0.0000 H   0  0  0  0  0  0  0  0  0  0  0  0
   10.6603   -8.1270    0.0000 H   0  0  0  0  0  0  0  0  0  0  0  0
    2.8660   -6.0070    0.0000 H   0  0  0  0  0  0  0  0  0  0  0  0
    4.8059   -4.5070    0.0000 H   0  0  0  0  0  0  0  0  0  0  0  0
   10.9851   -3.2344    0.0000 H   0  0  0  0  0  0  0  0  0  0  0  0
   10.5866   -3.9247    0.0000 H   0  0  0  0  0  0  0  0  0  0  0  0
    3.4030   -4.6970    0.0000 H   0  0  0  0  0  0  0  0  0  0  0  0
   13.4662   -5.1270    0.0000 H   0  0  0  0  0  0  0  0  0  0  0  0
    3.7320   -8.1270    0.0000 H   0  0  0  0  0  0  0  0  0  0  0  0
   12.3923   -7.5070    0.0000 H   0  0  0  0  0  0  0  0  0  0  0  0
    4.8890   -3.8170    0.0000 H   0  0  0  0  0  0  0  0  0  0  0  0
    4.2690   -3.1970    0.0000 H   0  0  0  0  0  0  0  0  0  0  0  0
    3.6490   -3.8170    0.0000 H   0  0  0  0  0  0  0  0  0  0  0  0
    2.0000   -6.5070    0.0000 H   0  0  0  0  0  0  0  0  0  0  0  0
   12.6002   -3.6270    0.0000 H   0  0  0  0  0  0  0  0  0  0  0  0
    2.5369   -4.1970    0.0000 H   0  0  0  0  0  0  0  0  0  0  0  0
   14.3322   -8.6270    0.0000 H   0  0  0  0  0  0  0  0  0  0  0  0
   13.7953   -9.9370    0.0000 H   0  0  0  0  0  0  0  0  0  0  0  0
   11.5263   -9.0070    0.0000 H   0  0  0  0  0  0  0  0  0  0  0  0
   12.3923  -10.1270    0.0000 H   0  0  0  0  0  0  0  0  0  0  0  0
   15.1982   -8.1270    0.0000 H   0  0  0  0  0  0  0  0  0  0  0  0
   10.9851   -9.2344    0.0000 H   0  0  0  0  0  0  0  0  0  0  0  0
   10.5866   -9.9247    0.0000 H   0  0  0  0  0  0  0  0  0  0  0  0
   14.6613  -10.4370    0.0000 H   0  0  0  0  0  0  0  0  0  0  0  0
   13.4662  -11.1270    0.0000 H   0  0  0  0  0  0  0  0  0  0  0  0
   10.6603  -11.1270    0.0000 H   0  0  0  0  0  0  0  0  0  0  0  0
  1 33  1  0  0  0  0
  2 38  1  0  0  0  0
  2 48  1  0  0  0  0
  4 54  1  0  0  0  0
  5 56  1  0  0  0  0
  5 61  1  0  0  0  0
  6 57  1  0  0  0  0
  6 64  1  0  0  0  0
  8139  1  0  0  0  0
  9140  1  0  0  0  0
 11143  1  0  0  0  0
 12146  1  0  0  0  0
 13 67  1  0  0  0  0
 13 72  1  0  0  0  0
 14 66  1  0  0  0  0
 14147  1  0  0  0  0
 15 68  1  0  0  0  0
 15152  1  0  0  0  0
 16 70  1  0  0  0  0
 16 76  1  0  0  0  0
 17153  1  0  0  0  0
 19159  1  0  0  0  0
 20160  1  0  0  0  0
 21165  1  0  0  0  0
 22 77  1  0  0  0  0
 22166  1  0  0  0  0
 23167  1  0  0  0  0
 24 79  1  0  0  0  0
 24 83  1  0  0  0  0
 25172  1  0  0  0  0
 26175  1  0  0  0  0
 27176  1  0  0  0  0
 28 85  1  0  0  0  0
 28177  1  0  0  0  0
 29 30  1  1  0  0  0
 29 37  1  0  0  0  0
 29 41  1  0  0  0  0
 30 32  1  1  0  0  0
 30 34  1  0  0  0  0
 30 86  1  0  0  0  0
 31 29  1  1  0  0  0
 31 87  1  0  0  0  0
 32 35  1  1  0  0  0
 32 42  1  0  0  0  0
 32 88  1  0  0  0  0
 33 31  1  6  0  0  0
 33 34  1  0  0  0  0
 33 89  1  0  0  0  0
 34 90  1  0  0  0  0
 34 91  1  0  0  0  0
 35 39  1  0  0  0  0
 35 40  1  1  0  0  0
 35 92  1  0  0  0  0
 36 31  1  6  0  0  0
 36 46  1  0  0  0  0
 36 93  1  0  0  0  0
 37 39  1  0  0  0  0
 37 94  1  0  0  0  0
 37 95  1  0  0  0  0
 38  1  1  0  0  0  0
 38 36  1  6  0  0  0
 38 44  1  0  0  0  0
 39 96  1  0  0  0  0
 39 97  1  0  0  0  0
 40 43  1  0  0  0  0
 40 45  1  0  0  0  0
 40 49  1  1  0  0  0
 41 98  1  0  0  0  0
 41 99  1  0  0  0  0
 41100  1  0  0  0  0
 42 47  1  0  0  0  0
 42101  1  0  0  0  0
 42102  1  0  0  0  0
 43 47  2  0  0  0  0
 43 51  1  0  0  0  0
 44 50  1  0  0  0  0
 44103  1  0  0  0  0
 44104  1  0  0  0  0
 45 52  1  0  0  0  0
 45105  1  0  0  0  0
 45106  1  0  0  0  0
 46107  1  0  0  0  0
 46108  1  0  0  0  0
 46109  1  0  0  0  0
 47110  1  0  0  0  0
 48 50  1  0  0  0  0
 48 54  1  1  0  0  0
 48 55  1  0  0  0  0
 49111  1  0  0  0  0
 49112  1  0  0  0  0
 49113  1  0  0  0  0
 50114  1  0  0  0  0
 50115  1  0  0  0  0
 51 53  1  0  0  0  0
 51116  1  0  0  0  0
 51117  1  0  0  0  0
 52 53  1  0  0  0  0
 52118  1  0  0  0  0
 52119  1  0  0  0  0
 53  3  1  0  0  0  0
 53120  1  6  0  0  0
 54121  1  0  0  0  0
 54122  1  0  0  0  0
 55123  1  0  0  0  0
 55124  1  0  0  0  0
 55125  1  0  0  0  0
 56  3  1  0  0  0  0
 56 58  1  6  0  0  0
 56126  1  0  0  0  0
 57  4  1  0  0  0  0
 57 60  1  1  0  0  0
 57127  1  0  0  0  0
 58  7  1  0  0  0  0
 58 59  1  6  0  0  0
 58128  1  0  0  0  0
 59  8  1  0  0  0  0
 59 62  1  1  0  0  0
 59129  1  0  0  0  0
 60  9  1  0  0  0  0
 60 63  1  6  0  0  0
 60130  1  0  0  0  0
 61 62  1  6  0  0  0
 61 66  1  0  0  0  0
 61131  1  0  0  0  0
 62 10  1  0  0  0  0
 62132  1  1  0  0  0
 63 11  1  0  0  0  0
 63 65  1  6  0  0  0
 63133  1  0  0  0  0
 64 65  1  1  0  0  0
 64 68  1  0  0  0  0
 64134  1  0  0  0  0
 65 12  1  0  0  0  0
 65135  1  6  0  0  0
 66136  1  0  0  0  0
 66137  1  0  0  0  0
 67  7  1  0  0  0  0
 67 69  1  1  0  0  0
 67138  1  0  0  0  0
 68141  1  0  0  0  0
 68142  1  0  0  0  0
 69 17  1  0  0  0  0
 69 71  1  1  0  0  0
 69144  1  0  0  0  0
 70 10  1  0  0  0  0
 70 74  1  1  0  0  0
 70145  1  0  0  0  0
 71 18  1  0  0  0  0
 71 73  1  6  0  0  0
 71148  1  0  0  0  0
 72 73  1  1  0  0  0
 72 77  1  0  0  0  0
 72149  1  0  0  0  0
 73 19  1  0  0  0  0
 73150  1  6  0  0  0
 74 20  1  0  0  0  0
 74 75  1  6  0  0  0
 74151  1  0  0  0  0
 75 21  1  0  0  0  0
 75 78  1  6  0  0  0
 75154  1  0  0  0  0
 76 78  1  1  0  0  0
 76 80  1  0  0  0  0
 76155  1  0  0  0  0
 77156  1  0  0  0  0
 77157  1  0  0  0  0
 78 23  1  0  0  0  0
 78158  1  6  0  0  0
 79 18  1  0  0  0  0
 79 81  1  6  0  0  0
 79161  1  0  0  0  0
 80162  1  0  0  0  0
 80163  1  0  0  0  0
 80164  1  0  0  0  0
 81 25  1  0  0  0  0
 81 82  1  6  0  0  0
 81168  1  0  0  0  0
 82 26  1  0  0  0  0
 82 84  1  1  0  0  0
 82169  1  0  0  0  0
 83 84  1  6  0  0  0
 83 85  1  0  0  0  0
 83170  1  0  0  0  0
 84 27  1  0  0  0  0
 84171  1  1  0  0  0
 85173  1  0  0  0  0
 85174  1  0  0  0  0
M  END
>  <PUBCHEM_COMPOUND_CID>
441878

>  <PUBCHEM_COMPOUND_CANONICALIZED>
1

>  <PUBCHEM_CACTVS_COMPLEXITY>
2310

>  <PUBCHEM_CACTVS_HBOND_ACCEPTOR>
28

>  <PUBCHEM_CACTVS_HBOND_DONOR>
16

>  <PUBCHEM_CACTVS_ROTATABLE_BOND>
15

>  <PUBCHEM_CACTVS_SUBSKEYS>
AAADcfB8PgAAAAAAAAAAAAAAAAAAAaJEAAA0aJEiQAASAGCAAAAAGgAACAAAD1SwgAMCCAAABgCAAiBCAAAAAAAgAAAACAAAAAgREAIAAQAiQAAFwAAPAAPA4PwPgAAAAAAAAADAAAQAACAAAYAADAAAAA==

>  <PUBCHEM_IUPAC_INCHI>
InChI=1S/C57H92O28/c1-21-33-28(84-57(21)13-12-54(3,85-57)20-74-49-41(69)39(67)35(63)29(16-58)77-49)15-27-25-7-6-23-14-24(8-10-55(23,4)26(25)9-11-56(27,33)5)76-53-48(44(72)46(32(19-61)80-53)81-50-42(70)38(66)34(62)22(2)75-50)83-52-45(73)47(37(65)31(18-60)79-52)82-51-43(71)40(68)36(64)30(17-59)78-51/h6,21-22,24-53,58-73H,7-20H2,1-5H3/t21-,22-,24-,25+,26-,27-,28-,29+,30+,31+,32+,33-,34-,35+,36+,37+,38+,39-,40-,41+,42+,43+,44-,45+,46+,47-,48+,49+,50-,51-,52-,53+,54-,55-,56-,57-/m0/s1

>  <PUBCHEM_IUPAC_INCHIKEY>
KSQDOQZKXFUZMV-ZRCSLNBESA-N

>  <PUBCHEM_XLOGP3_AA>
-3.6

>  <PUBCHEM_EXACT_MASS>
1224.578

>  <PUBCHEM_MOLECULAR_FORMULA>
C57H92O28

>  <PUBCHEM_MOLECULAR_WEIGHT>
1225.335

>  <PUBCHEM_OPENEYE_CAN_SMILES>
CC1C2C(CC3C2(CCC4C3CC=C5C4(CCC(C5)OC6C(C(C(C(O6)CO)OC7C(C(C(C(O7)C)O)O)O)O)OC8C(C(C(C(O8)CO)O)OC9C(C(C(C(O9)CO)O)O)O)O)C)C)OC11CCC(O1)(C)COC1C(C(C(C(O1)CO)O)O)O

>  <PUBCHEM_OPENEYE_ISO_SMILES>
C[C@H]1[C@H]2[C@H](C[C@@H]3[C@@]2(CC[C@H]4[C@H]3CC=C5[C@@]4(CC[C@@H](C5)O[C@H]6[C@@H]([C@H]([C@@H]([C@H](O6)CO)O[C@H]7[C@@H]([C@@H]([C@H]([C@@H](O7)C)O)O)O)O)O[C@H]8[C@@H]([C@H]([C@@H]([C@H](O8)CO)O)O[C@H]9[C@@H]([C@H]([C@@H]([C@H](O9)CO)O)O)O)O)C)C)O[C@]11CC[C@@](O1)(C)CO[C@H]1[C@@H]([C@H]([C@@H]([C@H](O1)CO)O)O)O

>  <PUBCHEM_CACTVS_TPSA>
434

>  <PUBCHEM_MONOISOTOPIC_WEIGHT>
1224.578

>  <PUBCHEM_TOTAL_CHARGE>
0

>  <PUBCHEM_HEAVY_ATOM_COUNT>
85

>  <PUBCHEM_ATOM_DEF_STEREO_COUNT>
36

>  <PUBCHEM_ATOM_UDEF_STEREO_COUNT>
0

>  <PUBCHEM_BOND_DEF_STEREO_COUNT>
0

>  <PUBCHEM_BOND_UDEF_STEREO_COUNT>
0

>  <PUBCHEM_ISOTOPIC_ATOM_COUNT>
0

>  <PUBCHEM_COMPONENT_COUNT>
1

>  <PUBCHEM_CACTVS_TAUTO_COUNT>
1

>  <PUBCHEM_COORDINATE_TYPE>
1
5
255

>  <PUBCHEM_BONDANNOTATIONS>
38  1  5
62  10  6
70  10  5
63  11  6
65  12  5
69  17  5
71  18  6
79  18  5
73  19  5
74  20  6
75  21  6
78  23  5
81  25  6
82  26  5
84  27  6
29  41  5
53  3  5
56  3  5
30  86  6
31  87  6
32  88  5
33  89  6
35  92  6
36  46  6
57  4  6
40  49  5
48  55  6
61  66  5
64  68  6
58  7  6
67  7  6
72  77  6
76  80  6
59  8  5
83  85  5
60  9  5

$$$$
