441889
 OpenBabel06101807152D

140147  0  0  1  0  0  0  0  0999 V2000
    8.2902    4.1557    0.0000 O   0  0  0  0  0  0  0  0  0  0  0  0
    6.7611    5.3876    0.0000 O   0  0  0  0  0  0  0  0  0  0  0  0
    6.8671   -4.0884    0.0000 O   0  0  0  0  0  0  0  0  0  0  0  0
    5.1350   -4.0884    0.0000 O   0  0  0  0  0  0  0  0  0  0  0  0
    6.8671   -6.0884    0.0000 O   0  0  0  0  0  0  0  0  0  0  0  0
   10.9247    7.2550    0.0000 O   0  0  0  0  0  0  0  0  0  0  0  0
    5.1350   -7.0884    0.0000 O   0  0  0  0  0  0  0  0  0  0  0  0
    3.4030   -6.0884    0.0000 O   0  0  0  0  0  0  0  0  0  0  0  0
    6.0010   -7.5884    0.0000 O   0  0  0  0  0  0  0  0  0  0  0  0
    2.5369   -4.5884    0.0000 O   0  0  0  0  0  0  0  0  0  0  0  0
   12.4221    8.1255    0.0000 O   0  0  0  0  0  0  0  0  0  0  0  0
    8.5991   -7.0884    0.0000 O   0  0  0  0  0  0  0  0  0  0  0  0
   11.9298    5.5260    0.0000 O   0  0  0  0  0  0  0  0  0  0  0  0
    8.5991   -9.0884    0.0000 O   0  0  0  0  0  0  0  0  0  0  0  0
   13.9298    5.5319    0.0000 O   0  0  0  0  0  0  0  0  0  0  0  0
    6.8671  -10.0884    0.0000 O   0  0  0  0  0  0  0  0  0  0  0  0
   14.9247    7.2670    0.0000 O   0  0  0  0  0  0  0  0  0  0  0  0
    4.2690   -8.5884    0.0000 O   0  0  0  0  0  0  0  0  0  0  0  0
   13.4169    9.8605    0.0000 O   0  0  0  0  0  0  0  0  0  0  0  0
    6.8963    2.1085    0.0000 C   0  0  1  0  0  0  0  0  0  0  0  0
    7.7643    1.6118    0.0000 C   0  0  2  0  0  0  0  0  0  0  0  0
    7.7681    0.6118    0.0000 C   0  0  1  0  0  0  0  0  0  0  0  0
    7.1018    3.0811    0.0000 C   0  0  2  0  0  0  0  0  0  0  0  0
    6.9040    0.1085    0.0000 C   0  0  1  0  0  0  0  0  0  0  0  0
    6.8920   -0.9331    0.0000 C   0  0  2  0  0  0  0  0  0  0  0  0
    8.0901    3.1880    0.0000 C   0  0  2  0  0  0  0  0  0  0  0  0
    8.4987    2.2817    0.0000 C   0  0  0  0  0  0  0  0  0  0  0  0
    6.0322    1.6051    0.0000 C   0  0  0  0  0  0  0  0  0  0  0  0
    6.0361    0.6051    0.0000 C   0  0  0  0  0  0  0  0  0  0  0  0
    7.7920   -1.4574    0.0000 C   0  0  2  0  0  0  0  0  0  0  0  0
    6.6995    3.9837    0.0000 C   0  0  1  0  0  0  0  0  0  0  0  0
    8.6801    0.1085    0.0000 C   0  0  0  0  0  0  0  0  0  0  0  0
    8.6921   -0.9331    0.0000 C   0  0  0  0  0  0  0  0  0  0  0  0
    6.0284    2.6051    0.0000 C   0  0  0  0  0  0  0  0  0  0  0  0
    7.4324    4.6465    0.0000 C   0  0  1  0  0  0  0  0  0  0  0  0
    5.9421   -1.4574    0.0000 C   0  0  0  0  0  0  0  0  0  0  0  0
    7.8046   -2.5423    0.0000 C   0  0  0  0  0  0  0  0  0  0  0  0
    6.0279   -0.4297    0.0000 C   0  0  0  0  0  0  0  0  0  0  0  0
    5.9295   -2.5423    0.0000 C   0  0  0  0  0  0  0  0  0  0  0  0
    6.8671   -3.0884    0.0000 C   0  0  2  0  0  0  0  0  0  0  0  0
    5.7211    4.1904    0.0000 C   0  0  0  0  0  0  0  0  0  0  0  0
    7.9299    5.5140    0.0000 C   0  0  0  0  0  0  0  0  0  0  0  0
    8.9299    5.5170    0.0000 C   0  0  0  0  0  0  0  0  0  0  0  0
    9.4273    6.3845    0.0000 C   0  0  2  0  0  0  0  0  0  0  0  0
    6.0010   -4.5884    0.0000 C   0  0  2  0  0  0  0  0  0  0  0  0
    6.0010   -5.5884    0.0000 C   0  0  1  0  0  0  0  0  0  0  0  0
   10.4273    6.3875    0.0000 C   0  0  0  0  0  0  0  0  0  0  0  0
    8.9247    7.2490    0.0000 C   0  0  0  0  0  0  0  0  0  0  0  0
    5.1350   -6.0884    0.0000 C   0  0  2  0  0  0  0  0  0  0  0  0
    4.2690   -4.5884    0.0000 C   0  0  1  0  0  0  0  0  0  0  0  0
    4.2690   -5.5884    0.0000 C   0  0  1  0  0  0  0  0  0  0  0  0
    3.4030   -4.0884    0.0000 C   0  0  0  0  0  0  0  0  0  0  0  0
    6.8671   -7.0884    0.0000 C   0  0  2  0  0  0  0  0  0  0  0  0
   11.9247    7.2580    0.0000 C   0  0  2  0  0  0  0  0  0  0  0  0
    7.7331   -7.5884    0.0000 C   0  0  1  0  0  0  0  0  0  0  0  0
   12.4273    6.3935    0.0000 C   0  0  1  0  0  0  0  0  0  0  0  0
    7.7331   -8.5884    0.0000 C   0  0  2  0  0  0  0  0  0  0  0  0
   13.4272    6.3965    0.0000 C   0  0  2  0  0  0  0  0  0  0  0  0
    6.0010   -8.5884    0.0000 C   0  0  1  0  0  0  0  0  0  0  0  0
    6.8671   -9.0884    0.0000 C   0  0  1  0  0  0  0  0  0  0  0  0
   13.4221    8.1285    0.0000 C   0  0  1  0  0  0  0  0  0  0  0  0
   13.9247    7.2640    0.0000 C   0  0  1  0  0  0  0  0  0  0  0  0
    5.1350   -9.0884    0.0000 C   0  0  0  0  0  0  0  0  0  0  0  0
   13.9195    8.9960    0.0000 C   0  0  0  0  0  0  0  0  0  0  0  0
    8.5426    1.2701    0.0000 H   0  0  0  0  0  0  0  0  0  0  0  0
    8.4993    1.0453    0.0000 H   0  0  0  0  0  0  0  0  0  0  0  0
    6.2565    2.9915    0.0000 H   0  0  0  0  0  0  0  0  0  0  0  0
    7.6385   -0.3193    0.0000 H   0  0  0  0  0  0  0  0  0  0  0  0
    8.9350    3.2812    0.0000 H   0  0  0  0  0  0  0  0  0  0  0  0
    8.8661    1.7823    0.0000 H   0  0  0  0  0  0  0  0  0  0  0  0
    9.0340    2.5946    0.0000 H   0  0  0  0  0  0  0  0  0  0  0  0
    5.8179    2.1869    0.0000 H   0  0  0  0  0  0  0  0  0  0  0  0
    5.4221    1.4951    0.0000 H   0  0  0  0  0  0  0  0  0  0  0  0
    5.4251    0.7105    0.0000 H   0  0  0  0  0  0  0  0  0  0  0  0
    5.8263    0.0217    0.0000 H   0  0  0  0  0  0  0  0  0  0  0  0
    8.5314   -1.8767    0.0000 H   0  0  0  0  0  0  0  0  0  0  0  0
    6.3097    3.5015    0.0000 H   0  0  0  0  0  0  0  0  0  0  0  0
    9.2921    0.0095    0.0000 H   0  0  0  0  0  0  0  0  0  0  0  0
    8.8824    0.6946    0.0000 H   0  0  0  0  0  0  0  0  0  0  0  0
    8.9079   -1.5143    0.0000 H   0  0  0  0  0  0  0  0  0  0  0  0
    9.3017   -0.8199    0.0000 H   0  0  0  0  0  0  0  0  0  0  0  0
    6.3363    3.1433    0.0000 H   0  0  0  0  0  0  0  0  0  0  0  0
    5.4902    2.9131    0.0000 H   0  0  0  0  0  0  0  0  0  0  0  0
    5.7204    2.0670    0.0000 H   0  0  0  0  0  0  0  0  0  0  0  0
    5.7398   -0.8713    0.0000 H   0  0  0  0  0  0  0  0  0  0  0  0
    5.3300   -1.5564    0.0000 H   0  0  0  0  0  0  0  0  0  0  0  0
    8.0204   -3.1235    0.0000 H   0  0  0  0  0  0  0  0  0  0  0  0
    8.4142   -2.4291    0.0000 H   0  0  0  0  0  0  0  0  0  0  0  0
    6.3400    0.1060    0.0000 H   0  0  0  0  0  0  0  0  0  0  0  0
    5.4922   -0.1177    0.0000 H   0  0  0  0  0  0  0  0  0  0  0  0
    5.7158   -0.9655    0.0000 H   0  0  0  0  0  0  0  0  0  0  0  0
    5.3199   -2.4291    0.0000 H   0  0  0  0  0  0  0  0  0  0  0  0
    5.7137   -3.1235    0.0000 H   0  0  0  0  0  0  0  0  0  0  0  0
    7.4046   -3.3974    0.0000 H   0  0  0  0  0  0  0  0  0  0  0  0
    5.8492    4.7970    0.0000 H   0  0  0  0  0  0  0  0  0  0  0  0
    5.1145    4.3185    0.0000 H   0  0  0  0  0  0  0  0  0  0  0  0
    5.5929    3.5838    0.0000 H   0  0  0  0  0  0  0  0  0  0  0  0
    8.0357    6.1249    0.0000 H   0  0  0  0  0  0  0  0  0  0  0  0
    7.3466    5.7243    0.0000 H   0  0  0  0  0  0  0  0  0  0  0  0
    6.9509    5.9778    0.0000 H   0  0  0  0  0  0  0  0  0  0  0  0
    8.8240    4.9061    0.0000 H   0  0  0  0  0  0  0  0  0  0  0  0
    9.5131    5.3067    0.0000 H   0  0  0  0  0  0  0  0  0  0  0  0
    8.8073    6.3826    0.0000 H   0  0  0  0  0  0  0  0  0  0  0  0
    6.0010   -3.9684    0.0000 H   0  0  0  0  0  0  0  0  0  0  0  0
    6.0010   -6.2084    0.0000 H   0  0  0  0  0  0  0  0  0  0  0  0
   10.3214    5.7766    0.0000 H   0  0  0  0  0  0  0  0  0  0  0  0
   11.0105    6.1772    0.0000 H   0  0  0  0  0  0  0  0  0  0  0  0
    9.4607    7.5606    0.0000 H   0  0  0  0  0  0  0  0  0  0  0  0
    8.6131    7.7850    0.0000 H   0  0  0  0  0  0  0  0  0  0  0  0
    8.3887    6.9374    0.0000 H   0  0  0  0  0  0  0  0  0  0  0  0
    4.5981   -6.3984    0.0000 H   0  0  0  0  0  0  0  0  0  0  0  0
    4.2690   -3.9684    0.0000 H   0  0  0  0  0  0  0  0  0  0  0  0
    3.7320   -5.2784    0.0000 H   0  0  0  0  0  0  0  0  0  0  0  0
    3.8015   -3.6134    0.0000 H   0  0  0  0  0  0  0  0  0  0  0  0
    3.0044   -3.6134    0.0000 H   0  0  0  0  0  0  0  0  0  0  0  0
    7.4040   -6.7784    0.0000 H   0  0  0  0  0  0  0  0  0  0  0  0
    4.5981   -7.3984    0.0000 H   0  0  0  0  0  0  0  0  0  0  0  0
   11.6131    7.7940    0.0000 H   0  0  0  0  0  0  0  0  0  0  0  0
    3.4030   -6.7084    0.0000 H   0  0  0  0  0  0  0  0  0  0  0  0
    8.2700   -7.8984    0.0000 H   0  0  0  0  0  0  0  0  0  0  0  0
   12.7389    5.8575    0.0000 H   0  0  0  0  0  0  0  0  0  0  0  0
    2.0000   -4.2784    0.0000 H   0  0  0  0  0  0  0  0  0  0  0  0
    7.7331   -9.2084    0.0000 H   0  0  0  0  0  0  0  0  0  0  0  0
   14.0472    6.3983    0.0000 H   0  0  0  0  0  0  0  0  0  0  0  0
    5.4641   -8.2784    0.0000 H   0  0  0  0  0  0  0  0  0  0  0  0
    6.3301   -9.3984    0.0000 H   0  0  0  0  0  0  0  0  0  0  0  0
   13.1105    8.6645    0.0000 H   0  0  0  0  0  0  0  0  0  0  0  0
   14.2331    7.8018    0.0000 H   0  0  0  0  0  0  0  0  0  0  0  0
    9.1360   -7.3984    0.0000 H   0  0  0  0  0  0  0  0  0  0  0  0
   12.2414    4.9899    0.0000 H   0  0  0  0  0  0  0  0  0  0  0  0
    4.7365   -9.5634    0.0000 H   0  0  0  0  0  0  0  0  0  0  0  0
    5.5335   -9.5634    0.0000 H   0  0  0  0  0  0  0  0  0  0  0  0
   14.3956    8.5989    0.0000 H   0  0  0  0  0  0  0  0  0  0  0  0
   14.3932    9.3960    0.0000 H   0  0  0  0  0  0  0  0  0  0  0  0
    8.5991   -9.7084    0.0000 H   0  0  0  0  0  0  0  0  0  0  0  0
   14.5498    5.5338    0.0000 H   0  0  0  0  0  0  0  0  0  0  0  0
    6.3301  -10.3984    0.0000 H   0  0  0  0  0  0  0  0  0  0  0  0
   15.2330    7.8048    0.0000 H   0  0  0  0  0  0  0  0  0  0  0  0
    3.7320   -8.8984    0.0000 H   0  0  0  0  0  0  0  0  0  0  0  0
   13.7253   10.3984    0.0000 H   0  0  0  0  0  0  0  0  0  0  0  0
  1 26  1  0  0  0  0
  1 35  1  0  0  0  0
  2100  1  0  0  0  0
  4 45  1  0  0  0  0
  4 50  1  0  0  0  0
  6 47  1  0  0  0  0
  7117  1  0  0  0  0
  8119  1  0  0  0  0
  9 53  1  0  0  0  0
  9 59  1  0  0  0  0
 10 52  1  0  0  0  0
 10122  1  0  0  0  0
 11 54  1  0  0  0  0
 11 61  1  0  0  0  0
 12129  1  0  0  0  0
 13130  1  0  0  0  0
 14135  1  0  0  0  0
 15136  1  0  0  0  0
 16137  1  0  0  0  0
 17138  1  0  0  0  0
 18 63  1  0  0  0  0
 18139  1  0  0  0  0
 19 64  1  0  0  0  0
 19140  1  0  0  0  0
 20 21  1  1  0  0  0
 20 28  1  0  0  0  0
 20 34  1  0  0  0  0
 21 22  1  1  0  0  0
 21 27  1  0  0  0  0
 21 65  1  0  0  0  0
 22 24  1  1  0  0  0
 22 32  1  0  0  0  0
 22 66  1  0  0  0  0
 23 20  1  1  0  0  0
 23 67  1  0  0  0  0
 24 25  1  1  0  0  0
 24 29  1  0  0  0  0
 24 68  1  0  0  0  0
 25 30  1  1  0  0  0
 25 36  1  0  0  0  0
 25 38  1  0  0  0  0
 26 23  1  6  0  0  0
 26 27  1  0  0  0  0
 26 69  1  0  0  0  0
 27 70  1  0  0  0  0
 27 71  1  0  0  0  0
 28 29  1  0  0  0  0
 28 72  1  0  0  0  0
 28 73  1  0  0  0  0
 29 74  1  0  0  0  0
 29 75  1  0  0  0  0
 30 33  1  0  0  0  0
 30 37  1  0  0  0  0
 30 76  1  1  0  0  0
 31 23  1  6  0  0  0
 31 41  1  0  0  0  0
 31 77  1  0  0  0  0
 32 33  1  0  0  0  0
 32 78  1  0  0  0  0
 32 79  1  0  0  0  0
 33 80  1  0  0  0  0
 33 81  1  0  0  0  0
 34 82  1  0  0  0  0
 34 83  1  0  0  0  0
 34 84  1  0  0  0  0
 35  2  1  0  0  0  0
 35 31  1  1  0  0  0
 35 42  1  0  0  0  0
 36 39  1  0  0  0  0
 36 85  1  0  0  0  0
 36 86  1  0  0  0  0
 37 40  1  0  0  0  0
 37 87  1  0  0  0  0
 37 88  1  0  0  0  0
 38 89  1  0  0  0  0
 38 90  1  0  0  0  0
 38 91  1  0  0  0  0
 39 40  1  0  0  0  0
 39 92  1  0  0  0  0
 39 93  1  0  0  0  0
 40  3  1  0  0  0  0
 40 94  1  6  0  0  0
 41 95  1  0  0  0  0
 41 96  1  0  0  0  0
 41 97  1  0  0  0  0
 42 43  1  0  0  0  0
 42 98  1  0  0  0  0
 42 99  1  0  0  0  0
 43 44  1  0  0  0  0
 43101  1  0  0  0  0
 43102  1  0  0  0  0
 44 47  1  0  0  0  0
 44 48  1  0  0  0  0
 44103  1  6  0  0  0
 45  3  1  0  0  0  0
 45 46  1  6  0  0  0
 45104  1  0  0  0  0
 46  5  1  0  0  0  0
 46 49  1  6  0  0  0
 46105  1  0  0  0  0
 47106  1  0  0  0  0
 47107  1  0  0  0  0
 48108  1  0  0  0  0
 48109  1  0  0  0  0
 48110  1  0  0  0  0
 49  7  1  0  0  0  0
 49 51  1  1  0  0  0
 49111  1  0  0  0  0
 50 51  1  6  0  0  0
 50 52  1  0  0  0  0
 50112  1  0  0  0  0
 51  8  1  0  0  0  0
 51113  1  1  0  0  0
 52114  1  0  0  0  0
 52115  1  0  0  0  0
 53  5  1  0  0  0  0
 53 55  1  1  0  0  0
 53116  1  0  0  0  0
 54  6  1  0  0  0  0
 54 56  1  1  0  0  0
 54118  1  0  0  0  0
 55 12  1  0  0  0  0
 55 57  1  6  0  0  0
 55120  1  0  0  0  0
 56 13  1  0  0  0  0
 56 58  1  1  0  0  0
 56121  1  0  0  0  0
 57 14  1  0  0  0  0
 57 60  1  1  0  0  0
 57123  1  0  0  0  0
 58 15  1  0  0  0  0
 58 62  1  6  0  0  0
 58124  1  0  0  0  0
 59 60  1  6  0  0  0
 59 63  1  0  0  0  0
 59125  1  0  0  0  0
 60 16  1  0  0  0  0
 60126  1  1  0  0  0
 61 62  1  1  0  0  0
 61 64  1  0  0  0  0
 61127  1  0  0  0  0
 62 17  1  0  0  0  0
 62128  1  6  0  0  0
 63131  1  0  0  0  0
 63132  1  0  0  0  0
 64133  1  0  0  0  0
 64134  1  0  0  0  0
M  END
>  <PUBCHEM_COMPOUND_CID>
441889

>  <PUBCHEM_COMPOUND_CANONICALIZED>
1

>  <PUBCHEM_CACTVS_COMPLEXITY>
1560

>  <PUBCHEM_CACTVS_HBOND_ACCEPTOR>
19

>  <PUBCHEM_CACTVS_HBOND_DONOR>
12

>  <PUBCHEM_CACTVS_ROTATABLE_BOND>
13

>  <PUBCHEM_CACTVS_SUBSKEYS>
AAADcfB8PgAAAAAAAAAAAAAAAAAAAaIAAAA0aNECAAASAGDAAAAAGgAACAAADxSwgAMCCAAABgAAAAAAAAAAAAAAAAAAAAAAAAAREAIAAAAiQAAFAAAHAAHA4PwPgAAAAAAAAADAAAYAACAAAYAADAAAAA==

>  <PUBCHEM_IUPAC_INCHI>
InChI=1S/C45H76O19/c1-19(18-58-40-37(55)34(52)31(49)27(15-46)60-40)7-12-45(57)20(2)30-26(64-45)14-25-23-6-5-21-13-22(8-10-43(21,3)24(23)9-11-44(25,30)4)59-42-39(36(54)33(51)29(17-48)62-42)63-41-38(56)35(53)32(50)28(16-47)61-41/h19-42,46-57H,5-18H2,1-4H3/t19-,20+,21-,22+,23-,24+,25+,26+,27-,28-,29-,30+,31-,32-,33-,34+,35+,36+,37-,38-,39-,40-,41+,42-,43+,44+,45-/m1/s1

>  <PUBCHEM_IUPAC_INCHIKEY>
SORUXVRKWOHYEO-YGNOLRTQSA-N

>  <PUBCHEM_XLOGP3_AA>
0.7

>  <PUBCHEM_EXACT_MASS>
920.498

>  <PUBCHEM_MOLECULAR_FORMULA>
C45H76O19

>  <PUBCHEM_MOLECULAR_WEIGHT>
921.084

>  <PUBCHEM_OPENEYE_CAN_SMILES>
CC1C2C(CC3C2(CCC4C3CCC5C4(CCC(C5)OC6C(C(C(C(O6)CO)O)O)OC7C(C(C(C(O7)CO)O)O)O)C)C)OC1(CCC(C)COC8C(C(C(C(O8)CO)O)O)O)O

>  <PUBCHEM_OPENEYE_ISO_SMILES>
C[C@H]1[C@H]2[C@H](C[C@@H]3[C@@]2(CC[C@H]4[C@H]3CC[C@H]5[C@@]4(CC[C@@H](C5)O[C@H]6[C@@H]([C@H]([C@@H]([C@H](O6)CO)O)O)O[C@H]7[C@@H]([C@H]([C@@H]([C@H](O7)CO)O)O)O)C)C)O[C@@]1(CC[C@@H](C)CO[C@H]8[C@@H]([C@H]([C@@H]([C@H](O8)CO)O)O)O)O

>  <PUBCHEM_CACTVS_TPSA>
307

>  <PUBCHEM_MONOISOTOPIC_WEIGHT>
920.498

>  <PUBCHEM_TOTAL_CHARGE>
0

>  <PUBCHEM_HEAVY_ATOM_COUNT>
64

>  <PUBCHEM_ATOM_DEF_STEREO_COUNT>
27

>  <PUBCHEM_ATOM_UDEF_STEREO_COUNT>
0

>  <PUBCHEM_BOND_DEF_STEREO_COUNT>
0

>  <PUBCHEM_BOND_UDEF_STEREO_COUNT>
0

>  <PUBCHEM_ISOTOPIC_ATOM_COUNT>
0

>  <PUBCHEM_COMPONENT_COUNT>
1

>  <PUBCHEM_CACTVS_TAUTO_COUNT>
1

>  <PUBCHEM_COORDINATE_TYPE>
1
5
255

>  <PUBCHEM_BONDANNOTATIONS>
55  12  6
56  13  5
57  14  5
58  15  6
60  16  6
62  17  5
35  2  6
20  34  5
21  65  6
22  66  5
23  67  6
24  68  6
25  38  5
26  69  6
40  3  5
45  3  5
30  76  5
31  41  6
44  48  5
46  5  6
53  5  5
50  52  5
59  63  5
54  6  6
61  64  6
49  7  5
51  8  6

$$$$
