44229138
 OpenBabel06101807152D

 38 40  0  0  1  0  0  0  0  0999 V2000
    2.5381    0.4638    0.0000 O   0  0  0  0  0  0  0  0  0  0  0  0
    2.5381    2.5121    0.0000 O   0  0  0  0  0  0  0  0  0  0  0  0
    9.5323   -2.5121    0.0000 O   0  0  0  0  0  0  0  0  0  0  0  0
    6.9343    0.9879    0.0000 N   0  3  0  0  0  0  0  0  0  0  0  0
    6.0682    0.4879    0.0000 C   0  0  3  0  0  0  0  0  0  0  0  0
    6.9343    1.9879    0.0000 C   0  0  0  0  0  0  0  0  0  0  0  0
    5.2022    0.9879    0.0000 C   0  0  0  0  0  0  0  0  0  0  0  0
    6.0682    2.4879    0.0000 C   0  0  0  0  0  0  0  0  0  0  0  0
    5.2022    1.9879    0.0000 C   0  0  0  0  0  0  0  0  0  0  0  0
    6.0682   -0.5121    0.0000 C   0  0  0  0  0  0  0  0  0  0  0  0
    4.3083    0.4533    0.0000 C   0  0  0  0  0  0  0  0  0  0  0  0
    6.9343   -1.0121    0.0000 C   0  0  0  0  0  0  0  0  0  0  0  0
    4.3083    2.5226    0.0000 C   0  0  0  0  0  0  0  0  0  0  0  0
    3.4022    0.9671    0.0000 C   0  0  0  0  0  0  0  0  0  0  0  0
    3.4022    2.0087    0.0000 C   0  0  0  0  0  0  0  0  0  0  0  0
    6.9343   -2.0121    0.0000 C   0  0  0  0  0  0  0  0  0  0  0  0
    7.8003   -0.5121    0.0000 C   0  0  0  0  0  0  0  0  0  0  0  0
    7.8003   -2.5121    0.0000 C   0  0  0  0  0  0  0  0  0  0  0  0
    8.6663   -1.0121    0.0000 C   0  0  0  0  0  0  0  0  0  0  0  0
    8.6663   -2.0121    0.0000 C   0  0  0  0  0  0  0  0  0  0  0  0
    6.6052    0.1779    0.0000 H   0  0  0  0  0  0  0  0  0  0  0  0
    7.5543    0.9879    0.0000 H   0  0  0  0  0  0  0  0  0  0  0  0
    7.2443    0.4510    0.0000 H   0  0  0  0  0  0  0  0  0  0  0  0
    7.5449    1.8803    0.0000 H   0  0  0  0  0  0  0  0  0  0  0  0
    7.1463    2.5705    0.0000 H   0  0  0  0  0  0  0  0  0  0  0  0
    6.4668    2.9629    0.0000 H   0  0  0  0  0  0  0  0  0  0  0  0
    5.6697    2.9629    0.0000 H   0  0  0  0  0  0  0  0  0  0  0  0
    5.4577   -0.4044    0.0000 H   0  0  0  0  0  0  0  0  0  0  0  0
    5.8562   -1.0947    0.0000 H   0  0  0  0  0  0  0  0  0  0  0  0
    4.3154   -0.1667    0.0000 H   0  0  0  0  0  0  0  0  0  0  0  0
    4.3154    3.1426    0.0000 H   0  0  0  0  0  0  0  0  0  0  0  0
    6.3973   -2.3221    0.0000 H   0  0  0  0  0  0  0  0  0  0  0  0
    7.8003    0.1079    0.0000 H   0  0  0  0  0  0  0  0  0  0  0  0
    7.8003   -3.1321    0.0000 H   0  0  0  0  0  0  0  0  0  0  0  0
    9.2033   -0.7021    0.0000 H   0  0  0  0  0  0  0  0  0  0  0  0
    2.0000    0.7717    0.0000 H   0  0  0  0  0  0  0  0  0  0  0  0
    2.5405    3.1321    0.0000 H   0  0  0  0  0  0  0  0  0  0  0  0
    9.5323   -3.1321    0.0000 H   0  0  0  0  0  0  0  0  0  0  0  0
  1 14  1  0  0  0  0
  1 36  1  0  0  0  0
  2 15  1  0  0  0  0
  2 37  1  0  0  0  0
  3 20  1  0  0  0  0
  3 38  1  0  0  0  0
  4  5  1  0  0  0  0
  4  6  1  0  0  0  0
  4 22  1  0  0  0  0
  4 23  1  0  0  0  0
  5  7  1  0  0  0  0
  5 10  1  0  0  0  0
  5 21  1  0  0  0  0
  6  8  1  0  0  0  0
  6 24  1  0  0  0  0
  6 25  1  0  0  0  0
  7  9  1  0  0  0  0
  7 11  2  0  0  0  0
  8  9  1  0  0  0  0
  8 26  1  0  0  0  0
  8 27  1  0  0  0  0
  9 13  2  0  0  0  0
 10 12  1  0  0  0  0
 10 28  1  0  0  0  0
 10 29  1  0  0  0  0
 11 14  1  0  0  0  0
 11 30  1  0  0  0  0
 12 16  2  0  0  0  0
 12 17  1  0  0  0  0
 13 15  1  0  0  0  0
 13 31  1  0  0  0  0
 14 15  2  0  0  0  0
 16 18  1  0  0  0  0
 16 32  1  0  0  0  0
 17 19  2  0  0  0  0
 17 33  1  0  0  0  0
 18 20  2  0  0  0  0
 18 34  1  0  0  0  0
 19 20  1  0  0  0  0
 19 35  1  0  0  0  0
M  CHG  1   4   1
M  END
>  <PUBCHEM_COMPOUND_CID>
44229138

>  <PUBCHEM_COMPOUND_CANONICALIZED>
1

>  <PUBCHEM_CACTVS_COMPLEXITY>
317

>  <PUBCHEM_CACTVS_HBOND_ACCEPTOR>
3

>  <PUBCHEM_CACTVS_HBOND_DONOR>
4

>  <PUBCHEM_CACTVS_ROTATABLE_BOND>
2

>  <PUBCHEM_CACTVS_SUBSKEYS>
AAADceB6MAAAAAAAAAAAAAAAAAAAAAAAAAA8YIAAAAAAAACxQAAAHgAQCAAADCzBmAQwBoLAAgCAAiBCAACCAAAgIAAIiIAOjIgJJiKCkROEcAlk0BGJmAew0PMOoAABAAAQQABAAAIAACCAAAAAAAAAAA==

>  <PUBCHEM_IUPAC_OPENEYE_NAME>
1-[(4-hydroxyphenyl)methyl]-1,2,3,4-tetrahydroisoquinolin-2-ium-6,7-diol

>  <PUBCHEM_IUPAC_CAS_NAME>
1-[(4-hydroxyphenyl)methyl]-1,2,3,4-tetrahydroisoquinolin-2-ium-6,7-diol

>  <PUBCHEM_IUPAC_NAME>
1-[(4-hydroxyphenyl)methyl]-1,2,3,4-tetrahydroisoquinolin-2-ium-6,7-diol

>  <PUBCHEM_IUPAC_SYSTEMATIC_NAME>
1-[(4-hydroxyphenyl)methyl]-1,2,3,4-tetrahydroisoquinolin-2-ium-6,7-diol

>  <PUBCHEM_IUPAC_TRADITIONAL_NAME>
1-(4-hydroxybenzyl)-1,2,3,4-tetrahydroisoquinolin-2-ium-6,7-diol

>  <PUBCHEM_IUPAC_INCHI>
InChI=1S/C16H17NO3/c18-12-3-1-10(2-4-12)7-14-13-9-16(20)15(19)8-11(13)5-6-17-14/h1-4,8-9,14,17-20H,5-7H2/p+1

>  <PUBCHEM_IUPAC_INCHIKEY>
WZRCQWQRFZITDX-UHFFFAOYSA-O

>  <PUBCHEM_XLOGP3_AA>
2.2

>  <PUBCHEM_EXACT_MASS>
272.129

>  <PUBCHEM_MOLECULAR_FORMULA>
C16H18NO3+

>  <PUBCHEM_MOLECULAR_WEIGHT>
272.324

>  <PUBCHEM_OPENEYE_CAN_SMILES>
C1C[NH2+]C(C2=CC(=C(C=C21)O)O)CC3=CC=C(C=C3)O

>  <PUBCHEM_OPENEYE_ISO_SMILES>
C1C[NH2+]C(C2=CC(=C(C=C21)O)O)CC3=CC=C(C=C3)O

>  <PUBCHEM_CACTVS_TPSA>
77.3

>  <PUBCHEM_MONOISOTOPIC_WEIGHT>
272.129

>  <PUBCHEM_TOTAL_CHARGE>
1

>  <PUBCHEM_HEAVY_ATOM_COUNT>
20

>  <PUBCHEM_ATOM_DEF_STEREO_COUNT>
0

>  <PUBCHEM_ATOM_UDEF_STEREO_COUNT>
1

>  <PUBCHEM_BOND_DEF_STEREO_COUNT>
0

>  <PUBCHEM_BOND_UDEF_STEREO_COUNT>
0

>  <PUBCHEM_ISOTOPIC_ATOM_COUNT>
0

>  <PUBCHEM_COMPONENT_COUNT>
1

>  <PUBCHEM_CACTVS_TAUTO_COUNT>
36

>  <PUBCHEM_COORDINATE_TYPE>
1
5
255

>  <PUBCHEM_BONDANNOTATIONS>
11  14  8
12  16  8
12  17  8
13  15  8
14  15  8
16  18  8
17  19  8
18  20  8
19  20  8
5  10  3
7  11  8
7  9  8
9  13  8

$$$$
