44241652
 OpenBabel06101807152D

 50 52  0  0  0  0  0  0  0  0999 V2000
    8.9942   -2.1016    0.0000 O   0  0  0  0  0  0  0  0  0  0  0  0
    7.2458    0.9330    0.0000 O   0  0  0  0  0  0  0  0  0  0  0  0
   11.6462    1.4435    0.0000 O   0  0  0  0  0  0  0  0  0  0  0  0
    9.8602   -1.6016    0.0000 C   0  0  0  0  0  0  0  0  0  0  0  0
    9.8602   -0.6016    0.0000 C   0  0  0  0  0  0  0  0  0  0  0  0
    8.9942   -0.1016    0.0000 C   0  0  0  0  0  0  0  0  0  0  0  0
    8.1282   -0.6016    0.0000 C   0  0  0  0  0  0  0  0  0  0  0  0
    8.1282   -1.6016    0.0000 C   0  0  0  0  0  0  0  0  0  0  0  0
   10.3602   -2.4676    0.0000 C   0  0  0  0  0  0  0  0  0  0  0  0
   10.8602   -1.6016    0.0000 C   0  0  0  0  0  0  0  0  0  0  0  0
    6.3282   -1.6224    0.0000 C   0  0  0  0  0  0  0  0  0  0  0  0
   10.7702   -0.0948    0.0000 C   0  0  0  0  0  0  0  0  0  0  0  0
    7.2342   -2.1363    0.0000 C   0  0  0  0  0  0  0  0  0  0  0  0
    5.4641   -2.1258    0.0000 C   0  0  0  0  0  0  0  0  0  0  0  0
    7.2342   -0.0670    0.0000 C   0  0  0  0  0  0  0  0  0  0  0  0
    8.9781    0.9399    0.0000 C   0  0  0  0  0  0  0  0  0  0  0  0
    4.5961   -1.6291    0.0000 C   0  0  0  0  0  0  0  0  0  0  0  0
    6.3282   -0.5808    0.0000 C   0  0  0  0  0  0  0  0  0  0  0  0
    9.8762    1.4676    0.0000 C   0  0  0  0  0  0  0  0  0  0  0  0
   10.7783    0.9468    0.0000 C   0  0  0  0  0  0  0  0  0  0  0  0
    3.7320   -2.1324    0.0000 C   0  0  0  0  0  0  0  0  0  0  0  0
    2.8641   -1.6358    0.0000 C   0  0  0  0  0  0  0  0  0  0  0  0
    9.8723    2.4676    0.0000 C   0  0  0  0  0  0  0  0  0  0  0  0
    2.0000   -2.1391    0.0000 C   0  0  0  0  0  0  0  0  0  0  0  0
   10.8602   -2.2216    0.0000 H   0  0  0  0  0  0  0  0  0  0  0  0
   11.4802   -1.6016    0.0000 H   0  0  0  0  0  0  0  0  0  0  0  0
   10.8602   -0.9816    0.0000 H   0  0  0  0  0  0  0  0  0  0  0  0
    9.8233   -2.7776    0.0000 H   0  0  0  0  0  0  0  0  0  0  0  0
   10.6702   -3.0046    0.0000 H   0  0  0  0  0  0  0  0  0  0  0  0
   10.8972   -2.1576    0.0000 H   0  0  0  0  0  0  0  0  0  0  0  0
   11.3035   -0.4110    0.0000 H   0  0  0  0  0  0  0  0  0  0  0  0
    5.0674   -2.6022    0.0000 H   0  0  0  0  0  0  0  0  0  0  0  0
    5.8644   -2.5992    0.0000 H   0  0  0  0  0  0  0  0  0  0  0  0
    7.2414   -2.7562    0.0000 H   0  0  0  0  0  0  0  0  0  0  0  0
    8.4377    1.2437    0.0000 H   0  0  0  0  0  0  0  0  0  0  0  0
    4.9928   -1.1526    0.0000 H   0  0  0  0  0  0  0  0  0  0  0  0
    4.1958   -1.1557    0.0000 H   0  0  0  0  0  0  0  0  0  0  0  0
    5.7924   -0.2687    0.0000 H   0  0  0  0  0  0  0  0  0  0  0  0
    3.3353   -2.6089    0.0000 H   0  0  0  0  0  0  0  0  0  0  0  0
    4.1324   -2.6059    0.0000 H   0  0  0  0  0  0  0  0  0  0  0  0
    3.2608   -1.1593    0.0000 H   0  0  0  0  0  0  0  0  0  0  0  0
    2.4637   -1.1624    0.0000 H   0  0  0  0  0  0  0  0  0  0  0  0
   10.4923    2.4700    0.0000 H   0  0  0  0  0  0  0  0  0  0  0  0
    9.8699    3.0876    0.0000 H   0  0  0  0  0  0  0  0  0  0  0  0
    9.2523    2.4652    0.0000 H   0  0  0  0  0  0  0  0  0  0  0  0
    6.7125    1.2492    0.0000 H   0  0  0  0  0  0  0  0  0  0  0  0
    1.6879   -1.6034    0.0000 H   0  0  0  0  0  0  0  0  0  0  0  0
    1.4643   -2.4512    0.0000 H   0  0  0  0  0  0  0  0  0  0  0  0
    2.3121   -2.6748    0.0000 H   0  0  0  0  0  0  0  0  0  0  0  0
   12.1819    1.1314    0.0000 H   0  0  0  0  0  0  0  0  0  0  0  0
  1  4  1  0  0  0  0
  1  8  1  0  0  0  0
  2 15  1  0  0  0  0
  2 46  1  0  0  0  0
  3 20  1  0  0  0  0
  3 50  1  0  0  0  0
  4  5  1  0  0  0  0
  4  9  1  0  0  0  0
  4 10  1  0  0  0  0
  5  6  2  0  0  0  0
  5 12  1  0  0  0  0
  6  7  1  0  0  0  0
  6 16  1  0  0  0  0
  7  8  1  0  0  0  0
  7 15  2  0  0  0  0
  8 13  2  0  0  0  0
  9 28  1  0  0  0  0
  9 29  1  0  0  0  0
  9 30  1  0  0  0  0
 10 25  1  0  0  0  0
 10 26  1  0  0  0  0
 10 27  1  0  0  0  0
 11 13  1  0  0  0  0
 11 14  1  0  0  0  0
 11 18  2  0  0  0  0
 12 20  2  0  0  0  0
 12 31  1  0  0  0  0
 13 34  1  0  0  0  0
 14 17  1  0  0  0  0
 14 32  1  0  0  0  0
 14 33  1  0  0  0  0
 15 18  1  0  0  0  0
 16 19  2  0  0  0  0
 16 35  1  0  0  0  0
 17 21  1  0  0  0  0
 17 36  1  0  0  0  0
 17 37  1  0  0  0  0
 18 38  1  0  0  0  0
 19 20  1  0  0  0  0
 19 23  1  0  0  0  0
 21 22  1  0  0  0  0
 21 39  1  0  0  0  0
 21 40  1  0  0  0  0
 22 24  1  0  0  0  0
 22 41  1  0  0  0  0
 22 42  1  0  0  0  0
 23 43  1  0  0  0  0
 23 44  1  0  0  0  0
 23 45  1  0  0  0  0
 24 47  1  0  0  0  0
 24 48  1  0  0  0  0
 24 49  1  0  0  0  0
M  END
>  <PUBCHEM_COMPOUND_CID>
44241652

>  <PUBCHEM_COMPOUND_CANONICALIZED>
1

>  <PUBCHEM_CACTVS_COMPLEXITY>
421

>  <PUBCHEM_CACTVS_HBOND_ACCEPTOR>
3

>  <PUBCHEM_CACTVS_HBOND_DONOR>
2

>  <PUBCHEM_CACTVS_ROTATABLE_BOND>
4

>  <PUBCHEM_CACTVS_SUBSKEYS>
AAADceB4MAAAAAAAAAAAAAAAAAAAAAAAAAA0YIAAAAAAAACRQAAAGgAACAAADESAmAAyBoAABgCAAiBCAAACCAAgIAAAiAAGCIgMJyKGMRqCeCClwBUIuAfA4PwO4AADCAAYAADAAAYQADAAAAAAAAAAAA==

>  <PUBCHEM_IUPAC_OPENEYE_NAME>
6,6,9-trimethyl-3-pentyl-benzo[c]chromene-1,8-diol

>  <PUBCHEM_IUPAC_CAS_NAME>
6,6,9-trimethyl-3-pentylbenzo[c][1]benzopyran-1,8-diol

>  <PUBCHEM_IUPAC_NAME>
6,6,9-trimethyl-3-pentylbenzo[c]chromene-1,8-diol

>  <PUBCHEM_IUPAC_SYSTEMATIC_NAME>
6,6,9-trimethyl-3-pentyl-benzo[c]chromene-1,8-diol

>  <PUBCHEM_IUPAC_TRADITIONAL_NAME>
3-amyl-6,6,9-trimethyl-benzo[c]chromene-1,8-diol

>  <PUBCHEM_IUPAC_INCHI>
InChI=1S/C21H26O3/c1-5-6-7-8-14-10-18(23)20-15-9-13(2)17(22)12-16(15)21(3,4)24-19(20)11-14/h9-12,22-23H,5-8H2,1-4H3

>  <PUBCHEM_IUPAC_INCHIKEY>
XUERFRQVGLONMR-UHFFFAOYSA-N

>  <PUBCHEM_XLOGP3_AA>
5.8

>  <PUBCHEM_EXACT_MASS>
326.188

>  <PUBCHEM_MOLECULAR_FORMULA>
C21H26O3

>  <PUBCHEM_MOLECULAR_WEIGHT>
326.436

>  <PUBCHEM_OPENEYE_CAN_SMILES>
CCCCCC1=CC2=C(C3=CC(=C(C=C3C(O2)(C)C)O)C)C(=C1)O

>  <PUBCHEM_OPENEYE_ISO_SMILES>
CCCCCC1=CC2=C(C3=CC(=C(C=C3C(O2)(C)C)O)C)C(=C1)O

>  <PUBCHEM_CACTVS_TPSA>
49.7

>  <PUBCHEM_MONOISOTOPIC_WEIGHT>
326.188

>  <PUBCHEM_TOTAL_CHARGE>
0

>  <PUBCHEM_HEAVY_ATOM_COUNT>
24

>  <PUBCHEM_ATOM_DEF_STEREO_COUNT>
0

>  <PUBCHEM_ATOM_UDEF_STEREO_COUNT>
0

>  <PUBCHEM_BOND_DEF_STEREO_COUNT>
0

>  <PUBCHEM_BOND_UDEF_STEREO_COUNT>
0

>  <PUBCHEM_ISOTOPIC_ATOM_COUNT>
0

>  <PUBCHEM_COMPONENT_COUNT>
1

>  <PUBCHEM_CACTVS_TAUTO_COUNT>
76

>  <PUBCHEM_COORDINATE_TYPE>
1
5
255

>  <PUBCHEM_BONDANNOTATIONS>
11  13  8
11  18  8
12  20  8
15  18  8
16  19  8
19  20  8
5  12  8
5  6  8
6  16  8
7  15  8
7  8  8
8  13  8

$$$$
