44257430
 OpenBabel06101807152D

 63 67  0  0  1  0  0  0  0  0999 V2000
    9.6245    1.8195    0.0000 O   0  0  0  0  0  0  0  0  0  0  0  0
    8.5991   -2.9196    0.0000 O   0  0  0  0  0  0  0  0  0  0  0  0
   12.0871    0.1429    0.0000 O   0  0  0  0  0  0  0  0  0  0  0  0
   10.3312   -2.9196    0.0000 O   0  0  0  0  0  0  0  0  0  0  0  0
    8.5991   -5.9196    0.0000 O   0  0  0  0  0  0  0  0  0  0  0  0
    6.8671   -4.9196    0.0000 O   0  0  0  0  0  0  0  0  0  0  0  0
   10.3312   -4.9196    0.0000 O   0  0  0  0  0  0  0  0  0  0  0  0
    6.0010   -3.4196    0.0000 O   0  0  0  0  0  0  0  0  0  0  0  0
    9.7974    5.4201    0.0000 O   0  0  0  0  0  0  0  0  0  0  0  0
    5.1350   -1.9196    0.0000 O   0  0  0  0  0  0  0  0  0  0  0  0
    2.5369   -3.4196    0.0000 O   0  0  0  0  0  0  0  0  0  0  0  0
    3.4030   -1.9196    0.0000 O   0  0  0  0  0  0  0  0  0  0  0  0
   11.2269    1.6462    0.0000 C   0  0  3  0  0  0  0  0  0  0  0  0
   10.3589    1.1496    0.0000 C   0  0  3  0  0  0  0  0  0  0  0  0
    8.5991   -4.9196    0.0000 C   0  0  3  0  0  0  0  0  0  0  0  0
    7.7331   -4.4196    0.0000 C   0  0  3  0  0  0  0  0  0  0  0  0
    9.4651   -4.4196    0.0000 C   0  0  3  0  0  0  0  0  0  0  0  0
    7.7331   -3.4196    0.0000 C   0  0  3  0  0  0  0  0  0  0  0  0
   11.0214    2.6188    0.0000 C   0  0  0  0  0  0  0  0  0  0  0  0
    9.4651   -3.4196    0.0000 C   0  0  3  0  0  0  0  0  0  0  0  0
   12.0910    1.1429    0.0000 C   0  0  0  0  0  0  0  0  0  0  0  0
   10.3551    0.1496    0.0000 C   0  0  0  0  0  0  0  0  0  0  0  0
   10.0331    2.7257    0.0000 C   0  0  0  0  0  0  0  0  0  0  0  0
   11.2192   -0.3538    0.0000 C   0  0  0  0  0  0  0  0  0  0  0  0
    6.8671   -2.9196    0.0000 C   0  0  0  0  0  0  0  0  0  0  0  0
    9.4431   -0.3538    0.0000 C   0  0  0  0  0  0  0  0  0  0  0  0
   10.3312   -1.9196    0.0000 C   0  0  0  0  0  0  0  0  0  0  0  0
   11.2312   -1.3953    0.0000 C   0  0  0  0  0  0  0  0  0  0  0  0
   11.6454    3.4452    0.0000 C   0  0  0  0  0  0  0  0  0  0  0  0
    9.4311   -1.3953    0.0000 C   0  0  0  0  0  0  0  0  0  0  0  0
    9.6002    3.6663    0.0000 C   0  0  0  0  0  0  0  0  0  0  0  0
   11.2344    4.3956    0.0000 C   0  0  0  0  0  0  0  0  0  0  0  0
   10.2049    4.5069    0.0000 C   0  0  0  0  0  0  0  0  0  0  0  0
    5.1350   -2.9196    0.0000 C   0  0  0  0  0  0  0  0  0  0  0  0
    4.2690   -3.4196    0.0000 C   0  0  0  0  0  0  0  0  0  0  0  0
   10.3845    6.2296    0.0000 C   0  0  0  0  0  0  0  0  0  0  0  0
    3.4030   -2.9196    0.0000 C   0  0  0  0  0  0  0  0  0  0  0  0
   11.7294    2.0094    0.0000 H   0  0  0  0  0  0  0  0  0  0  0  0
    9.7913    0.9003    0.0000 H   0  0  0  0  0  0  0  0  0  0  0  0
    8.0622   -5.2296    0.0000 H   0  0  0  0  0  0  0  0  0  0  0  0
    7.1962   -4.1096    0.0000 H   0  0  0  0  0  0  0  0  0  0  0  0
   10.0021   -4.1096    0.0000 H   0  0  0  0  0  0  0  0  0  0  0  0
    7.7331   -2.7996    0.0000 H   0  0  0  0  0  0  0  0  0  0  0  0
    9.4651   -2.7996    0.0000 H   0  0  0  0  0  0  0  0  0  0  0  0
   12.7011    1.0329    0.0000 H   0  0  0  0  0  0  0  0  0  0  0  0
   12.3053    1.7247    0.0000 H   0  0  0  0  0  0  0  0  0  0  0  0
    7.2656   -2.4447    0.0000 H   0  0  0  0  0  0  0  0  0  0  0  0
    6.4685   -2.4447    0.0000 H   0  0  0  0  0  0  0  0  0  0  0  0
    8.9110   -0.0355    0.0000 H   0  0  0  0  0  0  0  0  0  0  0  0
   11.7705   -1.7012    0.0000 H   0  0  0  0  0  0  0  0  0  0  0  0
   12.2610    3.3714    0.0000 H   0  0  0  0  0  0  0  0  0  0  0  0
    8.8918   -1.7012    0.0000 H   0  0  0  0  0  0  0  0  0  0  0  0
    8.9831    3.7258    0.0000 H   0  0  0  0  0  0  0  0  0  0  0  0
    8.0622   -6.2296    0.0000 H   0  0  0  0  0  0  0  0  0  0  0  0
    6.8671   -5.5396    0.0000 H   0  0  0  0  0  0  0  0  0  0  0  0
   10.3312   -5.5396    0.0000 H   0  0  0  0  0  0  0  0  0  0  0  0
   11.6022    4.8947    0.0000 H   0  0  0  0  0  0  0  0  0  0  0  0
    3.8705   -3.8946    0.0000 H   0  0  0  0  0  0  0  0  0  0  0  0
    4.6675   -3.8946    0.0000 H   0  0  0  0  0  0  0  0  0  0  0  0
   10.8864    5.8656    0.0000 H   0  0  0  0  0  0  0  0  0  0  0  0
   10.7485    6.7315    0.0000 H   0  0  0  0  0  0  0  0  0  0  0  0
    9.8826    6.5936    0.0000 H   0  0  0  0  0  0  0  0  0  0  0  0
    2.0000   -3.1096    0.0000 H   0  0  0  0  0  0  0  0  0  0  0  0
  1 14  1  0  0  0  0
  1 23  1  0  0  0  0
  2 18  1  0  0  0  0
  2 20  1  0  0  0  0
  3 21  1  0  0  0  0
  3 24  1  0  0  0  0
  4 20  1  0  0  0  0
  4 27  1  0  0  0  0
  5 15  1  0  0  0  0
  5 54  1  0  0  0  0
  6 16  1  0  0  0  0
  6 55  1  0  0  0  0
  7 17  1  0  0  0  0
  7 56  1  0  0  0  0
  8 25  1  0  0  0  0
  8 34  1  0  0  0  0
  9 33  1  0  0  0  0
  9 36  1  0  0  0  0
 10 34  2  0  0  0  0
 11 37  1  0  0  0  0
 11 63  1  0  0  0  0
 12 37  2  0  0  0  0
 13 14  1  0  0  0  0
 13 19  1  0  0  0  0
 13 21  1  0  0  0  0
 13 38  1  0  0  0  0
 14 22  1  0  0  0  0
 14 39  1  0  0  0  0
 15 16  1  0  0  0  0
 15 17  1  0  0  0  0
 15 40  1  0  0  0  0
 16 18  1  0  0  0  0
 16 41  1  0  0  0  0
 17 20  1  0  0  0  0
 17 42  1  0  0  0  0
 18 25  1  0  0  0  0
 18 43  1  0  0  0  0
 19 23  2  0  0  0  0
 19 29  1  0  0  0  0
 20 44  1  0  0  0  0
 21 45  1  0  0  0  0
 21 46  1  0  0  0  0
 22 24  2  0  0  0  0
 22 26  1  0  0  0  0
 23 31  1  0  0  0  0
 24 28  1  0  0  0  0
 25 47  1  0  0  0  0
 25 48  1  0  0  0  0
 26 30  2  0  0  0  0
 26 49  1  0  0  0  0
 27 28  2  0  0  0  0
 27 30  1  0  0  0  0
 28 50  1  0  0  0  0
 29 32  2  0  0  0  0
 29 51  1  0  0  0  0
 30 52  1  0  0  0  0
 31 33  2  0  0  0  0
 31 53  1  0  0  0  0
 32 33  1  0  0  0  0
 32 57  1  0  0  0  0
 34 35  1  0  0  0  0
 35 37  1  0  0  0  0
 35 58  1  0  0  0  0
 35 59  1  0  0  0  0
 36 60  1  0  0  0  0
 36 61  1  0  0  0  0
 36 62  1  0  0  0  0
M  END
>  <PUBCHEM_COMPOUND_CID>
44257430

>  <PUBCHEM_COMPOUND_CANONICALIZED>
1

>  <PUBCHEM_CACTVS_COMPLEXITY>
824

>  <PUBCHEM_CACTVS_HBOND_ACCEPTOR>
12

>  <PUBCHEM_CACTVS_HBOND_DONOR>
4

>  <PUBCHEM_CACTVS_ROTATABLE_BOND>
8

>  <PUBCHEM_CACTVS_SUBSKEYS>
AAADceB4PAAAAAAAAAAAAAAAAAAAASAAAAA0aIEAAAAAAEiRQAAAGgAACAAADRSwmAMyDoAABgCIAiDSCAACCAAgIAAIiAEGCIgdNyaMMRqieCCl4BUPqAfA4PwOoAAACAAIAABAAAAQABAAAAAAAAAAAA==

>  <PUBCHEM_IUPAC_OPENEYE_NAME>
3-oxo-3-[[3,4,5-trihydroxy-6-[(9-methoxy-6a,11a-dihydro-6H-benzofuro[3,2-c]chromen-3-yl)oxy]tetrahydropyran-2-yl]methoxy]propanoic acid

>  <PUBCHEM_IUPAC_CAS_NAME>
3-oxo-3-[[3,4,5-trihydroxy-6-[(9-methoxy-6a,11a-dihydro-6H-benzofuro[3,2-c][1]benzopyran-3-yl)oxy]-2-oxanyl]methoxy]propanoic acid

>  <PUBCHEM_IUPAC_NAME>
3-oxo-3-[[3,4,5-trihydroxy-6-[(9-methoxy-6a,11a-dihydro-6H-[1]benzofuro[3,2-c]chromen-3-yl)oxy]oxan-2-yl]methoxy]propanoic acid

>  <PUBCHEM_IUPAC_SYSTEMATIC_NAME>
3-[[6-[(9-methoxy-6a,11a-dihydro-6H-[1]benzofuro[3,2-c]chromen-3-yl)oxy]-3,4,5-tris(oxidanyl)oxan-2-yl]methoxy]-3-oxidanylidene-propanoic acid

>  <PUBCHEM_IUPAC_TRADITIONAL_NAME>
3-keto-3-[[3,4,5-trihydroxy-6-[(9-methoxy-6a,11a-dihydro-6H-benzofuro[3,2-c]chromen-3-yl)oxy]tetrahydropyran-2-yl]methoxy]propionic acid

>  <PUBCHEM_IUPAC_INCHI>
InChI=1S/C25H26O12/c1-32-11-2-4-13-15-9-33-16-7-12(3-5-14(16)24(15)36-17(13)6-11)35-25-23(31)22(30)21(29)18(37-25)10-34-20(28)8-19(26)27/h2-7,15,18,21-25,29-31H,8-10H2,1H3,(H,26,27)

>  <PUBCHEM_IUPAC_INCHIKEY>
BQAJKXKYTQTBDK-UHFFFAOYSA-N

>  <PUBCHEM_XLOGP3_AA>
0.5

>  <PUBCHEM_EXACT_MASS>
518.142

>  <PUBCHEM_MOLECULAR_FORMULA>
C25H26O12

>  <PUBCHEM_MOLECULAR_WEIGHT>
518.471

>  <PUBCHEM_OPENEYE_CAN_SMILES>
COC1=CC2=C(C=C1)C3COC4=C(C3O2)C=CC(=C4)OC5C(C(C(C(O5)COC(=O)CC(=O)O)O)O)O

>  <PUBCHEM_OPENEYE_ISO_SMILES>
COC1=CC2=C(C=C1)C3COC4=C(C3O2)C=CC(=C4)OC5C(C(C(C(O5)COC(=O)CC(=O)O)O)O)O

>  <PUBCHEM_CACTVS_TPSA>
170

>  <PUBCHEM_MONOISOTOPIC_WEIGHT>
518.142

>  <PUBCHEM_TOTAL_CHARGE>
0

>  <PUBCHEM_HEAVY_ATOM_COUNT>
37

>  <PUBCHEM_ATOM_DEF_STEREO_COUNT>
0

>  <PUBCHEM_ATOM_UDEF_STEREO_COUNT>
7

>  <PUBCHEM_BOND_DEF_STEREO_COUNT>
0

>  <PUBCHEM_BOND_UDEF_STEREO_COUNT>
0

>  <PUBCHEM_ISOTOPIC_ATOM_COUNT>
0

>  <PUBCHEM_COMPONENT_COUNT>
1

>  <PUBCHEM_CACTVS_TAUTO_COUNT>
1

>  <PUBCHEM_COORDINATE_TYPE>
1
5
255

>  <PUBCHEM_BONDANNOTATIONS>
14  1  3
13  21  3
18  25  3
19  23  8
19  29  8
22  24  8
22  26  8
23  31  8
24  28  8
26  30  8
27  28  8
27  30  8
29  32  8
31  33  8
32  33  8
20  4  3
15  5  3
16  6  3
17  7  3

$$$$
