44259604
 OpenBabel06101807152D

 47 49  0  0  0  0  0  0  0  0999 V2000
    8.1301    2.0677    0.0000 S   0  0  0  0  0  0  0  0  0  0  0  0
    3.7895    2.6123    0.0000 S   0  0  0  0  0  0  0  0  0  0  0  0
   11.5942   -1.9323    0.0000 S   0  0  0  0  0  0  0  0  0  0  0  0
    6.3981   -0.9323    0.0000 O   0  0  0  0  0  0  0  0  0  0  0  0
    8.1301    1.0677    0.0000 O   0  0  0  0  0  0  0  0  0  0  0  0
    4.6497    2.1023    0.0000 O   0  0  0  0  0  0  0  0  0  0  0  0
    2.8680   -0.9564    0.0000 O   0  0  0  0  0  0  0  0  0  0  0  0
    6.3981    2.0677    0.0000 O   0  0  0  0  0  0  0  0  0  0  0  0
   10.7282   -2.4323    0.0000 O   0  0  0  0  0  0  0  0  0  0  0  0
    8.9962   -3.4323    0.0000 O   0  0  0  0  0  0  0  0  0  0  0  0
    8.1301    3.0677    0.0000 O   0  0  0  0  0  0  0  0  0  0  0  0
    2.9293    3.1223    0.0000 O   0  0  0  0  0  0  0  0  0  0  0  0
    9.1301    2.0677    0.0000 O   0  0  0  0  0  0  0  0  0  0  0  0
    7.1301    2.0677    0.0000 O   0  0  0  0  0  0  0  0  0  0  0  0
    4.2995    3.4725    0.0000 O   0  0  0  0  0  0  0  0  0  0  0  0
    3.2795    1.7521    0.0000 O   0  0  0  0  0  0  0  0  0  0  0  0
   12.4602   -1.4323    0.0000 O   0  0  0  0  0  0  0  0  0  0  0  0
   12.0942   -2.7983    0.0000 O   0  0  0  0  0  0  0  0  0  0  0  0
   11.0942   -1.0662    0.0000 O   0  0  0  0  0  0  0  0  0  0  0  0
    5.5320    0.5677    0.0000 C   0  0  0  0  0  0  0  0  0  0  0  0
    5.5320   -0.4323    0.0000 C   0  0  0  0  0  0  0  0  0  0  0  0
    7.2641   -0.4323    0.0000 C   0  0  0  0  0  0  0  0  0  0  0  0
    7.2641    0.5677    0.0000 C   0  0  0  0  0  0  0  0  0  0  0  0
    6.3981    1.0677    0.0000 C   0  0  0  0  0  0  0  0  0  0  0  0
    8.1301   -0.9323    0.0000 C   0  0  0  0  0  0  0  0  0  0  0  0
    4.6381    1.1024    0.0000 C   0  0  0  0  0  0  0  0  0  0  0  0
    4.6381   -0.9669    0.0000 C   0  0  0  0  0  0  0  0  0  0  0  0
    3.7320   -0.4531    0.0000 C   0  0  0  0  0  0  0  0  0  0  0  0
    3.7320    0.5886    0.0000 C   0  0  0  0  0  0  0  0  0  0  0  0
    8.1301   -1.9323    0.0000 C   0  0  0  0  0  0  0  0  0  0  0  0
    8.9962   -0.4323    0.0000 C   0  0  0  0  0  0  0  0  0  0  0  0
    8.9962   -2.4323    0.0000 C   0  0  0  0  0  0  0  0  0  0  0  0
    9.8622   -0.9323    0.0000 C   0  0  0  0  0  0  0  0  0  0  0  0
    9.8622   -1.9323    0.0000 C   0  0  0  0  0  0  0  0  0  0  0  0
    2.0000   -0.4597    0.0000 C   0  0  0  0  0  0  0  0  0  0  0  0
    4.6453   -1.5869    0.0000 H   0  0  0  0  0  0  0  0  0  0  0  0
    3.1963    0.9006    0.0000 H   0  0  0  0  0  0  0  0  0  0  0  0
    7.5932   -2.2423    0.0000 H   0  0  0  0  0  0  0  0  0  0  0  0
    8.9962    0.1877    0.0000 H   0  0  0  0  0  0  0  0  0  0  0  0
   10.3991   -0.6223    0.0000 H   0  0  0  0  0  0  0  0  0  0  0  0
    2.3079    0.0784    0.0000 H   0  0  0  0  0  0  0  0  0  0  0  0
    1.4619   -0.1518    0.0000 H   0  0  0  0  0  0  0  0  0  0  0  0
    1.6921   -0.9979    0.0000 H   0  0  0  0  0  0  0  0  0  0  0  0
    8.4592   -3.7423    0.0000 H   0  0  0  0  0  0  0  0  0  0  0  0
    8.6671    3.3777    0.0000 H   0  0  0  0  0  0  0  0  0  0  0  0
    2.9365    3.7423    0.0000 H   0  0  0  0  0  0  0  0  0  0  0  0
   12.9972   -1.7423    0.0000 H   0  0  0  0  0  0  0  0  0  0  0  0
  1  5  1  0  0  0  0
  1 11  1  0  0  0  0
  1 13  2  0  0  0  0
  1 14  2  0  0  0  0
  2  6  1  0  0  0  0
  2 12  1  0  0  0  0
  2 15  2  0  0  0  0
  2 16  2  0  0  0  0
  3  9  1  0  0  0  0
  3 17  1  0  0  0  0
  3 18  2  0  0  0  0
  3 19  2  0  0  0  0
  4 21  1  0  0  0  0
  4 22  1  0  0  0  0
  5 23  1  0  0  0  0
  6 26  1  0  0  0  0
  7 28  1  0  0  0  0
  7 35  1  0  0  0  0
  8 24  2  0  0  0  0
  9 34  1  0  0  0  0
 10 32  1  0  0  0  0
 10 44  1  0  0  0  0
 11 45  1  0  0  0  0
 12 46  1  0  0  0  0
 17 47  1  0  0  0  0
 20 21  2  0  0  0  0
 20 24  1  0  0  0  0
 20 26  1  0  0  0  0
 21 27  1  0  0  0  0
 22 23  2  0  0  0  0
 22 25  1  0  0  0  0
 23 24  1  0  0  0  0
 25 30  2  0  0  0  0
 25 31  1  0  0  0  0
 26 29  2  0  0  0  0
 27 28  2  0  0  0  0
 27 36  1  0  0  0  0
 28 29  1  0  0  0  0
 29 37  1  0  0  0  0
 30 32  1  0  0  0  0
 30 38  1  0  0  0  0
 31 33  2  0  0  0  0
 31 39  1  0  0  0  0
 32 34  2  0  0  0  0
 33 34  1  0  0  0  0
 33 40  1  0  0  0  0
 35 41  1  0  0  0  0
 35 42  1  0  0  0  0
 35 43  1  0  0  0  0
M  END
>  <PUBCHEM_COMPOUND_CID>
44259604

>  <PUBCHEM_COMPOUND_CANONICALIZED>
1

>  <PUBCHEM_CACTVS_COMPLEXITY>
1160

>  <PUBCHEM_CACTVS_HBOND_ACCEPTOR>
16

>  <PUBCHEM_CACTVS_HBOND_DONOR>
4

>  <PUBCHEM_CACTVS_ROTATABLE_BOND>
8

>  <PUBCHEM_CACTVS_SUBSKEYS>
AAADccB4PgBgAAAAAAAAAAAAAAAAAAAAAAAwYIAAAAAAAACBQAAAGgAACAAADASAmAIyBoAABoCIAqBSADICCAAkIAAIiAFGiMgNJzaGNRqCeWGl4BUJuQfI7LzOIAABCAAIQABAAAIQABCAAAAAAAAAAA==

>  <PUBCHEM_IUPAC_OPENEYE_NAME>
[2-hydroxy-4-(7-methoxy-4-oxo-3,5-disulfooxy-chromen-2-yl)phenyl] hydrogen sulfate

>  <PUBCHEM_IUPAC_CAS_NAME>
sulfuric acid [2-hydroxy-4-(7-methoxy-4-oxo-3,5-disulfooxy-1-benzopyran-2-yl)phenyl] ester

>  <PUBCHEM_IUPAC_NAME>
[2-hydroxy-4-(7-methoxy-4-oxo-3,5-disulfooxychromen-2-yl)phenyl] hydrogen sulfate

>  <PUBCHEM_IUPAC_SYSTEMATIC_NAME>
[4-(7-methoxy-4-oxidanylidene-3,5-disulfooxy-chromen-2-yl)-2-oxidanyl-phenyl] hydrogen sulfate

>  <PUBCHEM_IUPAC_TRADITIONAL_NAME>
sulfuric acid [2-hydroxy-4-(4-keto-7-methoxy-3,5-disulfoxy-chromen-2-yl)phenyl] ester

>  <PUBCHEM_IUPAC_INCHI>
InChI=1S/C16H12O16S3/c1-28-8-5-11-13(12(6-8)31-34(22,23)24)14(18)16(32-35(25,26)27)15(29-11)7-2-3-10(9(17)4-7)30-33(19,20)21/h2-6,17H,1H3,(H,19,20,21)(H,22,23,24)(H,25,26,27)

>  <PUBCHEM_IUPAC_INCHIKEY>
VWRULTJEMXRXOT-UHFFFAOYSA-N

>  <PUBCHEM_XLOGP3_AA>
0.2

>  <PUBCHEM_EXACT_MASS>
555.929

>  <PUBCHEM_MOLECULAR_FORMULA>
C16H12O16S3

>  <PUBCHEM_MOLECULAR_WEIGHT>
556.436

>  <PUBCHEM_OPENEYE_CAN_SMILES>
COC1=CC(=C2C(=C1)OC(=C(C2=O)OS(=O)(=O)O)C3=CC(=C(C=C3)OS(=O)(=O)O)O)OS(=O)(=O)O

>  <PUBCHEM_OPENEYE_ISO_SMILES>
COC1=CC(=C2C(=C1)OC(=C(C2=O)OS(=O)(=O)O)C3=CC(=C(C=C3)OS(=O)(=O)O)O)OS(=O)(=O)O

>  <PUBCHEM_CACTVS_TPSA>
272

>  <PUBCHEM_MONOISOTOPIC_WEIGHT>
555.929

>  <PUBCHEM_TOTAL_CHARGE>
0

>  <PUBCHEM_HEAVY_ATOM_COUNT>
35

>  <PUBCHEM_ATOM_DEF_STEREO_COUNT>
0

>  <PUBCHEM_ATOM_UDEF_STEREO_COUNT>
0

>  <PUBCHEM_BOND_DEF_STEREO_COUNT>
0

>  <PUBCHEM_BOND_UDEF_STEREO_COUNT>
0

>  <PUBCHEM_ISOTOPIC_ATOM_COUNT>
0

>  <PUBCHEM_COMPONENT_COUNT>
1

>  <PUBCHEM_CACTVS_TAUTO_COUNT>
3

>  <PUBCHEM_COORDINATE_TYPE>
1
5
255

>  <PUBCHEM_BONDANNOTATIONS>
20  21  8
20  24  8
20  26  8
21  27  8
22  23  8
23  24  8
25  30  8
25  31  8
26  29  8
27  28  8
28  29  8
30  32  8
31  33  8
32  34  8
33  34  8
4  21  8
4  22  8

$$$$
