44257481
 OpenBabel06101807152D

 47 51  0  0  1  0  0  0  0  0999 V2000
    8.7788   -0.6718    0.0000 O   0  0  0  0  0  0  0  0  0  0  0  0
    8.5696    2.3000    0.0000 O   0  0  0  0  0  0  0  0  0  0  0  0
   10.3016    1.3000    0.0000 O   0  0  0  0  0  0  0  0  0  0  0  0
    4.9179    2.1383    0.0000 O   0  0  0  0  0  0  0  0  0  0  0  0
   11.9770   -2.3347    0.0000 O   0  0  0  0  0  0  0  0  0  0  0  0
    2.3100    1.3000    0.0000 O   0  0  0  0  0  0  0  0  0  0  0  0
    9.4356    0.8000    0.0000 C   0  0  3  0  0  0  0  0  0  0  0  0
    8.5696    0.3000    0.0000 C   0  0  3  0  0  0  0  0  0  0  0  0
   10.1726    0.1330    0.0000 C   0  0  0  0  0  0  0  0  0  0  0  0
    9.4356    1.8000    0.0000 C   0  0  0  0  0  0  0  0  0  0  0  0
    7.7035    0.8000    0.0000 C   0  0  0  0  0  0  0  0  0  0  0  0
    9.7675   -0.7748    0.0000 C   0  0  0  0  0  0  0  0  0  0  0  0
    7.7035    1.8000    0.0000 C   0  0  0  0  0  0  0  0  0  0  0  0
    6.8096    0.2654    0.0000 C   0  0  0  0  0  0  0  0  0  0  0  0
   11.2007    0.2562    0.0000 C   0  0  0  0  0  0  0  0  0  0  0  0
    5.9035    0.7792    0.0000 C   0  0  0  0  0  0  0  0  0  0  0  0
    6.8096    2.3347    0.0000 C   0  0  0  0  0  0  0  0  0  0  0  0
    5.9035    1.8209    0.0000 C   0  0  0  0  0  0  0  0  0  0  0  0
   10.3624   -1.6223    0.0000 C   0  0  0  0  0  0  0  0  0  0  0  0
    4.3100    1.3000    0.0000 C   0  0  0  0  0  0  0  0  0  0  0  0
    4.9179    0.4618    0.0000 C   0  0  0  0  0  0  0  0  0  0  0  0
   11.8150   -0.5773    0.0000 C   0  0  0  0  0  0  0  0  0  0  0  0
   11.3931   -1.5229    0.0000 C   0  0  0  0  0  0  0  0  0  0  0  0
    3.3100    1.3000    0.0000 C   0  0  0  0  0  0  0  0  0  0  0  0
    3.3100    2.3000    0.0000 C   0  0  0  0  0  0  0  0  0  0  0  0
    3.3100    0.3000    0.0000 C   0  0  0  0  0  0  0  0  0  0  0  0
   12.9720   -2.2349    0.0000 C   0  0  0  0  0  0  0  0  0  0  0  0
    8.0684   -0.0650    0.0000 H   0  0  0  0  0  0  0  0  0  0  0  0
   10.0462    1.6924    0.0000 H   0  0  0  0  0  0  0  0  0  0  0  0
    9.6476    2.3827    0.0000 H   0  0  0  0  0  0  0  0  0  0  0  0
    6.8168   -0.3546    0.0000 H   0  0  0  0  0  0  0  0  0  0  0  0
   11.4468    0.8252    0.0000 H   0  0  0  0  0  0  0  0  0  0  0  0
   10.3016    1.9200    0.0000 H   0  0  0  0  0  0  0  0  0  0  0  0
    6.8168    2.9547    0.0000 H   0  0  0  0  0  0  0  0  0  0  0  0
   10.1032   -2.1856    0.0000 H   0  0  0  0  0  0  0  0  0  0  0  0
    4.7253   -0.1275    0.0000 H   0  0  0  0  0  0  0  0  0  0  0  0
   12.4315   -0.5107    0.0000 H   0  0  0  0  0  0  0  0  0  0  0  0
    3.9300    2.3000    0.0000 H   0  0  0  0  0  0  0  0  0  0  0  0
    2.6900    0.3000    0.0000 H   0  0  0  0  0  0  0  0  0  0  0  0
    3.3100   -0.3200    0.0000 H   0  0  0  0  0  0  0  0  0  0  0  0
    3.9300    0.3000    0.0000 H   0  0  0  0  0  0  0  0  0  0  0  0
    3.3100    2.9200    0.0000 H   0  0  0  0  0  0  0  0  0  0  0  0
    2.6900    2.3000    0.0000 H   0  0  0  0  0  0  0  0  0  0  0  0
    2.0000    1.8370    0.0000 H   0  0  0  0  0  0  0  0  0  0  0  0
   13.0339   -2.8518    0.0000 H   0  0  0  0  0  0  0  0  0  0  0  0
   13.5889   -2.1730    0.0000 H   0  0  0  0  0  0  0  0  0  0  0  0
   12.9101   -1.6180    0.0000 H   0  0  0  0  0  0  0  0  0  0  0  0
  1  8  1  0  0  0  0
  1 12  1  0  0  0  0
  2 10  1  0  0  0  0
  2 13  1  0  0  0  0
  3  7  1  0  0  0  0
  3 33  1  0  0  0  0
  4 18  1  0  0  0  0
  4 20  1  0  0  0  0
  5 23  1  0  0  0  0
  5 27  1  0  0  0  0
  6 24  1  0  0  0  0
  6 44  1  0  0  0  0
  7  8  1  0  0  0  0
  7  9  1  0  0  0  0
  7 10  1  0  0  0  0
  8 11  1  0  0  0  0
  8 28  1  0  0  0  0
  9 12  2  0  0  0  0
  9 15  1  0  0  0  0
 10 29  1  0  0  0  0
 10 30  1  0  0  0  0
 11 13  2  0  0  0  0
 11 14  1  0  0  0  0
 12 19  1  0  0  0  0
 13 17  1  0  0  0  0
 14 16  2  0  0  0  0
 14 31  1  0  0  0  0
 15 22  2  0  0  0  0
 15 32  1  0  0  0  0
 16 18  1  0  0  0  0
 16 21  1  0  0  0  0
 17 18  2  0  0  0  0
 17 34  1  0  0  0  0
 19 23  2  0  0  0  0
 19 35  1  0  0  0  0
 20 21  2  0  0  0  0
 20 24  1  0  0  0  0
 21 36  1  0  0  0  0
 22 23  1  0  0  0  0
 22 37  1  0  0  0  0
 24 25  1  0  0  0  0
 24 26  1  0  0  0  0
 25 38  1  0  0  0  0
 25 42  1  0  0  0  0
 25 43  1  0  0  0  0
 26 39  1  0  0  0  0
 26 40  1  0  0  0  0
 26 41  1  0  0  0  0
 27 45  1  0  0  0  0
 27 46  1  0  0  0  0
 27 47  1  0  0  0  0
M  END
>  <PUBCHEM_COMPOUND_CID>
44257481

>  <PUBCHEM_COMPOUND_CANONICALIZED>
1

>  <PUBCHEM_CACTVS_COMPLEXITY>
581

>  <PUBCHEM_CACTVS_HBOND_ACCEPTOR>
6

>  <PUBCHEM_CACTVS_HBOND_DONOR>
2

>  <PUBCHEM_CACTVS_ROTATABLE_BOND>
2

>  <PUBCHEM_CACTVS_SUBSKEYS>
AAADceB4OAAAAAAAAAAAAAAAAAAAASJAAAA0YIAAAAAAAEiR9AAAGgAACAAADFSgmAIyBsAABkCIAqBSAAICCAAkIAAIiAFGCMgNJzaENRqCeWCl4BULuYfI7PzOoAACCAAIAABAAAQQABAAAAAAAAAAAA==

>  <PUBCHEM_IUPAC_INCHI>
InChI=1S/C21H20O6/c1-20(2,22)18-7-11-6-13-16(9-15(11)26-18)25-10-21(23)14-5-4-12(24-3)8-17(14)27-19(13)21/h4-9,19,22-23H,10H2,1-3H3

>  <PUBCHEM_IUPAC_INCHIKEY>
XRYDGCQYNMEJEL-UHFFFAOYSA-N

>  <PUBCHEM_XLOGP3_AA>
2

>  <PUBCHEM_EXACT_MASS>
368.126

>  <PUBCHEM_MOLECULAR_FORMULA>
C21H20O6

>  <PUBCHEM_MOLECULAR_WEIGHT>
368.385

>  <PUBCHEM_OPENEYE_CAN_SMILES>
CC(C)(C1=CC2=CC3=C(C=C2O1)OCC4(C3OC5=C4C=CC(=C5)OC)O)O

>  <PUBCHEM_OPENEYE_ISO_SMILES>
CC(C)(C1=CC2=CC3=C(C=C2O1)OCC4(C3OC5=C4C=CC(=C5)OC)O)O

>  <PUBCHEM_CACTVS_TPSA>
81.3

>  <PUBCHEM_MONOISOTOPIC_WEIGHT>
368.126

>  <PUBCHEM_TOTAL_CHARGE>
0

>  <PUBCHEM_HEAVY_ATOM_COUNT>
27

>  <PUBCHEM_ATOM_DEF_STEREO_COUNT>
0

>  <PUBCHEM_ATOM_UDEF_STEREO_COUNT>
2

>  <PUBCHEM_BOND_DEF_STEREO_COUNT>
0

>  <PUBCHEM_BOND_UDEF_STEREO_COUNT>
0

>  <PUBCHEM_ISOTOPIC_ATOM_COUNT>
0

>  <PUBCHEM_COMPONENT_COUNT>
1

>  <PUBCHEM_CACTVS_TAUTO_COUNT>
1

>  <PUBCHEM_COORDINATE_TYPE>
1
5
255

>  <PUBCHEM_BONDANNOTATIONS>
8  1  3
11  13  8
11  14  8
12  19  8
13  17  8
14  16  8
15  22  8
16  18  8
16  21  8
17  18  8
19  23  8
20  21  8
22  23  8
7  3  3
4  18  8
4  20  8
9  12  8
9  15  8

$$$$
