44258672
 OpenBabel06101807152D

 47 50  0  0  0  0  0  0  0  0999 V2000
    5.4239    2.9691    0.0000 O   0  0  0  0  0  0  0  0  0  0  0  0
    6.1959   -0.2919    0.0000 O   0  0  0  0  0  0  0  0  0  0  0  0
    9.0271    0.8933    0.0000 O   0  0  0  0  0  0  0  0  0  0  0  0
    9.7700   -0.7875    0.0000 O   0  0  0  0  0  0  0  0  0  0  0  0
    2.3793    1.5099    0.0000 O   0  0  0  0  0  0  0  0  0  0  0  0
    7.5805   -3.6638    0.0000 O   0  0  0  0  0  0  0  0  0  0  0  0
    6.3478    3.3517    0.0000 C   0  0  0  0  0  0  0  0  0  0  0  0
    7.2717    2.9691    0.0000 C   0  0  0  0  0  0  0  0  0  0  0  0
    7.6543    2.0452    0.0000 C   0  0  0  0  0  0  0  0  0  0  0  0
    7.2717    1.1213    0.0000 C   0  0  0  0  0  0  0  0  0  0  0  0
    6.7305    4.2756    0.0000 C   0  0  0  0  0  0  0  0  0  0  0  0
    5.9651    4.2756    0.0000 C   0  0  0  0  0  0  0  0  0  0  0  0
    6.3478    0.7386    0.0000 C   0  0  0  0  0  0  0  0  0  0  0  0
    5.4239    1.1213    0.0000 C   0  0  0  0  0  0  0  0  0  0  0  0
    5.0412    2.0452    0.0000 C   0  0  0  0  0  0  0  0  0  0  0  0
    8.1077    0.5000    0.0000 C   0  0  0  0  0  0  0  0  0  0  0  0
    7.9797   -0.5337    0.0000 C   0  0  0  0  0  0  0  0  0  0  0  0
    7.0174   -0.9323    0.0000 C   0  0  0  0  0  0  0  0  0  0  0  0
    4.8026    0.2852    0.0000 C   0  0  0  0  0  0  0  0  0  0  0  0
    4.0107    2.1970    0.0000 C   0  0  0  0  0  0  0  0  0  0  0  0
    8.8506   -1.1809    0.0000 C   0  0  0  0  0  0  0  0  0  0  0  0
    3.3703    1.3756    0.0000 C   0  0  0  0  0  0  0  0  0  0  0  0
    6.8592   -2.0058    0.0000 C   0  0  0  0  0  0  0  0  0  0  0  0
    3.7689    0.4132    0.0000 C   0  0  0  0  0  0  0  0  0  0  0  0
    7.7149   -2.6729    0.0000 C   0  0  0  0  0  0  0  0  0  0  0  0
    8.7173   -2.2577    0.0000 C   0  0  0  0  0  0  0  0  0  0  0  0
    8.3715   -4.2756    0.0000 C   0  0  0  0  0  0  0  0  0  0  0  0
    7.8864    3.0500    0.0000 H   0  0  0  0  0  0  0  0  0  0  0  0
    7.3526    3.5838    0.0000 H   0  0  0  0  0  0  0  0  0  0  0  0
    8.1462    1.6677    0.0000 H   0  0  0  0  0  0  0  0  0  0  0  0
    8.1462    2.4226    0.0000 H   0  0  0  0  0  0  0  0  0  0  0  0
    6.5379    4.5129    0.0000 H   0  0  0  0  0  0  0  0  0  0  0  0
    7.3033    4.0384    0.0000 H   0  0  0  0  0  0  0  0  0  0  0  0
    6.9677    4.8484    0.0000 H   0  0  0  0  0  0  0  0  0  0  0  0
    6.1577    4.5129    0.0000 H   0  0  0  0  0  0  0  0  0  0  0  0
    5.7278    4.8484    0.0000 H   0  0  0  0  0  0  0  0  0  0  0  0
    5.3923    4.0384    0.0000 H   0  0  0  0  0  0  0  0  0  0  0  0
    5.0465   -0.2848    0.0000 H   0  0  0  0  0  0  0  0  0  0  0  0
    3.7801    2.7726    0.0000 H   0  0  0  0  0  0  0  0  0  0  0  0
    6.2837   -2.2364    0.0000 H   0  0  0  0  0  0  0  0  0  0  0  0
    3.3933   -0.0801    0.0000 H   0  0  0  0  0  0  0  0  0  0  0  0
    9.2106   -2.6332    0.0000 H   0  0  0  0  0  0  0  0  0  0  0  0
   10.2662   -1.1593    0.0000 H   0  0  0  0  0  0  0  0  0  0  0  0
    2.0000    1.0195    0.0000 H   0  0  0  0  0  0  0  0  0  0  0  0
    7.9922   -4.7660    0.0000 H   0  0  0  0  0  0  0  0  0  0  0  0
    8.8619   -4.6549    0.0000 H   0  0  0  0  0  0  0  0  0  0  0  0
    8.7508   -3.7852    0.0000 H   0  0  0  0  0  0  0  0  0  0  0  0
  1  7  1  0  0  0  0
  1 15  1  0  0  0  0
  2 13  1  0  0  0  0
  2 18  1  0  0  0  0
  3 16  2  0  0  0  0
  4 21  1  0  0  0  0
  4 43  1  0  0  0  0
  5 22  1  0  0  0  0
  5 44  1  0  0  0  0
  6 25  1  0  0  0  0
  6 27  1  0  0  0  0
  7  8  1  0  0  0  0
  7 11  1  0  0  0  0
  7 12  1  0  0  0  0
  8  9  1  0  0  0  0
  8 28  1  0  0  0  0
  8 29  1  0  0  0  0
  9 10  1  0  0  0  0
  9 30  1  0  0  0  0
  9 31  1  0  0  0  0
 10 13  2  0  0  0  0
 10 16  1  0  0  0  0
 11 33  1  0  0  0  0
 11 34  1  0  0  0  0
 11 35  1  0  0  0  0
 12 32  1  0  0  0  0
 12 36  1  0  0  0  0
 12 37  1  0  0  0  0
 13 14  1  0  0  0  0
 14 15  2  0  0  0  0
 14 19  1  0  0  0  0
 15 20  1  0  0  0  0
 16 17  1  0  0  0  0
 17 18  1  0  0  0  0
 17 21  2  0  0  0  0
 18 23  2  0  0  0  0
 19 24  2  0  0  0  0
 19 38  1  0  0  0  0
 20 22  2  0  0  0  0
 20 39  1  0  0  0  0
 21 26  1  0  0  0  0
 22 24  1  0  0  0  0
 23 25  1  0  0  0  0
 23 40  1  0  0  0  0
 24 41  1  0  0  0  0
 25 26  2  0  0  0  0
 26 42  1  0  0  0  0
 27 45  1  0  0  0  0
 27 46  1  0  0  0  0
 27 47  1  0  0  0  0
M  END
>  <PUBCHEM_COMPOUND_CID>
44258672

>  <PUBCHEM_COMPOUND_CANONICALIZED>
1

>  <PUBCHEM_CACTVS_COMPLEXITY>
626

>  <PUBCHEM_CACTVS_HBOND_ACCEPTOR>
6

>  <PUBCHEM_CACTVS_HBOND_DONOR>
2

>  <PUBCHEM_CACTVS_ROTATABLE_BOND>
1

>  <PUBCHEM_CACTVS_SUBSKEYS>
AAADceB4OAAAAAAAAAAAAAAAAAAAAAAAAAAwYIAAAAAQAACBQAAAGgAACAAADESAmAIyBoAABgCIAqBSAAACCAAkIAAIiAEGCMgMJzaGNRqCeWCl4BUIuQeI7OzOIAAACAAIAABAAAAQABAAAAAAAAAAAA==

>  <PUBCHEM_IUPAC_INCHI>
InChI=1S/C21H20O6/c1-21(2)7-6-14-19(24)18-15(23)9-12(25-3)10-17(18)26-20(14)13-5-4-11(22)8-16(13)27-21/h4-5,8-10,22-23H,6-7H2,1-3H3

>  <PUBCHEM_IUPAC_INCHIKEY>
LRBWGBCDUCRXLG-UHFFFAOYSA-N

>  <PUBCHEM_XLOGP3_AA>
4

>  <PUBCHEM_EXACT_MASS>
368.126

>  <PUBCHEM_MOLECULAR_FORMULA>
C21H20O6

>  <PUBCHEM_MOLECULAR_WEIGHT>
368.385

>  <PUBCHEM_OPENEYE_CAN_SMILES>
CC1(CCC2=C(C3=C(O1)C=C(C=C3)O)OC4=CC(=CC(=C4C2=O)O)OC)C

>  <PUBCHEM_OPENEYE_ISO_SMILES>
CC1(CCC2=C(C3=C(O1)C=C(C=C3)O)OC4=CC(=CC(=C4C2=O)O)OC)C

>  <PUBCHEM_CACTVS_TPSA>
85.2

>  <PUBCHEM_MONOISOTOPIC_WEIGHT>
368.126

>  <PUBCHEM_TOTAL_CHARGE>
0

>  <PUBCHEM_HEAVY_ATOM_COUNT>
27

>  <PUBCHEM_ATOM_DEF_STEREO_COUNT>
0

>  <PUBCHEM_ATOM_UDEF_STEREO_COUNT>
0

>  <PUBCHEM_BOND_DEF_STEREO_COUNT>
0

>  <PUBCHEM_BOND_UDEF_STEREO_COUNT>
0

>  <PUBCHEM_ISOTOPIC_ATOM_COUNT>
0

>  <PUBCHEM_COMPONENT_COUNT>
1

>  <PUBCHEM_CACTVS_TAUTO_COUNT>
29

>  <PUBCHEM_COORDINATE_TYPE>
1
5
255

>  <PUBCHEM_BONDANNOTATIONS>
10  13  8
10  16  8
14  15  8
14  19  8
15  20  8
16  17  8
17  18  8
17  21  8
18  23  8
19  24  8
2  13  8
2  18  8
20  22  8
21  26  8
22  24  8
23  25  8
25  26  8

$$$$
