44259570
 OpenBabel06101807152D

 38 40  0  0  0  0  0  0  0  0999 V2000
    8.1301    1.9050    0.0000 S   0  0  0  0  0  0  0  0  0  0  0  0
    6.3981   -1.0950    0.0000 O   0  0  0  0  0  0  0  0  0  0  0  0
    8.1301    0.9050    0.0000 O   0  0  0  0  0  0  0  0  0  0  0  0
    2.8680   -1.1192    0.0000 O   0  0  0  0  0  0  0  0  0  0  0  0
    4.6497    1.9396    0.0000 O   0  0  0  0  0  0  0  0  0  0  0  0
    6.3981    1.9050    0.0000 O   0  0  0  0  0  0  0  0  0  0  0  0
   10.7282   -2.5950    0.0000 O   0  0  0  0  0  0  0  0  0  0  0  0
    8.1301    2.9050    0.0000 O   0  0  0  0  0  0  0  0  0  0  0  0
    9.1301    1.9050    0.0000 O   0  0  0  0  0  0  0  0  0  0  0  0
    7.1301    1.9050    0.0000 O   0  0  0  0  0  0  0  0  0  0  0  0
    5.5320    0.4050    0.0000 C   0  0  0  0  0  0  0  0  0  0  0  0
    5.5320   -0.5950    0.0000 C   0  0  0  0  0  0  0  0  0  0  0  0
    7.2641   -0.5950    0.0000 C   0  0  0  0  0  0  0  0  0  0  0  0
    7.2641    0.4050    0.0000 C   0  0  0  0  0  0  0  0  0  0  0  0
    6.3981    0.9050    0.0000 C   0  0  0  0  0  0  0  0  0  0  0  0
    8.1301   -1.0950    0.0000 C   0  0  0  0  0  0  0  0  0  0  0  0
    4.6381    0.9397    0.0000 C   0  0  0  0  0  0  0  0  0  0  0  0
    4.6381   -1.1297    0.0000 C   0  0  0  0  0  0  0  0  0  0  0  0
    3.7320   -0.6158    0.0000 C   0  0  0  0  0  0  0  0  0  0  0  0
    3.7320    0.4258    0.0000 C   0  0  0  0  0  0  0  0  0  0  0  0
    8.1301   -2.0950    0.0000 C   0  0  0  0  0  0  0  0  0  0  0  0
    8.9962   -0.5950    0.0000 C   0  0  0  0  0  0  0  0  0  0  0  0
    8.9962   -2.5950    0.0000 C   0  0  0  0  0  0  0  0  0  0  0  0
    9.8622   -1.0950    0.0000 C   0  0  0  0  0  0  0  0  0  0  0  0
    9.8622   -2.0950    0.0000 C   0  0  0  0  0  0  0  0  0  0  0  0
    2.0000   -0.6225    0.0000 C   0  0  0  0  0  0  0  0  0  0  0  0
    4.6453   -1.7496    0.0000 H   0  0  0  0  0  0  0  0  0  0  0  0
    3.1963    0.7379    0.0000 H   0  0  0  0  0  0  0  0  0  0  0  0
    7.5932   -2.4050    0.0000 H   0  0  0  0  0  0  0  0  0  0  0  0
    8.9962    0.0250    0.0000 H   0  0  0  0  0  0  0  0  0  0  0  0
    8.9962   -3.2150    0.0000 H   0  0  0  0  0  0  0  0  0  0  0  0
   10.3991   -0.7850    0.0000 H   0  0  0  0  0  0  0  0  0  0  0  0
    4.1164    2.2558    0.0000 H   0  0  0  0  0  0  0  0  0  0  0  0
    2.3079   -0.0844    0.0000 H   0  0  0  0  0  0  0  0  0  0  0  0
    1.4619   -0.3146    0.0000 H   0  0  0  0  0  0  0  0  0  0  0  0
    1.6921   -1.1606    0.0000 H   0  0  0  0  0  0  0  0  0  0  0  0
   10.7282   -3.2150    0.0000 H   0  0  0  0  0  0  0  0  0  0  0  0
    8.6671    3.2150    0.0000 H   0  0  0  0  0  0  0  0  0  0  0  0
  1  3  1  0  0  0  0
  1  8  1  0  0  0  0
  1  9  2  0  0  0  0
  1 10  2  0  0  0  0
  2 12  1  0  0  0  0
  2 13  1  0  0  0  0
  3 14  1  0  0  0  0
  4 19  1  0  0  0  0
  4 26  1  0  0  0  0
  5 17  1  0  0  0  0
  5 33  1  0  0  0  0
  6 15  2  0  0  0  0
  7 25  1  0  0  0  0
  7 37  1  0  0  0  0
  8 38  1  0  0  0  0
 11 12  1  0  0  0  0
 11 15  1  0  0  0  0
 11 17  2  0  0  0  0
 12 18  2  0  0  0  0
 13 14  2  0  0  0  0
 13 16  1  0  0  0  0
 14 15  1  0  0  0  0
 16 21  2  0  0  0  0
 16 22  1  0  0  0  0
 17 20  1  0  0  0  0
 18 19  1  0  0  0  0
 18 27  1  0  0  0  0
 19 20  2  0  0  0  0
 20 28  1  0  0  0  0
 21 23  1  0  0  0  0
 21 29  1  0  0  0  0
 22 24  2  0  0  0  0
 22 30  1  0  0  0  0
 23 25  2  0  0  0  0
 23 31  1  0  0  0  0
 24 25  1  0  0  0  0
 24 32  1  0  0  0  0
 26 34  1  0  0  0  0
 26 35  1  0  0  0  0
 26 36  1  0  0  0  0
M  END
>  <PUBCHEM_COMPOUND_CID>
44259570

>  <PUBCHEM_COMPOUND_CANONICALIZED>
1

>  <PUBCHEM_CACTVS_COMPLEXITY>
672

>  <PUBCHEM_CACTVS_HBOND_ACCEPTOR>
9

>  <PUBCHEM_CACTVS_HBOND_DONOR>
3

>  <PUBCHEM_CACTVS_ROTATABLE_BOND>
4

>  <PUBCHEM_CACTVS_SUBSKEYS>
AAADccB4PABAAAAAAAAAAAAAAAAAAAAAAAAwYIAAAAAAAACBQAAAGgAACAAADASAmAIyBoAABoCIAqBSADICCAAkIAAIiAFGCMgMJzaGNRqCeWCl4BUIuQfI7KzOIAAACAAIAABAAAAQABAAAAAAAAAAAA==

>  <PUBCHEM_IUPAC_OPENEYE_NAME>
[5-hydroxy-2-(4-hydroxyphenyl)-7-methoxy-4-oxo-chromen-3-yl] hydrogen sulfate

>  <PUBCHEM_IUPAC_CAS_NAME>
sulfuric acid [5-hydroxy-2-(4-hydroxyphenyl)-7-methoxy-4-oxo-1-benzopyran-3-yl] ester

>  <PUBCHEM_IUPAC_NAME>
[5-hydroxy-2-(4-hydroxyphenyl)-7-methoxy-4-oxochromen-3-yl] hydrogen sulfate

>  <PUBCHEM_IUPAC_SYSTEMATIC_NAME>
[2-(4-hydroxyphenyl)-7-methoxy-5-oxidanyl-4-oxidanylidene-chromen-3-yl] hydrogen sulfate

>  <PUBCHEM_IUPAC_TRADITIONAL_NAME>
sulfuric acid [5-hydroxy-2-(4-hydroxyphenyl)-4-keto-7-methoxy-chromen-3-yl] ester

>  <PUBCHEM_IUPAC_INCHI>
InChI=1S/C16H12O9S/c1-23-10-6-11(18)13-12(7-10)24-15(8-2-4-9(17)5-3-8)16(14(13)19)25-26(20,21)22/h2-7,17-18H,1H3,(H,20,21,22)

>  <PUBCHEM_IUPAC_INCHIKEY>
SUOFUBGWTRZSQA-UHFFFAOYSA-N

>  <PUBCHEM_XLOGP3_AA>
2.3

>  <PUBCHEM_EXACT_MASS>
380.02

>  <PUBCHEM_MOLECULAR_FORMULA>
C16H12O9S

>  <PUBCHEM_MOLECULAR_WEIGHT>
380.323

>  <PUBCHEM_OPENEYE_CAN_SMILES>
COC1=CC(=C2C(=C1)OC(=C(C2=O)OS(=O)(=O)O)C3=CC=C(C=C3)O)O

>  <PUBCHEM_OPENEYE_ISO_SMILES>
COC1=CC(=C2C(=C1)OC(=C(C2=O)OS(=O)(=O)O)C3=CC=C(C=C3)O)O

>  <PUBCHEM_CACTVS_TPSA>
148

>  <PUBCHEM_MONOISOTOPIC_WEIGHT>
380.02

>  <PUBCHEM_TOTAL_CHARGE>
0

>  <PUBCHEM_HEAVY_ATOM_COUNT>
26

>  <PUBCHEM_ATOM_DEF_STEREO_COUNT>
0

>  <PUBCHEM_ATOM_UDEF_STEREO_COUNT>
0

>  <PUBCHEM_BOND_DEF_STEREO_COUNT>
0

>  <PUBCHEM_BOND_UDEF_STEREO_COUNT>
0

>  <PUBCHEM_ISOTOPIC_ATOM_COUNT>
0

>  <PUBCHEM_COMPONENT_COUNT>
1

>  <PUBCHEM_CACTVS_TAUTO_COUNT>
24

>  <PUBCHEM_COORDINATE_TYPE>
1
5
255

>  <PUBCHEM_BONDANNOTATIONS>
11  12  8
11  15  8
11  17  8
12  18  8
13  14  8
14  15  8
16  21  8
16  22  8
17  20  8
18  19  8
19  20  8
2  12  8
2  13  8
21  23  8
22  24  8
23  25  8
24  25  8

$$$$
