44258292
 OpenBabel06101807152D

 60 62  0  0  0  0  0  0  0  0999 V2000
    8.1301   -1.1900    0.0000 O   0  0  0  0  0  0  0  0  0  0  0  0
    4.6000   -1.2142    0.0000 O   0  0  0  0  0  0  0  0  0  0  0  0
    6.3817    1.8446    0.0000 O   0  0  0  0  0  0  0  0  0  0  0  0
    8.1301    1.8100    0.0000 O   0  0  0  0  0  0  0  0  0  0  0  0
    8.9961   -2.6900    0.0000 O   0  0  0  0  0  0  0  0  0  0  0  0
   12.4602   -2.6900    0.0000 O   0  0  0  0  0  0  0  0  0  0  0  0
    7.2641    0.3100    0.0000 C   0  0  0  0  0  0  0  0  0  0  0  0
    8.9961    0.3100    0.0000 C   0  0  0  0  0  0  0  0  0  0  0  0
    7.2641   -0.6900    0.0000 C   0  0  0  0  0  0  0  0  0  0  0  0
    5.4641    0.3308    0.0000 C   0  0  0  0  0  0  0  0  0  0  0  0
    8.9961   -0.6900    0.0000 C   0  0  0  0  0  0  0  0  0  0  0  0
    8.1301    0.8100    0.0000 C   0  0  0  0  0  0  0  0  0  0  0  0
    6.3701    0.8447    0.0000 C   0  0  0  0  0  0  0  0  0  0  0  0
    9.8622    0.8100    0.0000 C   0  0  0  0  0  0  0  0  0  0  0  0
    5.4641   -0.7108    0.0000 C   0  0  0  0  0  0  0  0  0  0  0  0
    6.3701   -1.2247    0.0000 C   0  0  0  0  0  0  0  0  0  0  0  0
    4.6000    0.8342    0.0000 C   0  0  0  0  0  0  0  0  0  0  0  0
    9.8622   -1.1900    0.0000 C   0  0  0  0  0  0  0  0  0  0  0  0
    9.8622    1.8100    0.0000 C   0  0  0  0  0  0  0  0  0  0  0  0
    3.7320    0.3375    0.0000 C   0  0  0  0  0  0  0  0  0  0  0  0
    9.8622   -2.1900    0.0000 C   0  0  0  0  0  0  0  0  0  0  0  0
   10.7282   -0.6900    0.0000 C   0  0  0  0  0  0  0  0  0  0  0  0
   10.7282    2.3100    0.0000 C   0  0  0  0  0  0  0  0  0  0  0  0
    2.8680    0.8408    0.0000 C   0  0  0  0  0  0  0  0  0  0  0  0
   10.7282   -2.6900    0.0000 C   0  0  0  0  0  0  0  0  0  0  0  0
   11.5942   -1.1900    0.0000 C   0  0  0  0  0  0  0  0  0  0  0  0
   11.5942   -2.1900    0.0000 C   0  0  0  0  0  0  0  0  0  0  0  0
   10.7282    3.3100    0.0000 C   0  0  0  0  0  0  0  0  0  0  0  0
   11.5942    1.8100    0.0000 C   0  0  0  0  0  0  0  0  0  0  0  0
    4.6038   -2.2141    0.0000 C   0  0  0  0  0  0  0  0  0  0  0  0
    2.0000    0.3442    0.0000 C   0  0  0  0  0  0  0  0  0  0  0  0
    2.8718    1.8408    0.0000 C   0  0  0  0  0  0  0  0  0  0  0  0
   10.0742    0.2274    0.0000 H   0  0  0  0  0  0  0  0  0  0  0  0
   10.4727    0.9177    0.0000 H   0  0  0  0  0  0  0  0  0  0  0  0
    6.3773   -1.8446    0.0000 H   0  0  0  0  0  0  0  0  0  0  0  0
    5.0003    1.3076    0.0000 H   0  0  0  0  0  0  0  0  0  0  0  0
    4.2033    1.3106    0.0000 H   0  0  0  0  0  0  0  0  0  0  0  0
    9.3252    2.1200    0.0000 H   0  0  0  0  0  0  0  0  0  0  0  0
    3.7296   -0.2825    0.0000 H   0  0  0  0  0  0  0  0  0  0  0  0
   10.7282   -0.0700    0.0000 H   0  0  0  0  0  0  0  0  0  0  0  0
    5.8484    2.1608    0.0000 H   0  0  0  0  0  0  0  0  0  0  0  0
   10.7282   -3.3100    0.0000 H   0  0  0  0  0  0  0  0  0  0  0  0
   12.1311   -0.8800    0.0000 H   0  0  0  0  0  0  0  0  0  0  0  0
   11.2842    1.2731    0.0000 H   0  0  0  0  0  0  0  0  0  0  0  0
   12.1311    1.5000    0.0000 H   0  0  0  0  0  0  0  0  0  0  0  0
   11.9042    2.3469    0.0000 H   0  0  0  0  0  0  0  0  0  0  0  0
   11.3482    3.3100    0.0000 H   0  0  0  0  0  0  0  0  0  0  0  0
   10.7282    3.9300    0.0000 H   0  0  0  0  0  0  0  0  0  0  0  0
   10.1082    3.3100    0.0000 H   0  0  0  0  0  0  0  0  0  0  0  0
    3.9838   -2.2165    0.0000 H   0  0  0  0  0  0  0  0  0  0  0  0
    4.6062   -2.8341    0.0000 H   0  0  0  0  0  0  0  0  0  0  0  0
    5.2238   -2.2118    0.0000 H   0  0  0  0  0  0  0  0  0  0  0  0
    1.6921    0.8823    0.0000 H   0  0  0  0  0  0  0  0  0  0  0  0
    1.4619    0.0362    0.0000 H   0  0  0  0  0  0  0  0  0  0  0  0
    2.3079   -0.1940    0.0000 H   0  0  0  0  0  0  0  0  0  0  0  0
    3.4918    1.8384    0.0000 H   0  0  0  0  0  0  0  0  0  0  0  0
    2.8742    2.4608    0.0000 H   0  0  0  0  0  0  0  0  0  0  0  0
    2.2518    1.8432    0.0000 H   0  0  0  0  0  0  0  0  0  0  0  0
    8.9961   -3.3100    0.0000 H   0  0  0  0  0  0  0  0  0  0  0  0
   12.9972   -2.3800    0.0000 H   0  0  0  0  0  0  0  0  0  0  0  0
  1  9  1  0  0  0  0
  1 11  1  0  0  0  0
  2 15  1  0  0  0  0
  2 30  1  0  0  0  0
  3 13  1  0  0  0  0
  3 41  1  0  0  0  0
  4 12  2  0  0  0  0
  5 21  1  0  0  0  0
  5 59  1  0  0  0  0
  6 27  1  0  0  0  0
  6 60  1  0  0  0  0
  7  9  1  0  0  0  0
  7 12  1  0  0  0  0
  7 13  2  0  0  0  0
  8 11  2  0  0  0  0
  8 12  1  0  0  0  0
  8 14  1  0  0  0  0
  9 16  2  0  0  0  0
 10 13  1  0  0  0  0
 10 15  2  0  0  0  0
 10 17  1  0  0  0  0
 11 18  1  0  0  0  0
 14 19  1  0  0  0  0
 14 33  1  0  0  0  0
 14 34  1  0  0  0  0
 15 16  1  0  0  0  0
 16 35  1  0  0  0  0
 17 20  1  0  0  0  0
 17 36  1  0  0  0  0
 17 37  1  0  0  0  0
 18 21  2  0  0  0  0
 18 22  1  0  0  0  0
 19 23  2  0  0  0  0
 19 38  1  0  0  0  0
 20 24  2  0  0  0  0
 20 39  1  0  0  0  0
 21 25  1  0  0  0  0
 22 26  2  0  0  0  0
 22 40  1  0  0  0  0
 23 28  1  0  0  0  0
 23 29  1  0  0  0  0
 24 31  1  0  0  0  0
 24 32  1  0  0  0  0
 25 27  2  0  0  0  0
 25 42  1  0  0  0  0
 26 27  1  0  0  0  0
 26 43  1  0  0  0  0
 28 47  1  0  0  0  0
 28 48  1  0  0  0  0
 28 49  1  0  0  0  0
 29 44  1  0  0  0  0
 29 45  1  0  0  0  0
 29 46  1  0  0  0  0
 30 50  1  0  0  0  0
 30 51  1  0  0  0  0
 30 52  1  0  0  0  0
 31 53  1  0  0  0  0
 31 54  1  0  0  0  0
 31 55  1  0  0  0  0
 32 56  1  0  0  0  0
 32 57  1  0  0  0  0
 32 58  1  0  0  0  0
M  END
>  <PUBCHEM_COMPOUND_CID>
44258292

>  <PUBCHEM_COMPOUND_CANONICALIZED>
1

>  <PUBCHEM_CACTVS_COMPLEXITY>
773

>  <PUBCHEM_CACTVS_HBOND_ACCEPTOR>
6

>  <PUBCHEM_CACTVS_HBOND_DONOR>
3

>  <PUBCHEM_CACTVS_ROTATABLE_BOND>
6

>  <PUBCHEM_CACTVS_SUBSKEYS>
AAADceB4OAAAAAAAAAAAAAAAAAAAAAAAAAAwYIAAAAAAAACBQAAAGgAACAAADASAmAIyBoAABgCIAqBSAAACCAAkIAAIiAEGCMgMJzaGNRqCeWCl4BUIuQeI7OzOIAACCAAIAABAAAQQABAAAAAAAAAAAA==

>  <PUBCHEM_IUPAC_OPENEYE_NAME>
2-(2,4-dihydroxyphenyl)-5-hydroxy-7-methoxy-3,6-bis(3-methylbut-2-enyl)chromen-4-one

>  <PUBCHEM_IUPAC_CAS_NAME>
2-(2,4-dihydroxyphenyl)-5-hydroxy-7-methoxy-3,6-bis(3-methylbut-2-enyl)-1-benzopyran-4-one

>  <PUBCHEM_IUPAC_NAME>
2-(2,4-dihydroxyphenyl)-5-hydroxy-7-methoxy-3,6-bis(3-methylbut-2-enyl)chromen-4-one

>  <PUBCHEM_IUPAC_SYSTEMATIC_NAME>
2-[2,4-bis(oxidanyl)phenyl]-7-methoxy-3,6-bis(3-methylbut-2-enyl)-5-oxidanyl-chromen-4-one

>  <PUBCHEM_IUPAC_TRADITIONAL_NAME>
2-(2,4-dihydroxyphenyl)-5-hydroxy-7-methoxy-3,6-bis(3-methylbut-2-enyl)chromone

>  <PUBCHEM_IUPAC_INCHI>
InChI=1S/C26H28O6/c1-14(2)6-9-18-21(31-5)13-22-23(24(18)29)25(30)19(10-7-15(3)4)26(32-22)17-11-8-16(27)12-20(17)28/h6-8,11-13,27-29H,9-10H2,1-5H3

>  <PUBCHEM_IUPAC_INCHIKEY>
AAXZLRPBJQFZQA-UHFFFAOYSA-N

>  <PUBCHEM_XLOGP3>
5.9

>  <PUBCHEM_EXACT_MASS>
436.189

>  <PUBCHEM_MOLECULAR_FORMULA>
C26H28O6

>  <PUBCHEM_MOLECULAR_WEIGHT>
436.504

>  <PUBCHEM_OPENEYE_CAN_SMILES>
CC(=CCC1=C(C=C2C(=C1O)C(=O)C(=C(O2)C3=C(C=C(C=C3)O)O)CC=C(C)C)OC)C

>  <PUBCHEM_OPENEYE_ISO_SMILES>
CC(=CCC1=C(C=C2C(=C1O)C(=O)C(=C(O2)C3=C(C=C(C=C3)O)O)CC=C(C)C)OC)C

>  <PUBCHEM_CACTVS_TPSA>
96.2

>  <PUBCHEM_MONOISOTOPIC_WEIGHT>
436.189

>  <PUBCHEM_TOTAL_CHARGE>
0

>  <PUBCHEM_HEAVY_ATOM_COUNT>
32

>  <PUBCHEM_ATOM_DEF_STEREO_COUNT>
0

>  <PUBCHEM_ATOM_UDEF_STEREO_COUNT>
0

>  <PUBCHEM_BOND_DEF_STEREO_COUNT>
0

>  <PUBCHEM_BOND_UDEF_STEREO_COUNT>
0

>  <PUBCHEM_ISOTOPIC_ATOM_COUNT>
0

>  <PUBCHEM_COMPONENT_COUNT>
1

>  <PUBCHEM_CACTVS_TAUTO_COUNT>
72

>  <PUBCHEM_COORDINATE_TYPE>
1
5
255

>  <PUBCHEM_BONDANNOTATIONS>
1  11  8
1  9  8
10  13  8
10  15  8
15  16  8
18  21  8
18  22  8
21  25  8
22  26  8
25  27  8
26  27  8
7  12  8
7  13  8
7  9  8
8  11  8
8  12  8
9  16  8

$$$$
