44257640
 OpenBabel06101807152D

 38 40  0  0  0  0  0  0  0  0999 V2000
    5.4920   -1.0209    0.0000 O   0  0  0  0  0  0  0  0  0  0  0  0
    3.7320    2.0137    0.0000 O   0  0  0  0  0  0  0  0  0  0  0  0
    2.0000   -0.9863    0.0000 O   0  0  0  0  0  0  0  0  0  0  0  0
    5.4804    2.0483    0.0000 O   0  0  0  0  0  0  0  0  0  0  0  0
    4.5981    0.5137    0.0000 C   0  0  0  0  0  0  0  0  0  0  0  0
    4.5981   -0.4863    0.0000 C   0  0  0  0  0  0  0  0  0  0  0  0
    3.7320    1.0137    0.0000 C   0  0  0  0  0  0  0  0  0  0  0  0
    2.8660    0.5137    0.0000 C   0  0  0  0  0  0  0  0  0  0  0  0
    2.8660   -0.4863    0.0000 C   0  0  0  0  0  0  0  0  0  0  0  0
    3.7320   -0.9863    0.0000 C   0  0  0  0  0  0  0  0  0  0  0  0
    5.4920    1.0484    0.0000 C   0  0  0  0  0  0  0  0  0  0  0  0
    6.3981   -0.5071    0.0000 C   0  0  0  0  0  0  0  0  0  0  0  0
    6.3981    0.5346    0.0000 C   0  0  0  0  0  0  0  0  0  0  0  0
    2.0000    1.0137    0.0000 C   0  0  0  0  0  0  0  0  0  0  0  0
    7.2622   -1.0104    0.0000 C   0  0  0  0  0  0  0  0  0  0  0  0
    7.2583   -2.0104    0.0000 C   0  0  0  0  0  0  0  0  0  0  0  0
    8.1301   -0.5138    0.0000 C   0  0  0  0  0  0  0  0  0  0  0  0
    2.8660    2.5137    0.0000 C   0  0  0  0  0  0  0  0  0  0  0  0
    8.1224   -2.5137    0.0000 C   0  0  0  0  0  0  0  0  0  0  0  0
    8.9942   -1.0171    0.0000 C   0  0  0  0  0  0  0  0  0  0  0  0
    8.9904   -2.0171    0.0000 C   0  0  0  0  0  0  0  0  0  0  0  0
    2.0000   -1.9863    0.0000 C   0  0  0  0  0  0  0  0  0  0  0  0
    3.7320   -1.6063    0.0000 H   0  0  0  0  0  0  0  0  0  0  0  0
    6.9338    0.8466    0.0000 H   0  0  0  0  0  0  0  0  0  0  0  0
    2.3100    1.5507    0.0000 H   0  0  0  0  0  0  0  0  0  0  0  0
    1.4631    1.3237    0.0000 H   0  0  0  0  0  0  0  0  0  0  0  0
    1.6900    0.4768    0.0000 H   0  0  0  0  0  0  0  0  0  0  0  0
    6.7202   -2.3183    0.0000 H   0  0  0  0  0  0  0  0  0  0  0  0
    8.1325    0.1062    0.0000 H   0  0  0  0  0  0  0  0  0  0  0  0
    3.1760    3.0507    0.0000 H   0  0  0  0  0  0  0  0  0  0  0  0
    2.3291    2.8237    0.0000 H   0  0  0  0  0  0  0  0  0  0  0  0
    2.5560    1.9768    0.0000 H   0  0  0  0  0  0  0  0  0  0  0  0
    8.1200   -3.1337    0.0000 H   0  0  0  0  0  0  0  0  0  0  0  0
    9.5323   -0.7092    0.0000 H   0  0  0  0  0  0  0  0  0  0  0  0
    9.5261   -2.3292    0.0000 H   0  0  0  0  0  0  0  0  0  0  0  0
    1.3800   -1.9863    0.0000 H   0  0  0  0  0  0  0  0  0  0  0  0
    2.0000   -2.6063    0.0000 H   0  0  0  0  0  0  0  0  0  0  0  0
    2.6200   -1.9863    0.0000 H   0  0  0  0  0  0  0  0  0  0  0  0
  1  6  1  0  0  0  0
  1 12  1  0  0  0  0
  2  7  1  0  0  0  0
  2 18  1  0  0  0  0
  3  9  1  0  0  0  0
  3 22  1  0  0  0  0
  4 11  2  0  0  0  0
  5  6  1  0  0  0  0
  5  7  2  0  0  0  0
  5 11  1  0  0  0  0
  6 10  2  0  0  0  0
  7  8  1  0  0  0  0
  8  9  2  0  0  0  0
  8 14  1  0  0  0  0
  9 10  1  0  0  0  0
 10 23  1  0  0  0  0
 11 13  1  0  0  0  0
 12 13  2  0  0  0  0
 12 15  1  0  0  0  0
 13 24  1  0  0  0  0
 14 25  1  0  0  0  0
 14 26  1  0  0  0  0
 14 27  1  0  0  0  0
 15 16  2  0  0  0  0
 15 17  1  0  0  0  0
 16 19  1  0  0  0  0
 16 28  1  0  0  0  0
 17 20  2  0  0  0  0
 17 29  1  0  0  0  0
 18 30  1  0  0  0  0
 18 31  1  0  0  0  0
 18 32  1  0  0  0  0
 19 21  2  0  0  0  0
 19 33  1  0  0  0  0
 20 21  1  0  0  0  0
 20 34  1  0  0  0  0
 21 35  1  0  0  0  0
 22 36  1  0  0  0  0
 22 37  1  0  0  0  0
 22 38  1  0  0  0  0
M  END
>  <PUBCHEM_COMPOUND_CID>
44257640

>  <PUBCHEM_COMPOUND_CANONICALIZED>
1

>  <PUBCHEM_CACTVS_COMPLEXITY>
438

>  <PUBCHEM_CACTVS_HBOND_ACCEPTOR>
4

>  <PUBCHEM_CACTVS_HBOND_DONOR>
0

>  <PUBCHEM_CACTVS_ROTATABLE_BOND>
3

>  <PUBCHEM_CACTVS_SUBSKEYS>
AAADceB4OAAAAAAAAAAAAAAAAAAAAAAAAAAwYIAAAAAAAACBQAAAGgAAAAAADASAmAIyBoAABACIAqBSAAACCAAkIAAIiAEGCMgMJzaENRqCOWCl4BUIqQeI7OzOIAACCAAIAABAAAQQABAAAAAAAAAAAA==

>  <PUBCHEM_IUPAC_OPENEYE_NAME>
5,7-dimethoxy-6-methyl-2-phenyl-chromen-4-one

>  <PUBCHEM_IUPAC_CAS_NAME>
5,7-dimethoxy-6-methyl-2-phenyl-1-benzopyran-4-one

>  <PUBCHEM_IUPAC_NAME>
5,7-dimethoxy-6-methyl-2-phenylchromen-4-one

>  <PUBCHEM_IUPAC_SYSTEMATIC_NAME>
5,7-dimethoxy-6-methyl-2-phenyl-chromen-4-one

>  <PUBCHEM_IUPAC_TRADITIONAL_NAME>
5,7-dimethoxy-6-methyl-2-phenyl-chromone

>  <PUBCHEM_IUPAC_INCHI>
InChI=1S/C18H16O4/c1-11-14(20-2)10-16-17(18(11)21-3)13(19)9-15(22-16)12-7-5-4-6-8-12/h4-10H,1-3H3

>  <PUBCHEM_IUPAC_INCHIKEY>
LDGCKWYSZUGWHS-UHFFFAOYSA-N

>  <PUBCHEM_XLOGP3_AA>
3.5

>  <PUBCHEM_EXACT_MASS>
296.105

>  <PUBCHEM_MOLECULAR_FORMULA>
C18H16O4

>  <PUBCHEM_MOLECULAR_WEIGHT>
296.322

>  <PUBCHEM_OPENEYE_CAN_SMILES>
CC1=C(C=C2C(=C1OC)C(=O)C=C(O2)C3=CC=CC=C3)OC

>  <PUBCHEM_OPENEYE_ISO_SMILES>
CC1=C(C=C2C(=C1OC)C(=O)C=C(O2)C3=CC=CC=C3)OC

>  <PUBCHEM_CACTVS_TPSA>
44.8

>  <PUBCHEM_MONOISOTOPIC_WEIGHT>
296.105

>  <PUBCHEM_TOTAL_CHARGE>
0

>  <PUBCHEM_HEAVY_ATOM_COUNT>
22

>  <PUBCHEM_ATOM_DEF_STEREO_COUNT>
0

>  <PUBCHEM_ATOM_UDEF_STEREO_COUNT>
0

>  <PUBCHEM_BOND_DEF_STEREO_COUNT>
0

>  <PUBCHEM_BOND_UDEF_STEREO_COUNT>
0

>  <PUBCHEM_ISOTOPIC_ATOM_COUNT>
0

>  <PUBCHEM_COMPONENT_COUNT>
1

>  <PUBCHEM_CACTVS_TAUTO_COUNT>
1

>  <PUBCHEM_COORDINATE_TYPE>
1
5
255

>  <PUBCHEM_BONDANNOTATIONS>
1  12  8
1  6  8
11  13  8
12  13  8
15  16  8
15  17  8
16  19  8
17  20  8
19  21  8
20  21  8
5  11  8
5  6  8
5  7  8
6  10  8
7  8  8
8  9  8
9  10  8

$$$$
