44257580
 OpenBabel06101807152D

 69 71  0  0  0  0  0  0  0  0999 V2000
    6.0682   -2.2228    0.0000 O   0  0  0  0  0  0  0  0  0  0  0  0
    6.0682    0.7772    0.0000 O   0  0  0  0  0  0  0  0  0  0  0  0
    2.5381   -2.2469    0.0000 O   0  0  0  0  0  0  0  0  0  0  0  0
    6.9343   -3.7228    0.0000 O   0  0  0  0  0  0  0  0  0  0  0  0
   10.3984   -3.7228    0.0000 O   0  0  0  0  0  0  0  0  0  0  0  0
    6.9343   -0.7228    0.0000 C   0  0  0  0  0  0  0  0  0  0  0  0
    5.2022   -1.7228    0.0000 C   0  0  0  0  0  0  0  0  0  0  0  0
    5.2022   -0.7228    0.0000 C   0  0  0  0  0  0  0  0  0  0  0  0
    7.8003   -0.2228    0.0000 C   0  0  0  0  0  0  0  0  0  0  0  0
    6.9343   -1.7228    0.0000 C   0  0  0  0  0  0  0  0  0  0  0  0
    4.3083   -2.2574    0.0000 C   0  0  0  0  0  0  0  0  0  0  0  0
    6.0682   -0.2228    0.0000 C   0  0  0  0  0  0  0  0  0  0  0  0
    4.3198   -3.2574    0.0000 C   0  0  0  0  0  0  0  0  0  0  0  0
    7.8003    0.7772    0.0000 C   0  0  0  0  0  0  0  0  0  0  0  0
    8.6663    1.2772    0.0000 C   0  0  0  0  0  0  0  0  0  0  0  0
    7.8003   -2.2228    0.0000 C   0  0  0  0  0  0  0  0  0  0  0  0
    4.3083   -0.1881    0.0000 C   0  0  0  0  0  0  0  0  0  0  0  0
    3.4022   -1.7436    0.0000 C   0  0  0  0  0  0  0  0  0  0  0  0
    8.6663    2.2772    0.0000 C   0  0  0  0  0  0  0  0  0  0  0  0
    3.4022   -0.7019    0.0000 C   0  0  0  0  0  0  0  0  0  0  0  0
    9.5323    2.7772    0.0000 C   0  0  0  0  0  0  0  0  0  0  0  0
    3.4597   -3.7673    0.0000 C   0  0  0  0  0  0  0  0  0  0  0  0
    7.8003   -3.2228    0.0000 C   0  0  0  0  0  0  0  0  0  0  0  0
    9.5323    0.7772    0.0000 C   0  0  0  0  0  0  0  0  0  0  0  0
    8.6663   -1.7228    0.0000 C   0  0  0  0  0  0  0  0  0  0  0  0
    9.5323    3.7772    0.0000 C   0  0  0  0  0  0  0  0  0  0  0  0
    3.4712   -4.7673    0.0000 C   0  0  0  0  0  0  0  0  0  0  0  0
    8.6663   -3.7228    0.0000 C   0  0  0  0  0  0  0  0  0  0  0  0
    9.5323   -2.2228    0.0000 C   0  0  0  0  0  0  0  0  0  0  0  0
    9.5323   -3.2228    0.0000 C   0  0  0  0  0  0  0  0  0  0  0  0
   10.3984    4.2772    0.0000 C   0  0  0  0  0  0  0  0  0  0  0  0
    2.6110   -5.2772    0.0000 C   0  0  0  0  0  0  0  0  0  0  0  0
    4.3430   -5.2572    0.0000 C   0  0  0  0  0  0  0  0  0  0  0  0
   10.3984    5.2772    0.0000 C   0  0  0  0  0  0  0  0  0  0  0  0
   11.2644    3.7772    0.0000 C   0  0  0  0  0  0  0  0  0  0  0  0
    8.0124   -0.8054    0.0000 H   0  0  0  0  0  0  0  0  0  0  0  0
    8.4109   -0.1151    0.0000 H   0  0  0  0  0  0  0  0  0  0  0  0
    4.5386   -3.8375    0.0000 H   0  0  0  0  0  0  0  0  0  0  0  0
    4.9291   -3.1426    0.0000 H   0  0  0  0  0  0  0  0  0  0  0  0
    7.2634    1.0872    0.0000 H   0  0  0  0  0  0  0  0  0  0  0  0
    4.3154    0.4319    0.0000 H   0  0  0  0  0  0  0  0  0  0  0  0
    8.4543    2.8598    0.0000 H   0  0  0  0  0  0  0  0  0  0  0  0
    8.0558    2.1696    0.0000 H   0  0  0  0  0  0  0  0  0  0  0  0
    2.8665   -0.3899    0.0000 H   0  0  0  0  0  0  0  0  0  0  0  0
    9.7444    2.1946    0.0000 H   0  0  0  0  0  0  0  0  0  0  0  0
   10.1429    2.8849    0.0000 H   0  0  0  0  0  0  0  0  0  0  0  0
    2.9192   -3.4636    0.0000 H   0  0  0  0  0  0  0  0  0  0  0  0
    9.2224    0.2403    0.0000 H   0  0  0  0  0  0  0  0  0  0  0  0
   10.0693    0.4672    0.0000 H   0  0  0  0  0  0  0  0  0  0  0  0
    9.8424    1.3142    0.0000 H   0  0  0  0  0  0  0  0  0  0  0  0
    8.6663   -1.1028    0.0000 H   0  0  0  0  0  0  0  0  0  0  0  0
    8.9954    4.0872    0.0000 H   0  0  0  0  0  0  0  0  0  0  0  0
    8.6663   -4.3428    0.0000 H   0  0  0  0  0  0  0  0  0  0  0  0
   10.0693   -1.9128    0.0000 H   0  0  0  0  0  0  0  0  0  0  0  0
    2.0000   -1.9390    0.0000 H   0  0  0  0  0  0  0  0  0  0  0  0
    2.2948   -4.7439    0.0000 H   0  0  0  0  0  0  0  0  0  0  0  0
    2.0777   -5.5934    0.0000 H   0  0  0  0  0  0  0  0  0  0  0  0
    2.9272   -5.8106    0.0000 H   0  0  0  0  0  0  0  0  0  0  0  0
    4.0392   -5.7977    0.0000 H   0  0  0  0  0  0  0  0  0  0  0  0
    4.8835   -5.5610    0.0000 H   0  0  0  0  0  0  0  0  0  0  0  0
    4.6468   -4.7167    0.0000 H   0  0  0  0  0  0  0  0  0  0  0  0
    6.9343   -4.3428    0.0000 H   0  0  0  0  0  0  0  0  0  0  0  0
   11.0184    5.2772    0.0000 H   0  0  0  0  0  0  0  0  0  0  0  0
   10.3984    5.8972    0.0000 H   0  0  0  0  0  0  0  0  0  0  0  0
    9.7784    5.2772    0.0000 H   0  0  0  0  0  0  0  0  0  0  0  0
   10.9544    3.2403    0.0000 H   0  0  0  0  0  0  0  0  0  0  0  0
   11.8013    3.4672    0.0000 H   0  0  0  0  0  0  0  0  0  0  0  0
   11.5744    4.3142    0.0000 H   0  0  0  0  0  0  0  0  0  0  0  0
   10.9353   -3.4128    0.0000 H   0  0  0  0  0  0  0  0  0  0  0  0
  1  7  1  0  0  0  0
  1 10  1  0  0  0  0
  2 12  2  0  0  0  0
  3 18  1  0  0  0  0
  3 55  1  0  0  0  0
  4 23  1  0  0  0  0
  4 62  1  0  0  0  0
  5 30  1  0  0  0  0
  5 69  1  0  0  0  0
  6  9  1  0  0  0  0
  6 10  2  0  0  0  0
  6 12  1  0  0  0  0
  7  8  2  0  0  0  0
  7 11  1  0  0  0  0
  8 12  1  0  0  0  0
  8 17  1  0  0  0  0
  9 14  1  0  0  0  0
  9 36  1  0  0  0  0
  9 37  1  0  0  0  0
 10 16  1  0  0  0  0
 11 13  1  0  0  0  0
 11 18  2  0  0  0  0
 13 22  1  0  0  0  0
 13 38  1  0  0  0  0
 13 39  1  0  0  0  0
 14 15  2  0  0  0  0
 14 40  1  0  0  0  0
 15 19  1  0  0  0  0
 15 24  1  0  0  0  0
 16 23  2  0  0  0  0
 16 25  1  0  0  0  0
 17 20  2  0  0  0  0
 17 41  1  0  0  0  0
 18 20  1  0  0  0  0
 19 21  1  0  0  0  0
 19 42  1  0  0  0  0
 19 43  1  0  0  0  0
 20 44  1  0  0  0  0
 21 26  1  0  0  0  0
 21 45  1  0  0  0  0
 21 46  1  0  0  0  0
 22 27  2  0  0  0  0
 22 47  1  0  0  0  0
 23 28  1  0  0  0  0
 24 48  1  0  0  0  0
 24 49  1  0  0  0  0
 24 50  1  0  0  0  0
 25 29  2  0  0  0  0
 25 51  1  0  0  0  0
 26 31  2  0  0  0  0
 26 52  1  0  0  0  0
 27 32  1  0  0  0  0
 27 33  1  0  0  0  0
 28 30  2  0  0  0  0
 28 53  1  0  0  0  0
 29 30  1  0  0  0  0
 29 54  1  0  0  0  0
 31 34  1  0  0  0  0
 31 35  1  0  0  0  0
 32 56  1  0  0  0  0
 32 57  1  0  0  0  0
 32 58  1  0  0  0  0
 33 59  1  0  0  0  0
 33 60  1  0  0  0  0
 33 61  1  0  0  0  0
 34 63  1  0  0  0  0
 34 64  1  0  0  0  0
 34 65  1  0  0  0  0
 35 66  1  0  0  0  0
 35 67  1  0  0  0  0
 35 68  1  0  0  0  0
M  END
>  <PUBCHEM_COMPOUND_CID>
44257580

>  <PUBCHEM_COMPOUND_CANONICALIZED>
1

>  <PUBCHEM_CACTVS_COMPLEXITY>
871

>  <PUBCHEM_CACTVS_HBOND_ACCEPTOR>
5

>  <PUBCHEM_CACTVS_HBOND_DONOR>
3

>  <PUBCHEM_CACTVS_ROTATABLE_BOND>
8

>  <PUBCHEM_CACTVS_SUBSKEYS>
AAADcfB4OAAAAAAAAAAAAAAAAAAAAAAAAAAwYIAAAAAAAACBQAAAGgAACAAADASAmAAyBoAABgCIAqBSAAACCAAkIAAIiAEGCMgMJzaGNRqCeWCl4BUIuYeI7OzOIAACCAAIAABAAAQQABAAAAAAAAAAAA==

>  <PUBCHEM_IUPAC_OPENEYE_NAME>
2-(2,4-dihydroxyphenyl)-3-[(2E)-3,7-dimethylocta-2,6-dienyl]-7-hydroxy-8-(3-methylbut-2-enyl)chromen-4-one

>  <PUBCHEM_IUPAC_CAS_NAME>
2-(2,4-dihydroxyphenyl)-3-[(2E)-3,7-dimethylocta-2,6-dienyl]-7-hydroxy-8-(3-methylbut-2-enyl)-1-benzopyran-4-one

>  <PUBCHEM_IUPAC_NAME>
2-(2,4-dihydroxyphenyl)-3-[(2E)-3,7-dimethylocta-2,6-dienyl]-7-hydroxy-8-(3-methylbut-2-enyl)chromen-4-one

>  <PUBCHEM_IUPAC_SYSTEMATIC_NAME>
2-[2,4-bis(oxidanyl)phenyl]-3-[(2E)-3,7-dimethylocta-2,6-dienyl]-8-(3-methylbut-2-enyl)-7-oxidanyl-chromen-4-one

>  <PUBCHEM_IUPAC_TRADITIONAL_NAME>
2-(2,4-dihydroxyphenyl)-3-[(2E)-3,7-dimethylocta-2,6-dienyl]-7-hydroxy-8-(3-methylbut-2-enyl)chromone

>  <PUBCHEM_IUPAC_INCHI>
InChI=1S/C30H34O5/c1-18(2)7-6-8-20(5)10-13-24-28(34)25-15-16-26(32)22(12-9-19(3)4)29(25)35-30(24)23-14-11-21(31)17-27(23)33/h7,9-11,14-17,31-33H,6,8,12-13H2,1-5H3/b20-10+

>  <PUBCHEM_IUPAC_INCHIKEY>
HCSUUBNHCMBDJW-KEBDBYFISA-N

>  <PUBCHEM_XLOGP3_AA>
7.8

>  <PUBCHEM_EXACT_MASS>
474.241

>  <PUBCHEM_MOLECULAR_FORMULA>
C30H34O5

>  <PUBCHEM_MOLECULAR_WEIGHT>
474.597

>  <PUBCHEM_OPENEYE_CAN_SMILES>
CC(=CCCC(=CCC1=C(OC2=C(C1=O)C=CC(=C2CC=C(C)C)O)C3=C(C=C(C=C3)O)O)C)C

>  <PUBCHEM_OPENEYE_ISO_SMILES>
CC(=CCC/C(=C/CC1=C(OC2=C(C1=O)C=CC(=C2CC=C(C)C)O)C3=C(C=C(C=C3)O)O)/C)C

>  <PUBCHEM_CACTVS_TPSA>
87

>  <PUBCHEM_MONOISOTOPIC_WEIGHT>
474.241

>  <PUBCHEM_TOTAL_CHARGE>
0

>  <PUBCHEM_HEAVY_ATOM_COUNT>
35

>  <PUBCHEM_ATOM_DEF_STEREO_COUNT>
0

>  <PUBCHEM_ATOM_UDEF_STEREO_COUNT>
0

>  <PUBCHEM_BOND_DEF_STEREO_COUNT>
1

>  <PUBCHEM_BOND_UDEF_STEREO_COUNT>
0

>  <PUBCHEM_ISOTOPIC_ATOM_COUNT>
0

>  <PUBCHEM_COMPONENT_COUNT>
1

>  <PUBCHEM_CACTVS_TAUTO_COUNT>
72

>  <PUBCHEM_COORDINATE_TYPE>
1
5
255

>  <PUBCHEM_BONDANNOTATIONS>
1  10  8
1  7  8
11  18  8
16  23  8
16  25  8
17  20  8
18  20  8
23  28  8
25  29  8
28  30  8
29  30  8
6  10  8
6  12  8
7  11  8
7  8  8
8  12  8
8  17  8

$$$$
