44259040
 OpenBabel06101807152D

 99104  0  0  1  0  0  0  0  0999 V2000
    6.8671   -2.7715    0.0000 O   0  0  0  0  0  0  0  0  0  0  0  0
    7.7331   -0.2715    0.0000 O   0  0  0  0  0  0  0  0  0  0  0  0
    5.1350   -2.7715    0.0000 O   0  0  0  0  0  0  0  0  0  0  0  0
    8.5991   -1.7715    0.0000 O   0  0  0  0  0  0  0  0  0  0  0  0
    5.1350   -1.7715    0.0000 O   0  0  0  0  0  0  0  0  0  0  0  0
    5.1350    0.2285    0.0000 O   0  0  0  0  0  0  0  0  0  0  0  0
    6.8671   -4.7715    0.0000 O   0  0  0  0  0  0  0  0  0  0  0  0
    5.1350   -5.7715    0.0000 O   0  0  0  0  0  0  0  0  0  0  0  0
    3.4030   -4.7715    0.0000 O   0  0  0  0  0  0  0  0  0  0  0  0
   13.8550    3.2702    0.0000 O   0  0  0  0  0  0  0  0  0  0  0  0
    6.0010    1.7285    0.0000 O   0  0  0  0  0  0  0  0  0  0  0  0
    2.5369   -3.2715    0.0000 O   0  0  0  0  0  0  0  0  0  0  0  0
   12.9832    1.7736    0.0000 O   0  0  0  0  0  0  0  0  0  0  0  0
   11.2627    4.7803    0.0000 O   0  0  0  0  0  0  0  0  0  0  0  0
   12.9986    5.7736    0.0000 O   0  0  0  0  0  0  0  0  0  0  0  0
   11.2550    2.7803    0.0000 O   0  0  0  0  0  0  0  0  0  0  0  0
   11.1972   -1.2715    0.0000 O   0  0  0  0  0  0  0  0  0  0  0  0
   15.5909    4.2636    0.0000 O   0  0  0  0  0  0  0  0  0  0  0  0
    8.5991    0.2285    0.0000 O   0  0  0  0  0  0  0  0  0  0  0  0
    9.4434    1.7600    0.0000 O   0  0  0  0  0  0  0  0  0  0  0  0
    6.8671    3.2285    0.0000 O   0  0  0  0  0  0  0  0  0  0  0  0
   10.3312   -5.7715    0.0000 O   0  0  0  0  0  0  0  0  0  0  0  0
    6.8671   -1.7715    0.0000 C   0  0  3  0  0  0  0  0  0  0  0  0
    6.0010   -1.2715    0.0000 C   0  0  2  0  0  0  0  0  0  0  0  0
    6.0010   -0.2715    0.0000 C   0  0  2  0  0  0  0  0  0  0  0  0
    6.0010   -3.2715    0.0000 C   0  0  2  0  0  0  0  0  0  0  0  0
    7.7331   -1.2715    0.0000 C   0  0  1  0  0  0  0  0  0  0  0  0
    6.8671    0.2285    0.0000 C   0  0  3  0  0  0  0  0  0  0  0  0
    6.0010   -4.2715    0.0000 C   0  0  3  0  0  0  0  0  0  0  0  0
    5.1350   -4.7715    0.0000 C   0  0  2  0  0  0  0  0  0  0  0  0
    4.2690   -4.2715    0.0000 C   0  0  1  0  0  0  0  0  0  0  0  0
    4.2690   -3.2715    0.0000 C   0  0  3  0  0  0  0  0  0  0  0  0
    6.8671    1.2285    0.0000 C   0  0  0  0  0  0  0  0  0  0  0  0
    3.4030   -2.7715    0.0000 C   0  0  0  0  0  0  0  0  0  0  0  0
   12.1268    4.2769    0.0000 C   0  0  1  0  0  0  0  0  0  0  0  0
   12.9947    4.7736    0.0000 C   0  0  1  0  0  0  0  0  0  0  0  0
   12.1229    3.2769    0.0000 C   0  0  3  0  0  0  0  0  0  0  0  0
   13.8588    4.2702    0.0000 C   0  0  3  0  0  0  0  0  0  0  0  0
   12.9870    2.7736    0.0000 C   0  0  1  0  0  0  0  0  0  0  0  0
    9.4651   -1.2715    0.0000 C   0  0  0  0  0  0  0  0  0  0  0  0
   14.7268    4.7669    0.0000 C   0  0  0  0  0  0  0  0  0  0  0  0
   10.3312   -1.7715    0.0000 C   0  0  0  0  0  0  0  0  0  0  0  0
    9.4651   -0.2715    0.0000 C   0  0  0  0  0  0  0  0  0  0  0  0
   10.3312    0.2285    0.0000 C   0  0  0  0  0  0  0  0  0  0  0  0
   11.1972   -0.2715    0.0000 C   0  0  0  0  0  0  0  0  0  0  0  0
   12.1152    1.2769    0.0000 C   0  0  0  0  0  0  0  0  0  0  0  0
    6.0010    2.7285    0.0000 C   0  0  0  0  0  0  0  0  0  0  0  0
   12.1072    0.2353    0.0000 C   0  0  0  0  0  0  0  0  0  0  0  0
   10.3151    1.2700    0.0000 C   0  0  0  0  0  0  0  0  0  0  0  0
   10.3312   -2.7715    0.0000 C   0  0  0  0  0  0  0  0  0  0  0  0
   11.2131    1.7978    0.0000 C   0  0  0  0  0  0  0  0  0  0  0  0
    5.1350    3.2285    0.0000 C   0  0  0  0  0  0  0  0  0  0  0  0
   11.1972   -3.2715    0.0000 C   0  0  0  0  0  0  0  0  0  0  0  0
    9.4651   -3.2715    0.0000 C   0  0  0  0  0  0  0  0  0  0  0  0
   11.1972   -4.2715    0.0000 C   0  0  0  0  0  0  0  0  0  0  0  0
    9.4651   -4.2715    0.0000 C   0  0  0  0  0  0  0  0  0  0  0  0
   10.3312   -4.7715    0.0000 C   0  0  0  0  0  0  0  0  0  0  0  0
    7.4040   -2.0815    0.0000 H   0  0  0  0  0  0  0  0  0  0  0  0
    6.0010   -1.8915    0.0000 H   0  0  0  0  0  0  0  0  0  0  0  0
    6.0010    0.3485    0.0000 H   0  0  0  0  0  0  0  0  0  0  0  0
    6.0010   -2.6515    0.0000 H   0  0  0  0  0  0  0  0  0  0  0  0
    8.2700   -0.9615    0.0000 H   0  0  0  0  0  0  0  0  0  0  0  0
    7.4040    0.5385    0.0000 H   0  0  0  0  0  0  0  0  0  0  0  0
    6.0010   -4.8915    0.0000 H   0  0  0  0  0  0  0  0  0  0  0  0
    4.5981   -5.0815    0.0000 H   0  0  0  0  0  0  0  0  0  0  0  0
    3.7320   -3.9615    0.0000 H   0  0  0  0  0  0  0  0  0  0  0  0
    4.2690   -2.6515    0.0000 H   0  0  0  0  0  0  0  0  0  0  0  0
    7.4776    1.1208    0.0000 H   0  0  0  0  0  0  0  0  0  0  0  0
    7.0791    1.8111    0.0000 H   0  0  0  0  0  0  0  0  0  0  0  0
    3.8015   -2.2966    0.0000 H   0  0  0  0  0  0  0  0  0  0  0  0
    3.0044   -2.2966    0.0000 H   0  0  0  0  0  0  0  0  0  0  0  0
    4.5981   -1.4615    0.0000 H   0  0  0  0  0  0  0  0  0  0  0  0
    5.1350    0.8485    0.0000 H   0  0  0  0  0  0  0  0  0  0  0  0
   12.1292    4.8969    0.0000 H   0  0  0  0  0  0  0  0  0  0  0  0
   13.5329    5.0815    0.0000 H   0  0  0  0  0  0  0  0  0  0  0  0
    7.4040   -4.4615    0.0000 H   0  0  0  0  0  0  0  0  0  0  0  0
   11.5872    3.5890    0.0000 H   0  0  0  0  0  0  0  0  0  0  0  0
   14.3946    3.9582    0.0000 H   0  0  0  0  0  0  0  0  0  0  0  0
    5.6720   -6.0815    0.0000 H   0  0  0  0  0  0  0  0  0  0  0  0
    3.4030   -5.3915    0.0000 H   0  0  0  0  0  0  0  0  0  0  0  0
   12.4489    2.4657    0.0000 H   0  0  0  0  0  0  0  0  0  0  0  0
   15.1271    5.2403    0.0000 H   0  0  0  0  0  0  0  0  0  0  0  0
   14.3301    5.2434    0.0000 H   0  0  0  0  0  0  0  0  0  0  0  0
    2.0000   -2.9615    0.0000 H   0  0  0  0  0  0  0  0  0  0  0  0
   11.2651    5.4002    0.0000 H   0  0  0  0  0  0  0  0  0  0  0  0
   13.5367    6.0815    0.0000 H   0  0  0  0  0  0  0  0  0  0  0  0
   10.7192    3.0923    0.0000 H   0  0  0  0  0  0  0  0  0  0  0  0
   12.6405   -0.0808    0.0000 H   0  0  0  0  0  0  0  0  0  0  0  0
   11.2108    2.4178    0.0000 H   0  0  0  0  0  0  0  0  0  0  0  0
   16.1290    4.5715    0.0000 H   0  0  0  0  0  0  0  0  0  0  0  0
    5.4450    3.7654    0.0000 H   0  0  0  0  0  0  0  0  0  0  0  0
    4.5981    3.5385    0.0000 H   0  0  0  0  0  0  0  0  0  0  0  0
    4.8250    2.6916    0.0000 H   0  0  0  0  0  0  0  0  0  0  0  0
   11.7341   -2.9615    0.0000 H   0  0  0  0  0  0  0  0  0  0  0  0
    8.9282   -2.9615    0.0000 H   0  0  0  0  0  0  0  0  0  0  0  0
    9.4362    2.3799    0.0000 H   0  0  0  0  0  0  0  0  0  0  0  0
   11.7341   -4.5815    0.0000 H   0  0  0  0  0  0  0  0  0  0  0  0
    8.9282   -4.5815    0.0000 H   0  0  0  0  0  0  0  0  0  0  0  0
    9.7942   -6.0815    0.0000 H   0  0  0  0  0  0  0  0  0  0  0  0
  1 23  1  0  0  0  0
  2 27  1  0  0  0  0
  2 28  1  0  0  0  0
  3 26  1  0  0  0  0
  3 32  1  0  0  0  0
  4 40  1  0  0  0  0
  5 72  1  0  0  0  0
  6 73  1  0  0  0  0
  7 29  1  0  0  0  0
  7 76  1  0  0  0  0
  8 79  1  0  0  0  0
  9 80  1  0  0  0  0
 10 38  1  0  0  0  0
 10 39  1  0  0  0  0
 11 33  1  0  0  0  0
 11 47  1  0  0  0  0
 12 34  1  0  0  0  0
 12 84  1  0  0  0  0
 13 46  1  0  0  0  0
 14 85  1  0  0  0  0
 15 86  1  0  0  0  0
 16 37  1  0  0  0  0
 16 87  1  0  0  0  0
 17 42  1  0  0  0  0
 17 45  1  0  0  0  0
 18 41  1  0  0  0  0
 18 90  1  0  0  0  0
 19 43  2  0  0  0  0
 20 49  1  0  0  0  0
 20 96  1  0  0  0  0
 21 47  2  0  0  0  0
 22 57  1  0  0  0  0
 22 99  1  0  0  0  0
 23 58  1  0  0  0  0
 24  5  1  0  0  0  0
 24 23  1  1  0  0  0
 24 59  1  0  0  0  0
 25  6  1  0  0  0  0
 25 24  1  6  0  0  0
 25 28  1  0  0  0  0
 25 60  1  0  0  0  0
 26  1  1  0  0  0  0
 26 29  1  6  0  0  0
 26 61  1  0  0  0  0
 27  4  1  0  0  0  0
 27 23  1  6  0  0  0
 27 62  1  0  0  0  0
 28 33  1  0  0  0  0
 28 63  1  0  0  0  0
 29 64  1  0  0  0  0
 30  8  1  0  0  0  0
 30 29  1  6  0  0  0
 30 65  1  0  0  0  0
 31  9  1  0  0  0  0
 31 30  1  1  0  0  0
 31 32  1  0  0  0  0
 31 66  1  0  0  0  0
 32 34  1  0  0  0  0
 32 67  1  0  0  0  0
 33 68  1  0  0  0  0
 33 69  1  0  0  0  0
 34 70  1  0  0  0  0
 34 71  1  0  0  0  0
 35 14  1  0  0  0  0
 35 36  1  1  0  0  0
 35 37  1  0  0  0  0
 35 74  1  0  0  0  0
 36 15  1  0  0  0  0
 36 38  1  6  0  0  0
 36 75  1  0  0  0  0
 37 77  1  0  0  0  0
 38 41  1  0  0  0  0
 38 78  1  0  0  0  0
 39 13  1  0  0  0  0
 39 37  1  1  0  0  0
 39 81  1  0  0  0  0
 40 42  2  0  0  0  0
 40 43  1  0  0  0  0
 41 82  1  0  0  0  0
 41 83  1  0  0  0  0
 42 50  1  0  0  0  0
 43 44  1  0  0  0  0
 44 45  1  0  0  0  0
 44 49  2  0  0  0  0
 45 48  2  0  0  0  0
 46 48  1  0  0  0  0
 46 51  2  0  0  0  0
 47 52  1  0  0  0  0
 48 88  1  0  0  0  0
 49 51  1  0  0  0  0
 50 53  2  0  0  0  0
 50 54  1  0  0  0  0
 51 89  1  0  0  0  0
 52 91  1  0  0  0  0
 52 92  1  0  0  0  0
 52 93  1  0  0  0  0
 53 55  1  0  0  0  0
 53 94  1  0  0  0  0
 54 56  2  0  0  0  0
 54 95  1  0  0  0  0
 55 57  2  0  0  0  0
 55 97  1  0  0  0  0
 56 57  1  0  0  0  0
 56 98  1  0  0  0  0
M  END
>  <PUBCHEM_COMPOUND_CID>
44259040

>  <PUBCHEM_COMPOUND_CANONICALIZED>
1

>  <PUBCHEM_CACTVS_COMPLEXITY>
1410

>  <PUBCHEM_CACTVS_HBOND_ACCEPTOR>
22

>  <PUBCHEM_CACTVS_HBOND_DONOR>
12

>  <PUBCHEM_CACTVS_ROTATABLE_BOND>
12

>  <PUBCHEM_CACTVS_SUBSKEYS>
AAADcfB8PgAAAAAAAAAAAAAAAAAAAAAAAAA0aJECAAAAAACBQAAAGgAACAAADBSwmAMyDoAABgCIAqDSCAICCAAkIAAIiAFGCMgdNzaGNR6ieWCl4BUPuQfI7KzOIAAACAAIAABAAAAQABAAAAAAAAAAAA==

>  <PUBCHEM_IUPAC_OPENEYE_NAME>
[(3R,4S,6S)-3,4-dihydroxy-6-[5-hydroxy-2-(4-hydroxyphenyl)-4-oxo-7-[(2S,4S,5S)-3,4,5-trihydroxy-6-(hydroxymethyl)tetrahydropyran-2-yl]oxy-chromen-3-yl]oxy-5-[(2S,4S,5S)-3,4,5-trihydroxy-6-(hydroxymethyl)tetrahydropyran-2-yl]oxy-tetrahydropyran-2-yl]methyl acetate

>  <PUBCHEM_IUPAC_CAS_NAME>
acetic acid [(3R,4S,6S)-3,4-dihydroxy-6-[[5-hydroxy-2-(4-hydroxyphenyl)-4-oxo-7-[[(2S,4S,5S)-3,4,5-trihydroxy-6-(hydroxymethyl)-2-oxanyl]oxy]-1-benzopyran-3-yl]oxy]-5-[[(2S,4S,5S)-3,4,5-trihydroxy-6-(hydroxymethyl)-2-oxanyl]oxy]-2-oxanyl]methyl ester

>  <PUBCHEM_IUPAC_NAME>
[(3R,4S,6S)-3,4-dihydroxy-6-[5-hydroxy-2-(4-hydroxyphenyl)-4-oxo-7-[(2S,4S,5S)-3,4,5-trihydroxy-6-(hydroxymethyl)oxan-2-yl]oxychromen-3-yl]oxy-5-[(2S,4S,5S)-3,4,5-trihydroxy-6-(hydroxymethyl)oxan-2-yl]oxyoxan-2-yl]methyl acetate

>  <PUBCHEM_IUPAC_SYSTEMATIC_NAME>
[(3R,4S,6S)-5-[(2S,4S,5S)-6-(hydroxymethyl)-3,4,5-tris(oxidanyl)oxan-2-yl]oxy-6-[7-[(2S,4S,5S)-6-(hydroxymethyl)-3,4,5-tris(oxidanyl)oxan-2-yl]oxy-2-(4-hydroxyphenyl)-5-oxidanyl-4-oxidanylidene-chromen-3-yl]oxy-3,4-bis(oxidanyl)oxan-2-yl]methyl ethanoate

>  <PUBCHEM_IUPAC_TRADITIONAL_NAME>
acetic acid [(3R,4S,6S)-3,4-dihydroxy-6-[5-hydroxy-2-(4-hydroxyphenyl)-4-keto-7-[(2S,4S,5S)-3,4,5-trihydroxy-6-methylol-tetrahydropyran-2-yl]oxy-chromen-3-yl]oxy-5-[(2S,4S,5S)-3,4,5-trihydroxy-6-methylol-tetrahydropyran-2-yl]oxy-tetrahydropyran-2-yl]methyl ester

>  <PUBCHEM_IUPAC_INCHI>
InChI=1S/C35H42O22/c1-11(38)50-10-19-23(43)27(47)32(57-34-29(49)26(46)22(42)18(9-37)54-34)35(55-19)56-31-24(44)20-15(40)6-14(51-33-28(48)25(45)21(41)17(8-36)53-33)7-16(20)52-30(31)12-2-4-13(39)5-3-12/h2-7,17-19,21-23,25-29,32-37,39-43,45-49H,8-10H2,1H3/t17?,18?,19?,21-,22-,23+,25+,26+,27+,28?,29?,32?,33-,34+,35+/m1/s1

>  <PUBCHEM_IUPAC_INCHIKEY>
DQCLINUMJUZKAR-DTRLZUIWSA-N

>  <PUBCHEM_XLOGP3_AA>
-2.7

>  <PUBCHEM_EXACT_MASS>
814.217

>  <PUBCHEM_MOLECULAR_FORMULA>
C35H42O22

>  <PUBCHEM_MOLECULAR_WEIGHT>
814.699

>  <PUBCHEM_OPENEYE_CAN_SMILES>
CC(=O)OCC1C(C(C(C(O1)OC2=C(OC3=CC(=CC(=C3C2=O)O)OC4C(C(C(C(O4)CO)O)O)O)C5=CC=C(C=C5)O)OC6C(C(C(C(O6)CO)O)O)O)O)O

>  <PUBCHEM_OPENEYE_ISO_SMILES>
CC(=O)OCC1[C@@H]([C@@H](C([C@@H](O1)OC2=C(OC3=CC(=CC(=C3C2=O)O)O[C@H]4C([C@H]([C@@H](C(O4)CO)O)O)O)C5=CC=C(C=C5)O)O[C@H]6C([C@H]([C@@H](C(O6)CO)O)O)O)O)O

>  <PUBCHEM_CACTVS_TPSA>
351

>  <PUBCHEM_MONOISOTOPIC_WEIGHT>
814.217

>  <PUBCHEM_TOTAL_CHARGE>
0

>  <PUBCHEM_HEAVY_ATOM_COUNT>
57

>  <PUBCHEM_ATOM_DEF_STEREO_COUNT>
9

>  <PUBCHEM_ATOM_UDEF_STEREO_COUNT>
6

>  <PUBCHEM_BOND_DEF_STEREO_COUNT>
0

>  <PUBCHEM_BOND_UDEF_STEREO_COUNT>
0

>  <PUBCHEM_ISOTOPIC_ATOM_COUNT>
0

>  <PUBCHEM_COMPONENT_COUNT>
1

>  <PUBCHEM_CACTVS_TAUTO_COUNT>
24

>  <PUBCHEM_COORDINATE_TYPE>
1
5
255

>  <PUBCHEM_BONDANNOTATIONS>
23  1  3
26  1  5
39  13  5
35  14  5
36  15  6
37  16  3
17  42  8
17  45  8
28  33  3
32  34  3
38  41  3
27  4  5
40  42  8
40  43  8
43  44  8
44  45  8
44  49  8
45  48  8
46  48  8
46  51  8
49  51  8
24  5  5
50  53  8
50  54  8
53  55  8
54  56  8
55  57  8
56  57  8
25  6  5
29  7  3
30  8  5
31  9  6

$$$$
