44258536
 OpenBabel06101807152D

 39 41  0  0  0  0  0  0  0  0999 V2000
    6.3580   -0.6126    0.0000 O   0  0  0  0  0  0  0  0  0  0  0  0
    2.8660    1.4221    0.0000 O   0  0  0  0  0  0  0  0  0  0  0  0
    4.5981    2.4221    0.0000 O   0  0  0  0  0  0  0  0  0  0  0  0
   10.7282   -0.1121    0.0000 O   0  0  0  0  0  0  0  0  0  0  0  0
    2.8660   -0.5779    0.0000 O   0  0  0  0  0  0  0  0  0  0  0  0
    6.3465    2.4567    0.0000 O   0  0  0  0  0  0  0  0  0  0  0  0
    7.2564   -2.0987    0.0000 O   0  0  0  0  0  0  0  0  0  0  0  0
   10.7205   -2.1121    0.0000 O   0  0  0  0  0  0  0  0  0  0  0  0
    5.4641    0.9221    0.0000 C   0  0  0  0  0  0  0  0  0  0  0  0
    5.4641   -0.0779    0.0000 C   0  0  0  0  0  0  0  0  0  0  0  0
    7.2641   -0.0987    0.0000 C   0  0  0  0  0  0  0  0  0  0  0  0
    8.1282   -0.6021    0.0000 C   0  0  0  0  0  0  0  0  0  0  0  0
    6.3580    1.4567    0.0000 C   0  0  0  0  0  0  0  0  0  0  0  0
    4.5981    1.4221    0.0000 C   0  0  0  0  0  0  0  0  0  0  0  0
    7.2641    0.9429    0.0000 C   0  0  0  0  0  0  0  0  0  0  0  0
    4.5981   -0.5779    0.0000 C   0  0  0  0  0  0  0  0  0  0  0  0
    3.7320    0.9221    0.0000 C   0  0  0  0  0  0  0  0  0  0  0  0
    3.7320   -0.0779    0.0000 C   0  0  0  0  0  0  0  0  0  0  0  0
    8.1244   -1.6021    0.0000 C   0  0  0  0  0  0  0  0  0  0  0  0
    8.9962   -0.1054    0.0000 C   0  0  0  0  0  0  0  0  0  0  0  0
    9.8602   -0.6088    0.0000 C   0  0  0  0  0  0  0  0  0  0  0  0
    8.9884   -2.1054    0.0000 C   0  0  0  0  0  0  0  0  0  0  0  0
    9.8564   -1.6087    0.0000 C   0  0  0  0  0  0  0  0  0  0  0  0
    2.0000    0.9221    0.0000 C   0  0  0  0  0  0  0  0  0  0  0  0
   10.7320    0.8879    0.0000 C   0  0  0  0  0  0  0  0  0  0  0  0
    7.7998    1.2550    0.0000 H   0  0  0  0  0  0  0  0  0  0  0  0
    4.5981   -1.1979    0.0000 H   0  0  0  0  0  0  0  0  0  0  0  0
    8.9985    0.5146    0.0000 H   0  0  0  0  0  0  0  0  0  0  0  0
    8.9860   -2.7254    0.0000 H   0  0  0  0  0  0  0  0  0  0  0  0
    4.0611    2.7321    0.0000 H   0  0  0  0  0  0  0  0  0  0  0  0
    2.8660   -1.1979    0.0000 H   0  0  0  0  0  0  0  0  0  0  0  0
    7.2540   -2.7187    0.0000 H   0  0  0  0  0  0  0  0  0  0  0  0
    1.6900    1.4590    0.0000 H   0  0  0  0  0  0  0  0  0  0  0  0
    1.4631    0.6121    0.0000 H   0  0  0  0  0  0  0  0  0  0  0  0
    2.3100    0.3851    0.0000 H   0  0  0  0  0  0  0  0  0  0  0  0
   10.7181   -2.7321    0.0000 H   0  0  0  0  0  0  0  0  0  0  0  0
   11.3520    0.8855    0.0000 H   0  0  0  0  0  0  0  0  0  0  0  0
   10.7344    1.5079    0.0000 H   0  0  0  0  0  0  0  0  0  0  0  0
   10.1120    0.8903    0.0000 H   0  0  0  0  0  0  0  0  0  0  0  0
  1 10  1  0  0  0  0
  1 11  1  0  0  0  0
  2 17  1  0  0  0  0
  2 24  1  0  0  0  0
  3 14  1  0  0  0  0
  3 30  1  0  0  0  0
  4 21  1  0  0  0  0
  4 25  1  0  0  0  0
  5 18  1  0  0  0  0
  5 31  1  0  0  0  0
  6 13  2  0  0  0  0
  7 19  1  0  0  0  0
  7 32  1  0  0  0  0
  8 23  1  0  0  0  0
  8 36  1  0  0  0  0
  9 10  2  0  0  0  0
  9 13  1  0  0  0  0
  9 14  1  0  0  0  0
 10 16  1  0  0  0  0
 11 12  1  0  0  0  0
 11 15  2  0  0  0  0
 12 19  1  0  0  0  0
 12 20  2  0  0  0  0
 13 15  1  0  0  0  0
 14 17  2  0  0  0  0
 15 26  1  0  0  0  0
 16 18  2  0  0  0  0
 16 27  1  0  0  0  0
 17 18  1  0  0  0  0
 19 22  2  0  0  0  0
 20 21  1  0  0  0  0
 20 28  1  0  0  0  0
 21 23  2  0  0  0  0
 22 23  1  0  0  0  0
 22 29  1  0  0  0  0
 24 33  1  0  0  0  0
 24 34  1  0  0  0  0
 24 35  1  0  0  0  0
 25 37  1  0  0  0  0
 25 38  1  0  0  0  0
 25 39  1  0  0  0  0
M  END
>  <PUBCHEM_COMPOUND_CID>
44258536

>  <PUBCHEM_COMPOUND_CANONICALIZED>
1

>  <PUBCHEM_CACTVS_COMPLEXITY>
535

>  <PUBCHEM_CACTVS_HBOND_ACCEPTOR>
8

>  <PUBCHEM_CACTVS_HBOND_DONOR>
4

>  <PUBCHEM_CACTVS_ROTATABLE_BOND>
3

>  <PUBCHEM_CACTVS_SUBSKEYS>
AAADccB4PAAAAAAAAAAAAAAAAAAAAAAAAAAwYIAAAAAAAACBQAAAGgAACAAADASAmAIyBoAABgCIAqBSAAACCAAkIAAAiAEGiMgNJzaGNBqCeWOl4BULuQfK7LzOIQABCAAIQABCAAIQABCAAAAAAAAAAA==

>  <PUBCHEM_IUPAC_OPENEYE_NAME>
2-(2,4-dihydroxy-5-methoxy-phenyl)-5,7-dihydroxy-6-methoxy-chromen-4-one

>  <PUBCHEM_IUPAC_CAS_NAME>
2-(2,4-dihydroxy-5-methoxyphenyl)-5,7-dihydroxy-6-methoxy-1-benzopyran-4-one

>  <PUBCHEM_IUPAC_NAME>
2-(2,4-dihydroxy-5-methoxyphenyl)-5,7-dihydroxy-6-methoxychromen-4-one

>  <PUBCHEM_IUPAC_SYSTEMATIC_NAME>
6-methoxy-2-[5-methoxy-2,4-bis(oxidanyl)phenyl]-5,7-bis(oxidanyl)chromen-4-one

>  <PUBCHEM_IUPAC_TRADITIONAL_NAME>
2-(2,4-dihydroxy-5-methoxy-phenyl)-5,7-dihydroxy-6-methoxy-chromone

>  <PUBCHEM_IUPAC_INCHI>
InChI=1S/C17H14O8/c1-23-13-3-7(8(18)4-9(13)19)12-5-10(20)15-14(25-12)6-11(21)17(24-2)16(15)22/h3-6,18-19,21-22H,1-2H3

>  <PUBCHEM_IUPAC_INCHIKEY>
BXZSWNFKWJEHAY-UHFFFAOYSA-N

>  <PUBCHEM_XLOGP3_AA>
2.3

>  <PUBCHEM_EXACT_MASS>
346.069

>  <PUBCHEM_MOLECULAR_FORMULA>
C17H14O8

>  <PUBCHEM_MOLECULAR_WEIGHT>
346.291

>  <PUBCHEM_OPENEYE_CAN_SMILES>
COC1=C(C=C(C(=C1)C2=CC(=O)C3=C(C(=C(C=C3O2)O)OC)O)O)O

>  <PUBCHEM_OPENEYE_ISO_SMILES>
COC1=C(C=C(C(=C1)C2=CC(=O)C3=C(C(=C(C=C3O2)O)OC)O)O)O

>  <PUBCHEM_CACTVS_TPSA>
126

>  <PUBCHEM_MONOISOTOPIC_WEIGHT>
346.069

>  <PUBCHEM_TOTAL_CHARGE>
0

>  <PUBCHEM_HEAVY_ATOM_COUNT>
25

>  <PUBCHEM_ATOM_DEF_STEREO_COUNT>
0

>  <PUBCHEM_ATOM_UDEF_STEREO_COUNT>
0

>  <PUBCHEM_BOND_DEF_STEREO_COUNT>
0

>  <PUBCHEM_BOND_UDEF_STEREO_COUNT>
0

>  <PUBCHEM_ISOTOPIC_ATOM_COUNT>
0

>  <PUBCHEM_COMPONENT_COUNT>
1

>  <PUBCHEM_CACTVS_TAUTO_COUNT>
171

>  <PUBCHEM_COORDINATE_TYPE>
1
5
255

>  <PUBCHEM_BONDANNOTATIONS>
1  10  8
1  11  8
10  16  8
11  15  8
12  19  8
12  20  8
13  15  8
14  17  8
16  18  8
17  18  8
19  22  8
20  21  8
21  23  8
22  23  8
9  10  8
9  13  8
9  14  8

$$$$
