44257532
 OpenBabel06101807152D

 42 46  0  0  0  0  0  0  0  0999 V2000
    3.9852   -1.9245    0.0000 O   0  0  0  0  0  0  0  0  0  0  0  0
    7.2192   -0.1905    0.0000 O   0  0  0  0  0  0  0  0  0  0  0  0
    7.4284    2.7813    0.0000 O   0  0  0  0  0  0  0  0  0  0  0  0
    5.6964    2.7813    0.0000 O   0  0  0  0  0  0  0  0  0  0  0  0
   10.9585    2.8054    0.0000 O   0  0  0  0  0  0  0  0  0  0  0  0
    2.9116   -1.8209    0.0000 C   0  0  0  0  0  0  0  0  0  0  0  0
    5.8254    0.6142    0.0000 C   0  0  0  0  0  0  0  0  0  0  0  0
    4.1829   -0.0961    0.0000 C   0  0  0  0  0  0  0  0  0  0  0  0
    4.6049   -1.0417    0.0000 C   0  0  0  0  0  0  0  0  0  0  0  0
    6.2305   -0.2936    0.0000 C   0  0  0  0  0  0  0  0  0  0  0  0
    6.5624    1.2813    0.0000 C   0  0  0  0  0  0  0  0  0  0  0  0
    7.4284    0.7813    0.0000 C   0  0  0  0  0  0  0  0  0  0  0  0
    4.7972    0.7374    0.0000 C   0  0  0  0  0  0  0  0  0  0  0  0
    2.4721   -0.8360    0.0000 C   0  0  0  0  0  0  0  0  0  0  0  0
    5.6356   -1.1411    0.0000 C   0  0  0  0  0  0  0  0  0  0  0  0
    3.1120    0.0322    0.0000 C   0  0  0  0  0  0  0  0  0  0  0  0
    8.2944    1.2813    0.0000 C   0  0  0  0  0  0  0  0  0  0  0  0
    2.0000   -2.2320    0.0000 C   0  0  0  0  0  0  0  0  0  0  0  0
    2.8118   -2.8160    0.0000 C   0  0  0  0  0  0  0  0  0  0  0  0
    8.2944    2.2813    0.0000 C   0  0  0  0  0  0  0  0  0  0  0  0
    6.5624    2.2813    0.0000 C   0  0  0  0  0  0  0  0  0  0  0  0
    9.1884    0.7466    0.0000 C   0  0  0  0  0  0  0  0  0  0  0  0
    9.1884    2.8160    0.0000 C   0  0  0  0  0  0  0  0  0  0  0  0
   10.0944    1.2605    0.0000 C   0  0  0  0  0  0  0  0  0  0  0  0
   10.0944    2.3021    0.0000 C   0  0  0  0  0  0  0  0  0  0  0  0
   11.8265    2.3088    0.0000 C   0  0  0  0  0  0  0  0  0  0  0  0
    4.5512    1.3065    0.0000 H   0  0  0  0  0  0  0  0  0  0  0  0
    1.8557   -0.7693    0.0000 H   0  0  0  0  0  0  0  0  0  0  0  0
    5.8948   -1.7043    0.0000 H   0  0  0  0  0  0  0  0  0  0  0  0
    2.8659    0.6013    0.0000 H   0  0  0  0  0  0  0  0  0  0  0  0
    1.7452   -1.6668    0.0000 H   0  0  0  0  0  0  0  0  0  0  0  0
    1.4348   -2.4868    0.0000 H   0  0  0  0  0  0  0  0  0  0  0  0
    2.2548   -2.7972    0.0000 H   0  0  0  0  0  0  0  0  0  0  0  0
    2.1949   -2.7540    0.0000 H   0  0  0  0  0  0  0  0  0  0  0  0
    2.7499   -3.4328    0.0000 H   0  0  0  0  0  0  0  0  0  0  0  0
    3.4287   -2.8778    0.0000 H   0  0  0  0  0  0  0  0  0  0  0  0
    9.1812    0.1267    0.0000 H   0  0  0  0  0  0  0  0  0  0  0  0
    9.1812    3.4359    0.0000 H   0  0  0  0  0  0  0  0  0  0  0  0
   10.6302    0.9484    0.0000 H   0  0  0  0  0  0  0  0  0  0  0  0
   11.5185    1.7706    0.0000 H   0  0  0  0  0  0  0  0  0  0  0  0
   12.3646    2.0008    0.0000 H   0  0  0  0  0  0  0  0  0  0  0  0
   12.1344    2.8469    0.0000 H   0  0  0  0  0  0  0  0  0  0  0  0
  1  6  1  0  0  0  0
  1  9  1  0  0  0  0
  2 10  1  0  0  0  0
  2 12  1  0  0  0  0
  3 20  1  0  0  0  0
  3 21  1  0  0  0  0
  4 21  2  0  0  0  0
  5 25  1  0  0  0  0
  5 26  1  0  0  0  0
  6 14  1  0  0  0  0
  6 18  1  0  0  0  0
  6 19  1  0  0  0  0
  7 10  2  0  0  0  0
  7 11  1  0  0  0  0
  7 13  1  0  0  0  0
  8  9  1  0  0  0  0
  8 13  2  0  0  0  0
  8 16  1  0  0  0  0
  9 15  2  0  0  0  0
 10 15  1  0  0  0  0
 11 12  2  0  0  0  0
 11 21  1  0  0  0  0
 12 17  1  0  0  0  0
 13 27  1  0  0  0  0
 14 16  2  0  0  0  0
 14 28  1  0  0  0  0
 15 29  1  0  0  0  0
 16 30  1  0  0  0  0
 17 20  2  0  0  0  0
 17 22  1  0  0  0  0
 18 31  1  0  0  0  0
 18 32  1  0  0  0  0
 18 33  1  0  0  0  0
 19 34  1  0  0  0  0
 19 35  1  0  0  0  0
 19 36  1  0  0  0  0
 20 23  1  0  0  0  0
 22 24  2  0  0  0  0
 22 37  1  0  0  0  0
 23 25  2  0  0  0  0
 23 38  1  0  0  0  0
 24 25  1  0  0  0  0
 24 39  1  0  0  0  0
 26 40  1  0  0  0  0
 26 41  1  0  0  0  0
 26 42  1  0  0  0  0
M  END
>  <PUBCHEM_COMPOUND_CID>
44257532

>  <PUBCHEM_COMPOUND_CANONICALIZED>
1

>  <PUBCHEM_CACTVS_COMPLEXITY>
614

>  <PUBCHEM_CACTVS_HBOND_ACCEPTOR>
5

>  <PUBCHEM_CACTVS_HBOND_DONOR>
0

>  <PUBCHEM_CACTVS_ROTATABLE_BOND>
1

>  <PUBCHEM_CACTVS_SUBSKEYS>
AAADceB4OAAAAAAAAAAAAAAAAAAAASAAAAA0YIEAAAAAAEiR9AAAGgAAAAAADESAmAIyDsAABECIAqDSCAACCAAkIAAIiAEGCMgMJzaMNRqCO2Cl4BUIqYfL7PzOoAACCAAIAABAAAQQABAAAAAAAAAAAA==

>  <PUBCHEM_IUPAC_INCHI>
InChI=1S/C21H16O5/c1-21(2)7-6-11-8-14-17(10-15(11)26-21)24-19-13-5-4-12(23-3)9-16(13)25-20(22)18(14)19/h4-10H,1-3H3

>  <PUBCHEM_IUPAC_INCHIKEY>
KIFXUUIGSBVTCM-UHFFFAOYSA-N

>  <PUBCHEM_XLOGP3_AA>
4.4

>  <PUBCHEM_EXACT_MASS>
348.1

>  <PUBCHEM_MOLECULAR_FORMULA>
C21H16O5

>  <PUBCHEM_MOLECULAR_WEIGHT>
348.354

>  <PUBCHEM_OPENEYE_CAN_SMILES>
CC1(C=CC2=C(O1)C=C3C(=C2)C4=C(O3)C5=C(C=C(C=C5)OC)OC4=O)C

>  <PUBCHEM_OPENEYE_ISO_SMILES>
CC1(C=CC2=C(O1)C=C3C(=C2)C4=C(O3)C5=C(C=C(C=C5)OC)OC4=O)C

>  <PUBCHEM_CACTVS_TPSA>
57.9

>  <PUBCHEM_MONOISOTOPIC_WEIGHT>
348.1

>  <PUBCHEM_TOTAL_CHARGE>
0

>  <PUBCHEM_HEAVY_ATOM_COUNT>
26

>  <PUBCHEM_ATOM_DEF_STEREO_COUNT>
0

>  <PUBCHEM_ATOM_UDEF_STEREO_COUNT>
0

>  <PUBCHEM_BOND_DEF_STEREO_COUNT>
0

>  <PUBCHEM_BOND_UDEF_STEREO_COUNT>
0

>  <PUBCHEM_ISOTOPIC_ATOM_COUNT>
0

>  <PUBCHEM_COMPONENT_COUNT>
1

>  <PUBCHEM_CACTVS_TAUTO_COUNT>
1

>  <PUBCHEM_COORDINATE_TYPE>
1
5
255

>  <PUBCHEM_BONDANNOTATIONS>
10  15  8
11  12  8
11  21  8
12  17  8
17  20  8
17  22  8
2  10  8
2  12  8
20  23  8
22  24  8
23  25  8
24  25  8
3  20  8
3  21  8
7  10  8
7  11  8
7  13  8
8  13  8
8  9  8
9  15  8

$$$$
