44257380
 OpenBabel06101807152D

 48 50  0  0  1  0  0  0  0  0999 V2000
    6.0682   -0.1297    0.0000 O   0  0  0  0  0  0  0  0  0  0  0  0
    3.4828   -3.6741    0.0000 O   0  0  0  0  0  0  0  0  0  0  0  0
    6.0682    2.8703    0.0000 O   0  0  0  0  0  0  0  0  0  0  0  0
    2.5381   -0.1538    0.0000 O   0  0  0  0  0  0  0  0  0  0  0  0
    8.6663    0.3703    0.0000 O   0  0  0  0  0  0  0  0  0  0  0  0
   10.3984    3.3703    0.0000 O   0  0  0  0  0  0  0  0  0  0  0  0
    3.4597   -1.6743    0.0000 C   0  0  0  0  0  0  0  0  0  0  0  0
    3.4712   -2.6742    0.0000 C   0  0  0  0  0  0  0  0  0  0  0  0
    4.3198   -1.1643    0.0000 C   0  0  0  0  0  0  0  0  0  0  0  0
    6.9343    1.3703    0.0000 C   0  0  3  0  0  0  0  0  0  0  0  0
    4.3083   -0.1643    0.0000 C   0  0  0  0  0  0  0  0  0  0  0  0
    5.2022    0.3703    0.0000 C   0  0  0  0  0  0  0  0  0  0  0  0
    5.2022    1.3703    0.0000 C   0  0  0  0  0  0  0  0  0  0  0  0
    6.9343    0.3703    0.0000 C   0  0  0  0  0  0  0  0  0  0  0  0
    6.0682    1.8703    0.0000 C   0  0  0  0  0  0  0  0  0  0  0  0
    7.8003    1.8703    0.0000 C   0  0  0  0  0  0  0  0  0  0  0  0
    3.4022    0.3495    0.0000 C   0  0  0  0  0  0  0  0  0  0  0  0
    2.4713   -2.6858    0.0000 C   0  0  0  0  0  0  0  0  0  0  0  0
    4.4712   -2.6626    0.0000 C   0  0  0  0  0  0  0  0  0  0  0  0
    4.3083    1.9050    0.0000 C   0  0  0  0  0  0  0  0  0  0  0  0
    3.4022    1.3911    0.0000 C   0  0  0  0  0  0  0  0  0  0  0  0
    8.6663    1.3703    0.0000 C   0  0  0  0  0  0  0  0  0  0  0  0
    7.8003    2.8703    0.0000 C   0  0  0  0  0  0  0  0  0  0  0  0
    9.5323    1.8703    0.0000 C   0  0  0  0  0  0  0  0  0  0  0  0
    8.6663    3.3703    0.0000 C   0  0  0  0  0  0  0  0  0  0  0  0
    9.5323    2.8703    0.0000 C   0  0  0  0  0  0  0  0  0  0  0  0
    3.2409   -1.0941    0.0000 H   0  0  0  0  0  0  0  0  0  0  0  0
    2.8504   -1.7890    0.0000 H   0  0  0  0  0  0  0  0  0  0  0  0
    6.9343    1.9903    0.0000 H   0  0  0  0  0  0  0  0  0  0  0  0
    4.5386   -1.7444    0.0000 H   0  0  0  0  0  0  0  0  0  0  0  0
    4.9291   -1.0496    0.0000 H   0  0  0  0  0  0  0  0  0  0  0  0
    7.1463   -0.2123    0.0000 H   0  0  0  0  0  0  0  0  0  0  0  0
    7.5449    0.4780    0.0000 H   0  0  0  0  0  0  0  0  0  0  0  0
    2.4641   -2.0658    0.0000 H   0  0  0  0  0  0  0  0  0  0  0  0
    4.4783   -3.2826    0.0000 H   0  0  0  0  0  0  0  0  0  0  0  0
    5.0911   -2.6555    0.0000 H   0  0  0  0  0  0  0  0  0  0  0  0
    4.4640   -2.0427    0.0000 H   0  0  0  0  0  0  0  0  0  0  0  0
    1.8513   -2.6929    0.0000 H   0  0  0  0  0  0  0  0  0  0  0  0
    2.4785   -3.3057    0.0000 H   0  0  0  0  0  0  0  0  0  0  0  0
    4.3154    2.5249    0.0000 H   0  0  0  0  0  0  0  0  0  0  0  0
    2.8665    1.7032    0.0000 H   0  0  0  0  0  0  0  0  0  0  0  0
    2.9495   -3.9903    0.0000 H   0  0  0  0  0  0  0  0  0  0  0  0
    7.2634    3.1803    0.0000 H   0  0  0  0  0  0  0  0  0  0  0  0
   10.0693    1.5603    0.0000 H   0  0  0  0  0  0  0  0  0  0  0  0
    8.6663    3.9903    0.0000 H   0  0  0  0  0  0  0  0  0  0  0  0
    2.0000    0.1541    0.0000 H   0  0  0  0  0  0  0  0  0  0  0  0
    9.2033    0.0603    0.0000 H   0  0  0  0  0  0  0  0  0  0  0  0
   10.3984    3.9903    0.0000 H   0  0  0  0  0  0  0  0  0  0  0  0
  1 12  1  0  0  0  0
  1 14  1  0  0  0  0
  2  8  1  0  0  0  0
  2 42  1  0  0  0  0
  3 15  2  0  0  0  0
  4 17  1  0  0  0  0
  4 46  1  0  0  0  0
  5 22  1  0  0  0  0
  5 47  1  0  0  0  0
  6 26  1  0  0  0  0
  6 48  1  0  0  0  0
  7  8  1  0  0  0  0
  7  9  1  0  0  0  0
  7 27  1  0  0  0  0
  7 28  1  0  0  0  0
  8 18  1  0  0  0  0
  8 19  1  0  0  0  0
  9 11  1  0  0  0  0
  9 30  1  0  0  0  0
  9 31  1  0  0  0  0
 10 14  1  0  0  0  0
 10 15  1  0  0  0  0
 10 16  1  0  0  0  0
 10 29  1  0  0  0  0
 11 12  1  0  0  0  0
 11 17  2  0  0  0  0
 12 13  2  0  0  0  0
 13 15  1  0  0  0  0
 13 20  1  0  0  0  0
 14 32  1  0  0  0  0
 14 33  1  0  0  0  0
 16 22  2  0  0  0  0
 16 23  1  0  0  0  0
 17 21  1  0  0  0  0
 18 34  1  0  0  0  0
 18 38  1  0  0  0  0
 18 39  1  0  0  0  0
 19 35  1  0  0  0  0
 19 36  1  0  0  0  0
 19 37  1  0  0  0  0
 20 21  2  0  0  0  0
 20 40  1  0  0  0  0
 21 41  1  0  0  0  0
 22 24  1  0  0  0  0
 23 25  2  0  0  0  0
 23 43  1  0  0  0  0
 24 26  2  0  0  0  0
 24 44  1  0  0  0  0
 25 26  1  0  0  0  0
 25 45  1  0  0  0  0
M  END
>  <PUBCHEM_COMPOUND_CID>
44257380

>  <PUBCHEM_COMPOUND_CANONICALIZED>
1

>  <PUBCHEM_CACTVS_COMPLEXITY>
507

>  <PUBCHEM_CACTVS_HBOND_ACCEPTOR>
6

>  <PUBCHEM_CACTVS_HBOND_DONOR>
4

>  <PUBCHEM_CACTVS_ROTATABLE_BOND>
4

>  <PUBCHEM_CACTVS_SUBSKEYS>
AAADceB4OAAAAAAAAAAAAAAAAAAAAAAAAAA0YIAAAAAAAACRQAAAGgAACAAADUSgmAIyBoAABgCIAqBSAAACCAAkIAAIiAEGCMgMJzaGNRqCeWCl4BUIuYfK7PzOoAACCAAIAABAAAQQABAAAAAAAAAAAA==

>  <PUBCHEM_IUPAC_OPENEYE_NAME>
3-(2,4-dihydroxyphenyl)-7-hydroxy-8-(3-hydroxy-3-methyl-butyl)chroman-4-one

>  <PUBCHEM_IUPAC_CAS_NAME>
3-(2,4-dihydroxyphenyl)-7-hydroxy-8-(3-hydroxy-3-methylbutyl)-3,4-dihydro-2H-1-benzopyran-4-one

>  <PUBCHEM_IUPAC_NAME>
3-(2,4-dihydroxyphenyl)-7-hydroxy-8-(3-hydroxy-3-methylbutyl)-2,3-dihydrochromen-4-one

>  <PUBCHEM_IUPAC_SYSTEMATIC_NAME>
3-[2,4-bis(oxidanyl)phenyl]-8-(3-methyl-3-oxidanyl-butyl)-7-oxidanyl-2,3-dihydrochromen-4-one

>  <PUBCHEM_IUPAC_TRADITIONAL_NAME>
3-(2,4-dihydroxyphenyl)-7-hydroxy-8-(3-hydroxy-3-methyl-butyl)chroman-4-one

>  <PUBCHEM_IUPAC_INCHI>
InChI=1S/C20H22O6/c1-20(2,25)8-7-13-16(22)6-5-14-18(24)15(10-26-19(13)14)12-4-3-11(21)9-17(12)23/h3-6,9,15,21-23,25H,7-8,10H2,1-2H3

>  <PUBCHEM_IUPAC_INCHIKEY>
BYQKGWSQMLLYGJ-UHFFFAOYSA-N

>  <PUBCHEM_XLOGP3_AA>
2.6

>  <PUBCHEM_EXACT_MASS>
358.142

>  <PUBCHEM_MOLECULAR_FORMULA>
C20H22O6

>  <PUBCHEM_MOLECULAR_WEIGHT>
358.39

>  <PUBCHEM_OPENEYE_CAN_SMILES>
CC(C)(CCC1=C(C=CC2=C1OCC(C2=O)C3=C(C=C(C=C3)O)O)O)O

>  <PUBCHEM_OPENEYE_ISO_SMILES>
CC(C)(CCC1=C(C=CC2=C1OCC(C2=O)C3=C(C=C(C=C3)O)O)O)O

>  <PUBCHEM_CACTVS_TPSA>
107

>  <PUBCHEM_MONOISOTOPIC_WEIGHT>
358.142

>  <PUBCHEM_TOTAL_CHARGE>
0

>  <PUBCHEM_HEAVY_ATOM_COUNT>
26

>  <PUBCHEM_ATOM_DEF_STEREO_COUNT>
0

>  <PUBCHEM_ATOM_UDEF_STEREO_COUNT>
1

>  <PUBCHEM_BOND_DEF_STEREO_COUNT>
0

>  <PUBCHEM_BOND_UDEF_STEREO_COUNT>
0

>  <PUBCHEM_ISOTOPIC_ATOM_COUNT>
0

>  <PUBCHEM_COMPONENT_COUNT>
1

>  <PUBCHEM_CACTVS_TAUTO_COUNT>
127

>  <PUBCHEM_COORDINATE_TYPE>
1
5
255

>  <PUBCHEM_BONDANNOTATIONS>
10  16  3
11  12  8
11  17  8
12  13  8
13  20  8
16  22  8
16  23  8
17  21  8
20  21  8
22  24  8
23  25  8
24  26  8
25  26  8

$$$$
