44257527
 OpenBabel06101807152D

 39 41  0  0  0  0  0  0  0  0999 V2000
    5.4920   -1.9917    0.0000 O   0  0  0  0  0  0  0  0  0  0  0  0
    8.1340   -1.4296    0.0000 O   0  0  0  0  0  0  0  0  0  0  0  0
    9.8544    1.5771    0.0000 O   0  0  0  0  0  0  0  0  0  0  0  0
    9.8622   -0.4229    0.0000 O   0  0  0  0  0  0  0  0  0  0  0  0
    2.0000    0.0429    0.0000 O   0  0  0  0  0  0  0  0  0  0  0  0
    2.0000   -1.9571    0.0000 O   0  0  0  0  0  0  0  0  0  0  0  0
    6.3981   -0.4363    0.0000 C   0  0  0  0  0  0  0  0  0  0  0  0
    7.2622    0.0671    0.0000 C   0  0  0  0  0  0  0  0  0  0  0  0
    6.3981   -1.4779    0.0000 C   0  0  0  0  0  0  0  0  0  0  0  0
    4.5981   -0.4571    0.0000 C   0  0  0  0  0  0  0  0  0  0  0  0
    5.4920    0.0776    0.0000 C   0  0  0  0  0  0  0  0  0  0  0  0
    4.5981   -1.4571    0.0000 C   0  0  0  0  0  0  0  0  0  0  0  0
    8.1301   -0.4296    0.0000 C   0  0  0  0  0  0  0  0  0  0  0  0
    7.2583    1.0671    0.0000 C   0  0  0  0  0  0  0  0  0  0  0  0
    3.7320    0.0429    0.0000 C   0  0  0  0  0  0  0  0  0  0  0  0
    3.7320   -1.9571    0.0000 C   0  0  0  0  0  0  0  0  0  0  0  0
    8.9942    0.0738    0.0000 C   0  0  0  0  0  0  0  0  0  0  0  0
    8.9904    1.0738    0.0000 C   0  0  0  0  0  0  0  0  0  0  0  0
    8.1224    1.5704    0.0000 C   0  0  0  0  0  0  0  0  0  0  0  0
    2.8660   -0.4571    0.0000 C   0  0  0  0  0  0  0  0  0  0  0  0
    2.8660   -1.4571    0.0000 C   0  0  0  0  0  0  0  0  0  0  0  0
    9.0019   -1.9262    0.0000 C   0  0  0  0  0  0  0  0  0  0  0  0
    9.8506    2.5771    0.0000 C   0  0  0  0  0  0  0  0  0  0  0  0
    6.6071   -2.0616    0.0000 H   0  0  0  0  0  0  0  0  0  0  0  0
    7.0089   -1.3718    0.0000 H   0  0  0  0  0  0  0  0  0  0  0  0
    5.4848    0.6975    0.0000 H   0  0  0  0  0  0  0  0  0  0  0  0
    6.7202    1.3750    0.0000 H   0  0  0  0  0  0  0  0  0  0  0  0
    3.7320    0.6629    0.0000 H   0  0  0  0  0  0  0  0  0  0  0  0
    3.7320   -2.5771    0.0000 H   0  0  0  0  0  0  0  0  0  0  0  0
    8.1200    2.1904    0.0000 H   0  0  0  0  0  0  0  0  0  0  0  0
   10.3979   -0.1108    0.0000 H   0  0  0  0  0  0  0  0  0  0  0  0
    8.6940   -2.4644    0.0000 H   0  0  0  0  0  0  0  0  0  0  0  0
    9.5401   -2.2342    0.0000 H   0  0  0  0  0  0  0  0  0  0  0  0
    9.3099   -1.3881    0.0000 H   0  0  0  0  0  0  0  0  0  0  0  0
    2.0000    0.6629    0.0000 H   0  0  0  0  0  0  0  0  0  0  0  0
    2.0000   -2.5771    0.0000 H   0  0  0  0  0  0  0  0  0  0  0  0
   10.4706    2.5795    0.0000 H   0  0  0  0  0  0  0  0  0  0  0  0
    9.8482    3.1971    0.0000 H   0  0  0  0  0  0  0  0  0  0  0  0
    9.2306    2.5747    0.0000 H   0  0  0  0  0  0  0  0  0  0  0  0
  1  9  1  0  0  0  0
  1 12  1  0  0  0  0
  2 13  1  0  0  0  0
  2 22  1  0  0  0  0
  3 18  1  0  0  0  0
  3 23  1  0  0  0  0
  4 17  1  0  0  0  0
  4 31  1  0  0  0  0
  5 20  1  0  0  0  0
  5 35  1  0  0  0  0
  6 21  1  0  0  0  0
  6 36  1  0  0  0  0
  7  8  1  0  0  0  0
  7  9  1  0  0  0  0
  7 11  2  0  0  0  0
  8 13  2  0  0  0  0
  8 14  1  0  0  0  0
  9 24  1  0  0  0  0
  9 25  1  0  0  0  0
 10 11  1  0  0  0  0
 10 12  1  0  0  0  0
 10 15  2  0  0  0  0
 11 26  1  0  0  0  0
 12 16  2  0  0  0  0
 13 17  1  0  0  0  0
 14 19  2  0  0  0  0
 14 27  1  0  0  0  0
 15 20  1  0  0  0  0
 15 28  1  0  0  0  0
 16 21  1  0  0  0  0
 16 29  1  0  0  0  0
 17 18  2  0  0  0  0
 18 19  1  0  0  0  0
 19 30  1  0  0  0  0
 20 21  2  0  0  0  0
 22 32  1  0  0  0  0
 22 33  1  0  0  0  0
 22 34  1  0  0  0  0
 23 37  1  0  0  0  0
 23 38  1  0  0  0  0
 23 39  1  0  0  0  0
M  END
>  <PUBCHEM_COMPOUND_CID>
44257527

>  <PUBCHEM_COMPOUND_CANONICALIZED>
1

>  <PUBCHEM_CACTVS_COMPLEXITY>
439

>  <PUBCHEM_CACTVS_HBOND_ACCEPTOR>
6

>  <PUBCHEM_CACTVS_HBOND_DONOR>
3

>  <PUBCHEM_CACTVS_ROTATABLE_BOND>
3

>  <PUBCHEM_CACTVS_SUBSKEYS>
AAADceB4OAAAAAAAAAAAAAAAAAAAAAAAAAAwYIAAAAAAAACBQAAAGgAACAAADASgmAIyBoAABgCAAiBCAAACCAAgIAAIiAAGiIgNJyKGMRqCeCOlwBULuAfA4LwOIQABCAAIQABCAAIQABCAAAAAAAAAAA==

>  <PUBCHEM_IUPAC_OPENEYE_NAME>
3-(3-hydroxy-2,4-dimethoxy-phenyl)-2H-chromene-6,7-diol

>  <PUBCHEM_IUPAC_CAS_NAME>
3-(3-hydroxy-2,4-dimethoxyphenyl)-2H-1-benzopyran-6,7-diol

>  <PUBCHEM_IUPAC_NAME>
3-(3-hydroxy-2,4-dimethoxyphenyl)-2H-chromene-6,7-diol

>  <PUBCHEM_IUPAC_SYSTEMATIC_NAME>
3-(2,4-dimethoxy-3-oxidanyl-phenyl)-2H-chromene-6,7-diol

>  <PUBCHEM_IUPAC_TRADITIONAL_NAME>
3-(3-hydroxy-2,4-dimethoxy-phenyl)-2H-chromene-6,7-diol

>  <PUBCHEM_IUPAC_INCHI>
InChI=1S/C17H16O6/c1-21-14-4-3-11(17(22-2)16(14)20)10-5-9-6-12(18)13(19)7-15(9)23-8-10/h3-7,18-20H,8H2,1-2H3

>  <PUBCHEM_IUPAC_INCHIKEY>
SSQZVXWYVVNXKO-UHFFFAOYSA-N

>  <PUBCHEM_XLOGP3_AA>
2.3

>  <PUBCHEM_EXACT_MASS>
316.095

>  <PUBCHEM_MOLECULAR_FORMULA>
C17H16O6

>  <PUBCHEM_MOLECULAR_WEIGHT>
316.309

>  <PUBCHEM_OPENEYE_CAN_SMILES>
COC1=C(C(=C(C=C1)C2=CC3=CC(=C(C=C3OC2)O)O)OC)O

>  <PUBCHEM_OPENEYE_ISO_SMILES>
COC1=C(C(=C(C=C1)C2=CC3=CC(=C(C=C3OC2)O)O)OC)O

>  <PUBCHEM_CACTVS_TPSA>
88.4

>  <PUBCHEM_MONOISOTOPIC_WEIGHT>
316.095

>  <PUBCHEM_TOTAL_CHARGE>
0

>  <PUBCHEM_HEAVY_ATOM_COUNT>
23

>  <PUBCHEM_ATOM_DEF_STEREO_COUNT>
0

>  <PUBCHEM_ATOM_UDEF_STEREO_COUNT>
0

>  <PUBCHEM_BOND_DEF_STEREO_COUNT>
0

>  <PUBCHEM_BOND_UDEF_STEREO_COUNT>
0

>  <PUBCHEM_ISOTOPIC_ATOM_COUNT>
0

>  <PUBCHEM_COMPONENT_COUNT>
1

>  <PUBCHEM_CACTVS_TAUTO_COUNT>
62

>  <PUBCHEM_COORDINATE_TYPE>
1
5
255

>  <PUBCHEM_BONDANNOTATIONS>
10  12  8
10  15  8
12  16  8
13  17  8
14  19  8
15  20  8
16  21  8
17  18  8
18  19  8
20  21  8
8  13  8
8  14  8

$$$$
