44257317
 OpenBabel06101807152D

 47 49  0  0  0  0  0  0  0  0999 V2000
    6.0290   -0.6117    0.0000 O   0  0  0  0  0  0  0  0  0  0  0  0
    4.2690    2.4229    0.0000 O   0  0  0  0  0  0  0  0  0  0  0  0
    2.5369   -0.5771    0.0000 O   0  0  0  0  0  0  0  0  0  0  0  0
    6.0174    2.4575    0.0000 O   0  0  0  0  0  0  0  0  0  0  0  0
    8.6709   -0.0496    0.0000 O   0  0  0  0  0  0  0  0  0  0  0  0
   10.3914    2.9571    0.0000 O   0  0  0  0  0  0  0  0  0  0  0  0
    4.2690   -0.5771    0.0000 C   0  0  0  0  0  0  0  0  0  0  0  0
    5.1350   -0.0771    0.0000 C   0  0  0  0  0  0  0  0  0  0  0  0
    5.1350    0.9229    0.0000 C   0  0  0  0  0  0  0  0  0  0  0  0
    4.2690   -1.5771    0.0000 C   0  0  0  0  0  0  0  0  0  0  0  0
    4.2690    1.4229    0.0000 C   0  0  0  0  0  0  0  0  0  0  0  0
    6.0290    1.4576    0.0000 C   0  0  0  0  0  0  0  0  0  0  0  0
    3.4030   -0.0771    0.0000 C   0  0  0  0  0  0  0  0  0  0  0  0
    6.9350    0.9437    0.0000 C   0  0  0  0  0  0  0  0  0  0  0  0
    3.4030    0.9229    0.0000 C   0  0  0  0  0  0  0  0  0  0  0  0
    7.7991    1.4471    0.0000 C   0  0  0  0  0  0  0  0  0  0  0  0
    6.9350   -0.0979    0.0000 C   0  0  0  0  0  0  0  0  0  0  0  0
    3.4030   -2.0771    0.0000 C   0  0  0  0  0  0  0  0  0  0  0  0
    3.4030   -3.0771    0.0000 C   0  0  0  0  0  0  0  0  0  0  0  0
    8.6671    0.9504    0.0000 C   0  0  0  0  0  0  0  0  0  0  0  0
    7.7953    2.4471    0.0000 C   0  0  0  0  0  0  0  0  0  0  0  0
    9.5312    1.4538    0.0000 C   0  0  0  0  0  0  0  0  0  0  0  0
    8.6594    2.9504    0.0000 C   0  0  0  0  0  0  0  0  0  0  0  0
    2.5369   -3.5771    0.0000 C   0  0  0  0  0  0  0  0  0  0  0  0
    4.2690   -3.5771    0.0000 C   0  0  0  0  0  0  0  0  0  0  0  0
    9.5273    2.4537    0.0000 C   0  0  0  0  0  0  0  0  0  0  0  0
    3.4030    2.9229    0.0000 C   0  0  0  0  0  0  0  0  0  0  0  0
    4.4810   -2.1597    0.0000 H   0  0  0  0  0  0  0  0  0  0  0  0
    4.8796   -1.4694    0.0000 H   0  0  0  0  0  0  0  0  0  0  0  0
    2.8660    1.2329    0.0000 H   0  0  0  0  0  0  0  0  0  0  0  0
    7.4708   -0.4100    0.0000 H   0  0  0  0  0  0  0  0  0  0  0  0
    2.8660   -1.7671    0.0000 H   0  0  0  0  0  0  0  0  0  0  0  0
    7.2571    2.7550    0.0000 H   0  0  0  0  0  0  0  0  0  0  0  0
    2.0000   -0.2671    0.0000 H   0  0  0  0  0  0  0  0  0  0  0  0
   10.0693    1.1458    0.0000 H   0  0  0  0  0  0  0  0  0  0  0  0
    8.6570    3.5704    0.0000 H   0  0  0  0  0  0  0  0  0  0  0  0
    2.2269   -3.0401    0.0000 H   0  0  0  0  0  0  0  0  0  0  0  0
    3.9590   -4.1140    0.0000 H   0  0  0  0  0  0  0  0  0  0  0  0
    4.8059   -3.8871    0.0000 H   0  0  0  0  0  0  0  0  0  0  0  0
    4.5790   -3.0401    0.0000 H   0  0  0  0  0  0  0  0  0  0  0  0
    2.0000   -3.8871    0.0000 H   0  0  0  0  0  0  0  0  0  0  0  0
    2.8469   -4.1140    0.0000 H   0  0  0  0  0  0  0  0  0  0  0  0
    3.7130    3.4599    0.0000 H   0  0  0  0  0  0  0  0  0  0  0  0
    2.8660    3.2329    0.0000 H   0  0  0  0  0  0  0  0  0  0  0  0
    3.0930    2.3860    0.0000 H   0  0  0  0  0  0  0  0  0  0  0  0
    9.2090   -0.3575    0.0000 H   0  0  0  0  0  0  0  0  0  0  0  0
   10.3890    3.5771    0.0000 H   0  0  0  0  0  0  0  0  0  0  0  0
  1  8  1  0  0  0  0
  1 17  1  0  0  0  0
  2 11  1  0  0  0  0
  2 27  1  0  0  0  0
  3 13  1  0  0  0  0
  3 34  1  0  0  0  0
  4 12  2  0  0  0  0
  5 20  1  0  0  0  0
  5 46  1  0  0  0  0
  6 26  1  0  0  0  0
  6 47  1  0  0  0  0
  7  8  2  0  0  0  0
  7 10  1  0  0  0  0
  7 13  1  0  0  0  0
  8  9  1  0  0  0  0
  9 11  2  0  0  0  0
  9 12  1  0  0  0  0
 10 18  1  0  0  0  0
 10 28  1  0  0  0  0
 10 29  1  0  0  0  0
 11 15  1  0  0  0  0
 12 14  1  0  0  0  0
 13 15  2  0  0  0  0
 14 16  1  0  0  0  0
 14 17  2  0  0  0  0
 15 30  1  0  0  0  0
 16 20  2  0  0  0  0
 16 21  1  0  0  0  0
 17 31  1  0  0  0  0
 18 19  2  0  0  0  0
 18 32  1  0  0  0  0
 19 24  1  0  0  0  0
 19 25  1  0  0  0  0
 20 22  1  0  0  0  0
 21 23  2  0  0  0  0
 21 33  1  0  0  0  0
 22 26  2  0  0  0  0
 22 35  1  0  0  0  0
 23 26  1  0  0  0  0
 23 36  1  0  0  0  0
 24 37  1  0  0  0  0
 24 41  1  0  0  0  0
 24 42  1  0  0  0  0
 25 38  1  0  0  0  0
 25 39  1  0  0  0  0
 25 40  1  0  0  0  0
 27 43  1  0  0  0  0
 27 44  1  0  0  0  0
 27 45  1  0  0  0  0
M  END
>  <PUBCHEM_COMPOUND_CID>
44257317

>  <PUBCHEM_COMPOUND_CANONICALIZED>
1

>  <PUBCHEM_CACTVS_COMPLEXITY>
608

>  <PUBCHEM_CACTVS_HBOND_ACCEPTOR>
6

>  <PUBCHEM_CACTVS_HBOND_DONOR>
3

>  <PUBCHEM_CACTVS_ROTATABLE_BOND>
4

>  <PUBCHEM_CACTVS_SUBSKEYS>
AAADceB4OAAAAAAAAAAAAAAAAAAAAAAAAAAwYIAAAAAAAACBQAAAGgAACAAADASgmAIyBoAABgCIAqBSAAACCAAkIAAIiAEGCMgMJzaGNRqAcWAl4BUIuYeK7PzOIAACCAAIAABAAAQQABAAAAAAAAAAAA==

>  <PUBCHEM_IUPAC_OPENEYE_NAME>
3-(2,4-dihydroxyphenyl)-7-hydroxy-5-methoxy-8-(3-methylbut-2-enyl)chromen-4-one

>  <PUBCHEM_IUPAC_CAS_NAME>
3-(2,4-dihydroxyphenyl)-7-hydroxy-5-methoxy-8-(3-methylbut-2-enyl)-1-benzopyran-4-one

>  <PUBCHEM_IUPAC_NAME>
3-(2,4-dihydroxyphenyl)-7-hydroxy-5-methoxy-8-(3-methylbut-2-enyl)chromen-4-one

>  <PUBCHEM_IUPAC_SYSTEMATIC_NAME>
3-[2,4-bis(oxidanyl)phenyl]-5-methoxy-8-(3-methylbut-2-enyl)-7-oxidanyl-chromen-4-one

>  <PUBCHEM_IUPAC_TRADITIONAL_NAME>
3-(2,4-dihydroxyphenyl)-7-hydroxy-5-methoxy-8-(3-methylbut-2-enyl)chromone

>  <PUBCHEM_IUPAC_INCHI>
InChI=1S/C21H20O6/c1-11(2)4-6-14-17(24)9-18(26-3)19-20(25)15(10-27-21(14)19)13-7-5-12(22)8-16(13)23/h4-5,7-10,22-24H,6H2,1-3H3

>  <PUBCHEM_IUPAC_INCHIKEY>
RAGHIRZNTGDCED-UHFFFAOYSA-N

>  <PUBCHEM_XLOGP3_AA>
4

>  <PUBCHEM_EXACT_MASS>
368.126

>  <PUBCHEM_MOLECULAR_FORMULA>
C21H20O6

>  <PUBCHEM_MOLECULAR_WEIGHT>
368.385

>  <PUBCHEM_OPENEYE_CAN_SMILES>
CC(=CCC1=C(C=C(C2=C1OC=C(C2=O)C3=C(C=C(C=C3)O)O)OC)O)C

>  <PUBCHEM_OPENEYE_ISO_SMILES>
CC(=CCC1=C(C=C(C2=C1OC=C(C2=O)C3=C(C=C(C=C3)O)O)OC)O)C

>  <PUBCHEM_CACTVS_TPSA>
96.2

>  <PUBCHEM_MONOISOTOPIC_WEIGHT>
368.126

>  <PUBCHEM_TOTAL_CHARGE>
0

>  <PUBCHEM_HEAVY_ATOM_COUNT>
27

>  <PUBCHEM_ATOM_DEF_STEREO_COUNT>
0

>  <PUBCHEM_ATOM_UDEF_STEREO_COUNT>
0

>  <PUBCHEM_BOND_DEF_STEREO_COUNT>
0

>  <PUBCHEM_BOND_UDEF_STEREO_COUNT>
0

>  <PUBCHEM_ISOTOPIC_ATOM_COUNT>
0

>  <PUBCHEM_COMPONENT_COUNT>
1

>  <PUBCHEM_CACTVS_TAUTO_COUNT>
45

>  <PUBCHEM_COORDINATE_TYPE>
1
5
255

>  <PUBCHEM_BONDANNOTATIONS>
1  17  8
1  8  8
11  15  8
12  14  8
13  15  8
14  17  8
16  20  8
16  21  8
20  22  8
21  23  8
22  26  8
23  26  8
7  13  8
7  8  8
8  9  8
9  11  8
9  12  8

$$$$
