44257457
 OpenBabel06101807152D

 32 35  0  0  1  0  0  0  0  0999 V2000
    5.9065   -0.7228    0.0000 O   0  0  0  0  0  0  0  0  0  0  0  0
    8.0505    1.3457    0.0000 O   0  0  0  0  0  0  0  0  0  0  0  0
   10.0421    0.9446    0.0000 O   0  0  0  0  0  0  0  0  0  0  0  0
    2.4170    0.1814    0.0000 O   0  0  0  0  0  0  0  0  0  0  0  0
   10.6901   -0.9985    0.0000 O   0  0  0  0  0  0  0  0  0  0  0  0
    6.4033    0.8105    0.0000 C   0  0  3  0  0  0  0  0  0  0  0  0
    6.7123   -0.1406    0.0000 C   0  0  3  0  0  0  0  0  0  0  0  0
    5.4092    0.8079    0.0000 C   0  0  0  0  0  0  0  0  0  0  0  0
    7.0724    1.5536    0.0000 C   0  0  0  0  0  0  0  0  0  0  0  0
    7.6904   -0.3485    0.0000 C   0  0  0  0  0  0  0  0  0  0  0  0
    5.1028   -0.1378    0.0000 C   0  0  0  0  0  0  0  0  0  0  0  0
    8.3596    0.3946    0.0000 C   0  0  0  0  0  0  0  0  0  0  0  0
    4.7276    1.5874    0.0000 C   0  0  0  0  0  0  0  0  0  0  0  0
    7.9970   -1.3440    0.0000 C   0  0  0  0  0  0  0  0  0  0  0  0
    4.0936   -0.3696    0.0000 C   0  0  0  0  0  0  0  0  0  0  0  0
    9.3816    0.1938    0.0000 C   0  0  0  0  0  0  0  0  0  0  0  0
    3.7133    1.3790    0.0000 C   0  0  0  0  0  0  0  0  0  0  0  0
    3.3942    0.3940    0.0000 C   0  0  0  0  0  0  0  0  0  0  0  0
    9.0142   -1.5684    0.0000 C   0  0  0  0  0  0  0  0  0  0  0  0
    9.7112   -0.7943    0.0000 C   0  0  0  0  0  0  0  0  0  0  0  0
    6.1504    1.3765    0.0000 H   0  0  0  0  0  0  0  0  0  0  0  0
    6.8404   -0.7472    0.0000 H   0  0  0  0  0  0  0  0  0  0  0  0
    7.3046    2.1285    0.0000 H   0  0  0  0  0  0  0  0  0  0  0  0
    6.5466    1.8822    0.0000 H   0  0  0  0  0  0  0  0  0  0  0  0
    4.9255    2.1750    0.0000 H   0  0  0  0  0  0  0  0  0  0  0  0
    7.5768   -1.7999    0.0000 H   0  0  0  0  0  0  0  0  0  0  0  0
    3.9094   -0.9615    0.0000 H   0  0  0  0  0  0  0  0  0  0  0  0
    3.2998    1.8410    0.0000 H   0  0  0  0  0  0  0  0  0  0  0  0
    9.2035   -2.1588    0.0000 H   0  0  0  0  0  0  0  0  0  0  0  0
   10.6500    0.8228    0.0000 H   0  0  0  0  0  0  0  0  0  0  0  0
    2.0000    0.6402    0.0000 H   0  0  0  0  0  0  0  0  0  0  0  0
   10.8840   -1.5874    0.0000 H   0  0  0  0  0  0  0  0  0  0  0  0
  1  7  1  0  0  0  0
  1 11  1  0  0  0  0
  2  9  1  0  0  0  0
  2 12  1  0  0  0  0
  3 16  1  0  0  0  0
  3 30  1  0  0  0  0
  4 18  1  0  0  0  0
  4 31  1  0  0  0  0
  5 20  1  0  0  0  0
  5 32  1  0  0  0  0
  6  7  1  0  0  0  0
  6  8  1  0  0  0  0
  6  9  1  0  0  0  0
  6 21  1  0  0  0  0
  7 10  1  0  0  0  0
  7 22  1  0  0  0  0
  8 11  2  0  0  0  0
  8 13  1  0  0  0  0
  9 23  1  0  0  0  0
  9 24  1  0  0  0  0
 10 12  2  0  0  0  0
 10 14  1  0  0  0  0
 11 15  1  0  0  0  0
 12 16  1  0  0  0  0
 13 17  2  0  0  0  0
 13 25  1  0  0  0  0
 14 19  2  0  0  0  0
 14 26  1  0  0  0  0
 15 18  2  0  0  0  0
 15 27  1  0  0  0  0
 16 20  2  0  0  0  0
 17 18  1  0  0  0  0
 17 28  1  0  0  0  0
 19 20  1  0  0  0  0
 19 29  1  0  0  0  0
M  END
>  <PUBCHEM_COMPOUND_CID>
44257457

>  <PUBCHEM_COMPOUND_CANONICALIZED>
1

>  <PUBCHEM_CACTVS_COMPLEXITY>
375

>  <PUBCHEM_CACTVS_HBOND_ACCEPTOR>
5

>  <PUBCHEM_CACTVS_HBOND_DONOR>
3

>  <PUBCHEM_CACTVS_ROTATABLE_BOND>
0

>  <PUBCHEM_CACTVS_SUBSKEYS>
AAADccBwOAAAAAAAAAAAAAAAAAAAASAAAAA0YIAAAAAAAEiRQAAAGgAACAAADRSgmAIwBoAABgCAAiBCAAACCAAgIAAIiAAGiIgNJyKGMRqCeCOlwBULuAfA4PwOoAABCAAIQABAAAIQABCAAAAAAAAAAA==

>  <PUBCHEM_IUPAC_OPENEYE_NAME>
6a,11a-dihydro-6H-benzofuro[3,2-c]chromene-3,4,9-triol

>  <PUBCHEM_IUPAC_CAS_NAME>
6a,11a-dihydro-6H-benzofuro[3,2-c][1]benzopyran-3,4,9-triol

>  <PUBCHEM_IUPAC_NAME>
6a,11a-dihydro-6H-[1]benzofuro[3,2-c]chromene-3,4,9-triol

>  <PUBCHEM_IUPAC_SYSTEMATIC_NAME>
6a,11a-dihydro-6H-[1]benzofuro[3,2-c]chromene-3,4,9-triol

>  <PUBCHEM_IUPAC_TRADITIONAL_NAME>
6a,11a-dihydro-6H-benzofuro[3,2-c]chromene-3,4,9-triol

>  <PUBCHEM_IUPAC_INCHI>
InChI=1S/C15H12O5/c16-7-1-2-8-10-6-19-15-9(3-4-11(17)13(15)18)14(10)20-12(8)5-7/h1-5,10,14,16-18H,6H2

>  <PUBCHEM_IUPAC_INCHIKEY>
CLHTZHIBHTWFEM-UHFFFAOYSA-N

>  <PUBCHEM_XLOGP3_AA>
1.9

>  <PUBCHEM_EXACT_MASS>
272.068

>  <PUBCHEM_MOLECULAR_FORMULA>
C15H12O5

>  <PUBCHEM_MOLECULAR_WEIGHT>
272.256

>  <PUBCHEM_OPENEYE_CAN_SMILES>
C1C2C(C3=C(O1)C(=C(C=C3)O)O)OC4=C2C=CC(=C4)O

>  <PUBCHEM_OPENEYE_ISO_SMILES>
C1C2C(C3=C(O1)C(=C(C=C3)O)O)OC4=C2C=CC(=C4)O

>  <PUBCHEM_CACTVS_TPSA>
79.2

>  <PUBCHEM_MONOISOTOPIC_WEIGHT>
272.068

>  <PUBCHEM_TOTAL_CHARGE>
0

>  <PUBCHEM_HEAVY_ATOM_COUNT>
20

>  <PUBCHEM_ATOM_DEF_STEREO_COUNT>
0

>  <PUBCHEM_ATOM_UDEF_STEREO_COUNT>
2

>  <PUBCHEM_BOND_DEF_STEREO_COUNT>
0

>  <PUBCHEM_BOND_UDEF_STEREO_COUNT>
0

>  <PUBCHEM_ISOTOPIC_ATOM_COUNT>
0

>  <PUBCHEM_COMPONENT_COUNT>
1

>  <PUBCHEM_CACTVS_TAUTO_COUNT>
23

>  <PUBCHEM_COORDINATE_TYPE>
1
5
255

>  <PUBCHEM_BONDANNOTATIONS>
7  1  3
10  12  8
10  14  8
11  15  8
12  16  8
13  17  8
14  19  8
15  18  8
16  20  8
17  18  8
19  20  8
6  9  3
8  11  8
8  13  8

$$$$
