44259767
 OpenBabel06101807152D

 54 56  0  0  0  0  0  0  0  0999 V2000
    9.8622   -4.0204    0.0000 O   0  0  0  0  0  0  0  0  0  0  0  0
    6.3981    0.9796    0.0000 O   0  0  0  0  0  0  0  0  0  0  0  0
   10.7282   -0.5204    0.0000 O   0  0  0  0  0  0  0  0  0  0  0  0
    8.1301    2.9796    0.0000 O   0  0  0  0  0  0  0  0  0  0  0  0
    2.8680    3.0038    0.0000 O   0  0  0  0  0  0  0  0  0  0  0  0
    4.6497    4.0142    0.0000 O   0  0  0  0  0  0  0  0  0  0  0  0
    6.3981    3.9796    0.0000 O   0  0  0  0  0  0  0  0  0  0  0  0
    2.8680    0.9555    0.0000 O   0  0  0  0  0  0  0  0  0  0  0  0
    9.8622   -3.0204    0.0000 C   0  0  0  0  0  0  0  0  0  0  0  0
    9.8622   -2.0204    0.0000 C   0  0  0  0  0  0  0  0  0  0  0  0
    8.9962   -1.5204    0.0000 C   0  0  0  0  0  0  0  0  0  0  0  0
    8.9962   -0.5204    0.0000 C   0  0  0  0  0  0  0  0  0  0  0  0
   10.8622   -3.0204    0.0000 C   0  0  0  0  0  0  0  0  0  0  0  0
    8.8622   -3.0204    0.0000 C   0  0  0  0  0  0  0  0  0  0  0  0
    8.1301   -0.0204    0.0000 C   0  0  0  0  0  0  0  0  0  0  0  0
    8.1301    0.9796    0.0000 C   0  0  0  0  0  0  0  0  0  0  0  0
    9.8622   -0.0204    0.0000 C   0  0  0  0  0  0  0  0  0  0  0  0
    7.2641    1.4796    0.0000 C   0  0  0  0  0  0  0  0  0  0  0  0
    8.9962    1.4796    0.0000 C   0  0  0  0  0  0  0  0  0  0  0  0
    9.8622    0.9796    0.0000 C   0  0  0  0  0  0  0  0  0  0  0  0
    7.2641    2.4796    0.0000 C   0  0  0  0  0  0  0  0  0  0  0  0
    5.5320    2.4796    0.0000 C   0  0  0  0  0  0  0  0  0  0  0  0
    5.5320    1.4796    0.0000 C   0  0  0  0  0  0  0  0  0  0  0  0
    6.3981    2.9796    0.0000 C   0  0  0  0  0  0  0  0  0  0  0  0
    4.6381    3.0143    0.0000 C   0  0  0  0  0  0  0  0  0  0  0  0
    4.6381    0.9449    0.0000 C   0  0  0  0  0  0  0  0  0  0  0  0
    3.7320    2.5004    0.0000 C   0  0  0  0  0  0  0  0  0  0  0  0
    3.7320    1.4588    0.0000 C   0  0  0  0  0  0  0  0  0  0  0  0
    8.1301    3.9796    0.0000 C   0  0  0  0  0  0  0  0  0  0  0  0
    2.0000    2.5071    0.0000 C   0  0  0  0  0  0  0  0  0  0  0  0
   10.4728   -2.1280    0.0000 H   0  0  0  0  0  0  0  0  0  0  0  0
   10.0742   -1.4378    0.0000 H   0  0  0  0  0  0  0  0  0  0  0  0
    8.3856   -1.4127    0.0000 H   0  0  0  0  0  0  0  0  0  0  0  0
    8.7841   -2.1030    0.0000 H   0  0  0  0  0  0  0  0  0  0  0  0
   10.8622   -3.6404    0.0000 H   0  0  0  0  0  0  0  0  0  0  0  0
    8.8622   -2.4004    0.0000 H   0  0  0  0  0  0  0  0  0  0  0  0
    8.2422   -3.0204    0.0000 H   0  0  0  0  0  0  0  0  0  0  0  0
    8.8622   -3.6404    0.0000 H   0  0  0  0  0  0  0  0  0  0  0  0
   11.4822   -3.0204    0.0000 H   0  0  0  0  0  0  0  0  0  0  0  0
   10.8622   -2.4004    0.0000 H   0  0  0  0  0  0  0  0  0  0  0  0
    7.5932   -0.3304    0.0000 H   0  0  0  0  0  0  0  0  0  0  0  0
   10.3991   -4.3304    0.0000 H   0  0  0  0  0  0  0  0  0  0  0  0
    8.9962    2.0996    0.0000 H   0  0  0  0  0  0  0  0  0  0  0  0
   10.3991    1.2896    0.0000 H   0  0  0  0  0  0  0  0  0  0  0  0
    4.6453    0.3250    0.0000 H   0  0  0  0  0  0  0  0  0  0  0  0
   11.2651   -0.2104    0.0000 H   0  0  0  0  0  0  0  0  0  0  0  0
    8.7501    3.9796    0.0000 H   0  0  0  0  0  0  0  0  0  0  0  0
    8.1301    4.5996    0.0000 H   0  0  0  0  0  0  0  0  0  0  0  0
    7.5101    3.9796    0.0000 H   0  0  0  0  0  0  0  0  0  0  0  0
    4.1164    4.3304    0.0000 H   0  0  0  0  0  0  0  0  0  0  0  0
    2.8703    0.3355    0.0000 H   0  0  0  0  0  0  0  0  0  0  0  0
    1.6921    3.0452    0.0000 H   0  0  0  0  0  0  0  0  0  0  0  0
    1.4619    2.1992    0.0000 H   0  0  0  0  0  0  0  0  0  0  0  0
    2.3079    1.9690    0.0000 H   0  0  0  0  0  0  0  0  0  0  0  0
  1  9  1  0  0  0  0
  1 42  1  0  0  0  0
  2 18  1  0  0  0  0
  2 23  1  0  0  0  0
  3 17  1  0  0  0  0
  3 46  1  0  0  0  0
  4 21  1  0  0  0  0
  4 29  1  0  0  0  0
  5 27  1  0  0  0  0
  5 30  1  0  0  0  0
  6 25  1  0  0  0  0
  6 50  1  0  0  0  0
  7 24  2  0  0  0  0
  8 28  1  0  0  0  0
  8 51  1  0  0  0  0
  9 10  1  0  0  0  0
  9 13  1  0  0  0  0
  9 14  1  0  0  0  0
 10 11  1  0  0  0  0
 10 31  1  0  0  0  0
 10 32  1  0  0  0  0
 11 12  1  0  0  0  0
 11 33  1  0  0  0  0
 11 34  1  0  0  0  0
 12 15  1  0  0  0  0
 12 17  2  0  0  0  0
 13 35  1  0  0  0  0
 13 39  1  0  0  0  0
 13 40  1  0  0  0  0
 14 36  1  0  0  0  0
 14 37  1  0  0  0  0
 14 38  1  0  0  0  0
 15 16  2  0  0  0  0
 15 41  1  0  0  0  0
 16 18  1  0  0  0  0
 16 19  1  0  0  0  0
 17 20  1  0  0  0  0
 18 21  2  0  0  0  0
 19 20  2  0  0  0  0
 19 43  1  0  0  0  0
 20 44  1  0  0  0  0
 21 24  1  0  0  0  0
 22 23  2  0  0  0  0
 22 24  1  0  0  0  0
 22 25  1  0  0  0  0
 23 26  1  0  0  0  0
 25 27  2  0  0  0  0
 26 28  2  0  0  0  0
 26 45  1  0  0  0  0
 27 28  1  0  0  0  0
 29 47  1  0  0  0  0
 29 48  1  0  0  0  0
 29 49  1  0  0  0  0
 30 52  1  0  0  0  0
 30 53  1  0  0  0  0
 30 54  1  0  0  0  0
M  END
>  <PUBCHEM_COMPOUND_CID>
44259767

>  <PUBCHEM_COMPOUND_CANONICALIZED>
1

>  <PUBCHEM_CACTVS_COMPLEXITY>
660

>  <PUBCHEM_CACTVS_HBOND_ACCEPTOR>
8

>  <PUBCHEM_CACTVS_HBOND_DONOR>
4

>  <PUBCHEM_CACTVS_ROTATABLE_BOND>
6

>  <PUBCHEM_CACTVS_SUBSKEYS>
AAADceB4PAAAAAAAAAAAAAAAAAAAAAAAAAAwYIAAAAAAAACBQAAAGgAACAAADESAmAIyBoAABgCIAqBSAAICCAAkIAAIiAFGiMgNJzaGNR6CeWOl4BULuQfK7PzOIQADCAAIQABCAAYQABCAAAAAAAAAAA==

>  <PUBCHEM_IUPAC_OPENEYE_NAME>
5,7-dihydroxy-2-[4-hydroxy-3-(3-hydroxy-3-methyl-butyl)phenyl]-3,6-dimethoxy-chromen-4-one

>  <PUBCHEM_IUPAC_CAS_NAME>
5,7-dihydroxy-2-[4-hydroxy-3-(3-hydroxy-3-methylbutyl)phenyl]-3,6-dimethoxy-1-benzopyran-4-one

>  <PUBCHEM_IUPAC_NAME>
5,7-dihydroxy-2-[4-hydroxy-3-(3-hydroxy-3-methylbutyl)phenyl]-3,6-dimethoxychromen-4-one

>  <PUBCHEM_IUPAC_SYSTEMATIC_NAME>
3,6-dimethoxy-2-[3-(3-methyl-3-oxidanyl-butyl)-4-oxidanyl-phenyl]-5,7-bis(oxidanyl)chromen-4-one

>  <PUBCHEM_IUPAC_TRADITIONAL_NAME>
5,7-dihydroxy-2-[4-hydroxy-3-(3-hydroxy-3-methyl-butyl)phenyl]-3,6-dimethoxy-chromone

>  <PUBCHEM_IUPAC_INCHI>
InChI=1S/C22H24O8/c1-22(2,27)8-7-11-9-12(5-6-13(11)23)19-21(29-4)18(26)16-15(30-19)10-14(24)20(28-3)17(16)25/h5-6,9-10,23-25,27H,7-8H2,1-4H3

>  <PUBCHEM_IUPAC_INCHIKEY>
AMAMGOYSZHKBTQ-UHFFFAOYSA-N

>  <PUBCHEM_XLOGP3_AA>
3.4

>  <PUBCHEM_EXACT_MASS>
416.147

>  <PUBCHEM_MOLECULAR_FORMULA>
C22H24O8

>  <PUBCHEM_MOLECULAR_WEIGHT>
416.426

>  <PUBCHEM_OPENEYE_CAN_SMILES>
CC(C)(CCC1=C(C=CC(=C1)C2=C(C(=O)C3=C(C(=C(C=C3O2)O)OC)O)OC)O)O

>  <PUBCHEM_OPENEYE_ISO_SMILES>
CC(C)(CCC1=C(C=CC(=C1)C2=C(C(=O)C3=C(C(=C(C=C3O2)O)OC)O)OC)O)O

>  <PUBCHEM_CACTVS_TPSA>
126

>  <PUBCHEM_MONOISOTOPIC_WEIGHT>
416.147

>  <PUBCHEM_TOTAL_CHARGE>
0

>  <PUBCHEM_HEAVY_ATOM_COUNT>
30

>  <PUBCHEM_ATOM_DEF_STEREO_COUNT>
0

>  <PUBCHEM_ATOM_UDEF_STEREO_COUNT>
0

>  <PUBCHEM_BOND_DEF_STEREO_COUNT>
0

>  <PUBCHEM_BOND_UDEF_STEREO_COUNT>
0

>  <PUBCHEM_ISOTOPIC_ATOM_COUNT>
0

>  <PUBCHEM_COMPONENT_COUNT>
1

>  <PUBCHEM_CACTVS_TAUTO_COUNT>
69

>  <PUBCHEM_COORDINATE_TYPE>
1
5
255

>  <PUBCHEM_BONDANNOTATIONS>
12  15  8
12  17  8
15  16  8
16  19  8
17  20  8
18  21  8
19  20  8
2  18  8
2  23  8
21  24  8
22  23  8
22  24  8
22  25  8
23  26  8
25  27  8
26  28  8
27  28  8

$$$$
