44257590
 OpenBabel06101807152D

 41 43  0  0  0  0  0  0  0  0999 V2000
    6.3981   -0.0000    0.0000 O   0  0  0  0  0  0  0  0  0  0  0  0
    8.9962   -2.5000    0.0000 O   0  0  0  0  0  0  0  0  0  0  0  0
    2.8680   -0.0241    0.0000 O   0  0  0  0  0  0  0  0  0  0  0  0
   10.7282   -1.5000    0.0000 O   0  0  0  0  0  0  0  0  0  0  0  0
    4.6497   -1.0346    0.0000 O   0  0  0  0  0  0  0  0  0  0  0  0
    6.3981    3.0000    0.0000 O   0  0  0  0  0  0  0  0  0  0  0  0
   10.7282    0.5000    0.0000 O   0  0  0  0  0  0  0  0  0  0  0  0
    7.2641    0.5000    0.0000 C   0  0  0  0  0  0  0  0  0  0  0  0
    5.5320    1.5000    0.0000 C   0  0  0  0  0  0  0  0  0  0  0  0
    5.5320    0.5000    0.0000 C   0  0  0  0  0  0  0  0  0  0  0  0
    8.1301   -0.0000    0.0000 C   0  0  0  0  0  0  0  0  0  0  0  0
    7.2641    1.5000    0.0000 C   0  0  0  0  0  0  0  0  0  0  0  0
    6.3981    2.0000    0.0000 C   0  0  0  0  0  0  0  0  0  0  0  0
    4.6381   -0.0347    0.0000 C   0  0  0  0  0  0  0  0  0  0  0  0
    8.1301   -1.0000    0.0000 C   0  0  0  0  0  0  0  0  0  0  0  0
    8.9962    0.5000    0.0000 C   0  0  0  0  0  0  0  0  0  0  0  0
    4.6381    2.0347    0.0000 C   0  0  0  0  0  0  0  0  0  0  0  0
    8.9962   -1.5000    0.0000 C   0  0  0  0  0  0  0  0  0  0  0  0
    3.7320    0.4792    0.0000 C   0  0  0  0  0  0  0  0  0  0  0  0
    9.8622   -1.0000    0.0000 C   0  0  0  0  0  0  0  0  0  0  0  0
    9.8622   -0.0000    0.0000 C   0  0  0  0  0  0  0  0  0  0  0  0
    3.7320    1.5208    0.0000 C   0  0  0  0  0  0  0  0  0  0  0  0
    8.1301   -3.0000    0.0000 C   0  0  0  0  0  0  0  0  0  0  0  0
    2.0000    0.4725    0.0000 C   0  0  0  0  0  0  0  0  0  0  0  0
   11.5942   -1.0000    0.0000 C   0  0  0  0  0  0  0  0  0  0  0  0
    7.8010    1.8100    0.0000 H   0  0  0  0  0  0  0  0  0  0  0  0
    7.5932   -1.3100    0.0000 H   0  0  0  0  0  0  0  0  0  0  0  0
    8.9962    1.1200    0.0000 H   0  0  0  0  0  0  0  0  0  0  0  0
    4.6453    2.6546    0.0000 H   0  0  0  0  0  0  0  0  0  0  0  0
    3.1963    1.8329    0.0000 H   0  0  0  0  0  0  0  0  0  0  0  0
    4.1164   -1.3508    0.0000 H   0  0  0  0  0  0  0  0  0  0  0  0
   10.7282    1.1200    0.0000 H   0  0  0  0  0  0  0  0  0  0  0  0
    7.8201   -2.4631    0.0000 H   0  0  0  0  0  0  0  0  0  0  0  0
    7.5932   -3.3100    0.0000 H   0  0  0  0  0  0  0  0  0  0  0  0
    8.4401   -3.5369    0.0000 H   0  0  0  0  0  0  0  0  0  0  0  0
    2.3079    1.0106    0.0000 H   0  0  0  0  0  0  0  0  0  0  0  0
    1.4619    0.7804    0.0000 H   0  0  0  0  0  0  0  0  0  0  0  0
    1.6921   -0.0656    0.0000 H   0  0  0  0  0  0  0  0  0  0  0  0
   11.9042   -1.5369    0.0000 H   0  0  0  0  0  0  0  0  0  0  0  0
   12.1312   -0.6900    0.0000 H   0  0  0  0  0  0  0  0  0  0  0  0
   11.2842   -0.4631    0.0000 H   0  0  0  0  0  0  0  0  0  0  0  0
  1  8  1  0  0  0  0
  1 10  1  0  0  0  0
  2 18  1  0  0  0  0
  2 23  1  0  0  0  0
  3 19  1  0  0  0  0
  3 24  1  0  0  0  0
  4 20  1  0  0  0  0
  4 25  1  0  0  0  0
  5 14  1  0  0  0  0
  5 31  1  0  0  0  0
  6 13  2  0  0  0  0
  7 21  1  0  0  0  0
  7 32  1  0  0  0  0
  8 11  1  0  0  0  0
  8 12  2  0  0  0  0
  9 10  2  0  0  0  0
  9 13  1  0  0  0  0
  9 17  1  0  0  0  0
 10 14  1  0  0  0  0
 11 15  1  0  0  0  0
 11 16  2  0  0  0  0
 12 13  1  0  0  0  0
 12 26  1  0  0  0  0
 14 19  2  0  0  0  0
 15 18  2  0  0  0  0
 15 27  1  0  0  0  0
 16 21  1  0  0  0  0
 16 28  1  0  0  0  0
 17 22  2  0  0  0  0
 17 29  1  0  0  0  0
 18 20  1  0  0  0  0
 19 22  1  0  0  0  0
 20 21  2  0  0  0  0
 22 30  1  0  0  0  0
 23 33  1  0  0  0  0
 23 34  1  0  0  0  0
 23 35  1  0  0  0  0
 24 36  1  0  0  0  0
 24 37  1  0  0  0  0
 24 38  1  0  0  0  0
 25 39  1  0  0  0  0
 25 40  1  0  0  0  0
 25 41  1  0  0  0  0
M  END
>  <PUBCHEM_COMPOUND_CID>
44257590

>  <PUBCHEM_COMPOUND_CANONICALIZED>
1

>  <PUBCHEM_CACTVS_COMPLEXITY>
520

>  <PUBCHEM_CACTVS_HBOND_ACCEPTOR>
7

>  <PUBCHEM_CACTVS_HBOND_DONOR>
2

>  <PUBCHEM_CACTVS_ROTATABLE_BOND>
4

>  <PUBCHEM_CACTVS_SUBSKEYS>
AAADceB4OAAAAAAAAAAAAAAAAAAAAAAAAAAwYIAAAAAAAACBQAAAGgAACAAADASAmAIyBoAABgCIAqBSAAACCAAkIAAIiAEGiMgNJzaGNRqCeWOl4BULuYfK7LzOIAABCAAIQABAAAIQABCAAAAAAAAAAA==

>  <PUBCHEM_IUPAC_OPENEYE_NAME>
8-hydroxy-2-(3-hydroxy-4,5-dimethoxy-phenyl)-7-methoxy-chromen-4-one

>  <PUBCHEM_IUPAC_CAS_NAME>
8-hydroxy-2-(3-hydroxy-4,5-dimethoxyphenyl)-7-methoxy-1-benzopyran-4-one

>  <PUBCHEM_IUPAC_NAME>
8-hydroxy-2-(3-hydroxy-4,5-dimethoxyphenyl)-7-methoxychromen-4-one

>  <PUBCHEM_IUPAC_SYSTEMATIC_NAME>
2-(3,4-dimethoxy-5-oxidanyl-phenyl)-7-methoxy-8-oxidanyl-chromen-4-one

>  <PUBCHEM_IUPAC_TRADITIONAL_NAME>
8-hydroxy-2-(3-hydroxy-4,5-dimethoxy-phenyl)-7-methoxy-chromone

>  <PUBCHEM_IUPAC_INCHI>
InChI=1S/C18H16O7/c1-22-13-5-4-10-11(19)8-14(25-17(10)16(13)21)9-6-12(20)18(24-3)15(7-9)23-2/h4-8,20-21H,1-3H3

>  <PUBCHEM_IUPAC_INCHIKEY>
RHXKHTYRDAJUEZ-UHFFFAOYSA-N

>  <PUBCHEM_XLOGP3_AA>
2.4

>  <PUBCHEM_EXACT_MASS>
344.09

>  <PUBCHEM_MOLECULAR_FORMULA>
C18H16O7

>  <PUBCHEM_MOLECULAR_WEIGHT>
344.319

>  <PUBCHEM_OPENEYE_CAN_SMILES>
COC1=C(C2=C(C=C1)C(=O)C=C(O2)C3=CC(=C(C(=C3)OC)OC)O)O

>  <PUBCHEM_OPENEYE_ISO_SMILES>
COC1=C(C2=C(C=C1)C(=O)C=C(O2)C3=CC(=C(C(=C3)OC)OC)O)O

>  <PUBCHEM_CACTVS_TPSA>
94.4

>  <PUBCHEM_MONOISOTOPIC_WEIGHT>
344.09

>  <PUBCHEM_TOTAL_CHARGE>
0

>  <PUBCHEM_HEAVY_ATOM_COUNT>
25

>  <PUBCHEM_ATOM_DEF_STEREO_COUNT>
0

>  <PUBCHEM_ATOM_UDEF_STEREO_COUNT>
0

>  <PUBCHEM_BOND_DEF_STEREO_COUNT>
0

>  <PUBCHEM_BOND_UDEF_STEREO_COUNT>
0

>  <PUBCHEM_ISOTOPIC_ATOM_COUNT>
0

>  <PUBCHEM_COMPONENT_COUNT>
1

>  <PUBCHEM_CACTVS_TAUTO_COUNT>
6

>  <PUBCHEM_COORDINATE_TYPE>
1
5
255

>  <PUBCHEM_BONDANNOTATIONS>
1  10  8
1  8  8
10  14  8
11  15  8
11  16  8
12  13  8
14  19  8
15  18  8
16  21  8
17  22  8
18  20  8
19  22  8
20  21  8
8  12  8
9  10  8
9  13  8
9  17  8

$$$$
