44257429
 OpenBabel06101807152D

 55 59  0  0  1  0  0  0  0  0999 V2000
    6.1604    1.8195    0.0000 O   0  0  0  0  0  0  0  0  0  0  0  0
    5.1350   -2.9196    0.0000 O   0  0  0  0  0  0  0  0  0  0  0  0
    8.6230    0.1429    0.0000 O   0  0  0  0  0  0  0  0  0  0  0  0
    6.8671   -2.9196    0.0000 O   0  0  0  0  0  0  0  0  0  0  0  0
    5.1350   -5.9196    0.0000 O   0  0  0  0  0  0  0  0  0  0  0  0
    3.4030   -4.9196    0.0000 O   0  0  0  0  0  0  0  0  0  0  0  0
    6.8671   -4.9196    0.0000 O   0  0  0  0  0  0  0  0  0  0  0  0
    2.5369   -3.4196    0.0000 O   0  0  0  0  0  0  0  0  0  0  0  0
    6.3333    5.4201    0.0000 O   0  0  0  0  0  0  0  0  0  0  0  0
    7.7628    1.6462    0.0000 C   0  0  3  0  0  0  0  0  0  0  0  0
    6.8948    1.1496    0.0000 C   0  0  3  0  0  0  0  0  0  0  0  0
    5.1350   -4.9196    0.0000 C   0  0  3  0  0  0  0  0  0  0  0  0
    4.2690   -4.4196    0.0000 C   0  0  3  0  0  0  0  0  0  0  0  0
    6.0010   -4.4196    0.0000 C   0  0  3  0  0  0  0  0  0  0  0  0
    7.5573    2.6188    0.0000 C   0  0  0  0  0  0  0  0  0  0  0  0
    4.2690   -3.4196    0.0000 C   0  0  3  0  0  0  0  0  0  0  0  0
    8.6269    1.1429    0.0000 C   0  0  0  0  0  0  0  0  0  0  0  0
    6.8910    0.1496    0.0000 C   0  0  0  0  0  0  0  0  0  0  0  0
    6.0010   -3.4196    0.0000 C   0  0  3  0  0  0  0  0  0  0  0  0
    6.5690    2.7257    0.0000 C   0  0  0  0  0  0  0  0  0  0  0  0
    7.7551   -0.3538    0.0000 C   0  0  0  0  0  0  0  0  0  0  0  0
    5.9790   -0.3538    0.0000 C   0  0  0  0  0  0  0  0  0  0  0  0
    3.4030   -2.9196    0.0000 C   0  0  0  0  0  0  0  0  0  0  0  0
    6.8671   -1.9196    0.0000 C   0  0  0  0  0  0  0  0  0  0  0  0
    8.1813    3.4452    0.0000 C   0  0  0  0  0  0  0  0  0  0  0  0
    7.7671   -1.3953    0.0000 C   0  0  0  0  0  0  0  0  0  0  0  0
    5.9670   -1.3953    0.0000 C   0  0  0  0  0  0  0  0  0  0  0  0
    6.1361    3.6663    0.0000 C   0  0  0  0  0  0  0  0  0  0  0  0
    7.7703    4.3956    0.0000 C   0  0  0  0  0  0  0  0  0  0  0  0
    6.7408    4.5069    0.0000 C   0  0  0  0  0  0  0  0  0  0  0  0
    6.9204    6.2296    0.0000 C   0  0  0  0  0  0  0  0  0  0  0  0
    8.2653    2.0094    0.0000 H   0  0  0  0  0  0  0  0  0  0  0  0
    6.3272    0.9003    0.0000 H   0  0  0  0  0  0  0  0  0  0  0  0
    5.6720   -5.2296    0.0000 H   0  0  0  0  0  0  0  0  0  0  0  0
    4.2690   -5.0396    0.0000 H   0  0  0  0  0  0  0  0  0  0  0  0
    6.5380   -4.1096    0.0000 H   0  0  0  0  0  0  0  0  0  0  0  0
    4.2690   -2.7996    0.0000 H   0  0  0  0  0  0  0  0  0  0  0  0
    9.2370    1.0329    0.0000 H   0  0  0  0  0  0  0  0  0  0  0  0
    8.8412    1.7247    0.0000 H   0  0  0  0  0  0  0  0  0  0  0  0
    6.0010   -2.7996    0.0000 H   0  0  0  0  0  0  0  0  0  0  0  0
    5.4470   -0.0355    0.0000 H   0  0  0  0  0  0  0  0  0  0  0  0
    3.8015   -2.4447    0.0000 H   0  0  0  0  0  0  0  0  0  0  0  0
    3.0044   -2.4447    0.0000 H   0  0  0  0  0  0  0  0  0  0  0  0
    8.7969    3.3714    0.0000 H   0  0  0  0  0  0  0  0  0  0  0  0
    8.3064   -1.7012    0.0000 H   0  0  0  0  0  0  0  0  0  0  0  0
    5.4277   -1.7012    0.0000 H   0  0  0  0  0  0  0  0  0  0  0  0
    5.5190    3.7258    0.0000 H   0  0  0  0  0  0  0  0  0  0  0  0
    4.5981   -6.2296    0.0000 H   0  0  0  0  0  0  0  0  0  0  0  0
    3.4030   -5.5396    0.0000 H   0  0  0  0  0  0  0  0  0  0  0  0
    6.8671   -5.5396    0.0000 H   0  0  0  0  0  0  0  0  0  0  0  0
    8.1381    4.8947    0.0000 H   0  0  0  0  0  0  0  0  0  0  0  0
    2.0000   -3.1096    0.0000 H   0  0  0  0  0  0  0  0  0  0  0  0
    7.4223    5.8656    0.0000 H   0  0  0  0  0  0  0  0  0  0  0  0
    7.2844    6.7315    0.0000 H   0  0  0  0  0  0  0  0  0  0  0  0
    6.4184    6.5936    0.0000 H   0  0  0  0  0  0  0  0  0  0  0  0
  1 11  1  0  0  0  0
  1 20  1  0  0  0  0
  2 16  1  0  0  0  0
  2 19  1  0  0  0  0
  3 17  1  0  0  0  0
  3 21  1  0  0  0  0
  4 19  1  0  0  0  0
  4 24  1  0  0  0  0
  5 12  1  0  0  0  0
  5 48  1  0  0  0  0
  6 13  1  0  0  0  0
  6 49  1  0  0  0  0
  7 14  1  0  0  0  0
  7 50  1  0  0  0  0
  8 23  1  0  0  0  0
  8 52  1  0  0  0  0
  9 30  1  0  0  0  0
  9 31  1  0  0  0  0
 10 11  1  0  0  0  0
 10 15  1  0  0  0  0
 10 17  1  0  0  0  0
 10 32  1  0  0  0  0
 11 18  1  0  0  0  0
 11 33  1  0  0  0  0
 12 13  1  0  0  0  0
 12 14  1  0  0  0  0
 12 34  1  0  0  0  0
 13 16  1  0  0  0  0
 13 35  1  0  0  0  0
 14 19  1  0  0  0  0
 14 36  1  0  0  0  0
 15 20  2  0  0  0  0
 15 25  1  0  0  0  0
 16 23  1  0  0  0  0
 16 37  1  0  0  0  0
 17 38  1  0  0  0  0
 17 39  1  0  0  0  0
 18 21  2  0  0  0  0
 18 22  1  0  0  0  0
 19 40  1  0  0  0  0
 20 28  1  0  0  0  0
 21 26  1  0  0  0  0
 22 27  2  0  0  0  0
 22 41  1  0  0  0  0
 23 42  1  0  0  0  0
 23 43  1  0  0  0  0
 24 26  2  0  0  0  0
 24 27  1  0  0  0  0
 25 29  2  0  0  0  0
 25 44  1  0  0  0  0
 26 45  1  0  0  0  0
 27 46  1  0  0  0  0
 28 30  2  0  0  0  0
 28 47  1  0  0  0  0
 29 30  1  0  0  0  0
 29 51  1  0  0  0  0
 31 53  1  0  0  0  0
 31 54  1  0  0  0  0
 31 55  1  0  0  0  0
M  END
>  <PUBCHEM_COMPOUND_CID>
44257429

>  <PUBCHEM_COMPOUND_CANONICALIZED>
1

>  <PUBCHEM_CACTVS_COMPLEXITY>
620

>  <PUBCHEM_CACTVS_HBOND_ACCEPTOR>
9

>  <PUBCHEM_CACTVS_HBOND_DONOR>
4

>  <PUBCHEM_CACTVS_ROTATABLE_BOND>
4

>  <PUBCHEM_CACTVS_SUBSKEYS>
AAADceB4PAAAAAAAAAAAAAAAAAAAASAAAAA0aIEAAAAAAEiRQAAAGgAACAAADRSwmAMyDoAABgCAAiBCAAACCAAgIAAIiAAGCIgdNyKEMRqieCClwBUPqAfA4PwOoAAACAAIAABAAAAQABAAAAAAAAAAAA==

>  <PUBCHEM_IUPAC_OPENEYE_NAME>
2-(hydroxymethyl)-6-[(9-methoxy-6a,11a-dihydro-6H-benzofuro[3,2-c]chromen-3-yl)oxy]tetrahydropyran-3,4,5-triol

>  <PUBCHEM_IUPAC_CAS_NAME>
2-(hydroxymethyl)-6-[(9-methoxy-6a,11a-dihydro-6H-benzofuro[3,2-c][1]benzopyran-3-yl)oxy]oxane-3,4,5-triol

>  <PUBCHEM_IUPAC_NAME>
2-(hydroxymethyl)-6-[(9-methoxy-6a,11a-dihydro-6H-[1]benzofuro[3,2-c]chromen-3-yl)oxy]oxane-3,4,5-triol

>  <PUBCHEM_IUPAC_SYSTEMATIC_NAME>
2-(hydroxymethyl)-6-[(9-methoxy-6a,11a-dihydro-6H-[1]benzofuro[3,2-c]chromen-3-yl)oxy]oxane-3,4,5-triol

>  <PUBCHEM_IUPAC_TRADITIONAL_NAME>
2-[(9-methoxy-6a,11a-dihydro-6H-benzofuro[3,2-c]chromen-3-yl)oxy]-6-methylol-tetrahydropyran-3,4,5-triol

>  <PUBCHEM_IUPAC_INCHI>
InChI=1S/C22H24O9/c1-27-10-2-4-12-14-9-28-15-7-11(3-5-13(15)21(14)30-16(12)6-10)29-22-20(26)19(25)18(24)17(8-23)31-22/h2-7,14,17-26H,8-9H2,1H3

>  <PUBCHEM_IUPAC_INCHIKEY>
PVEMGMOWXQUWRD-UHFFFAOYSA-N

>  <PUBCHEM_XLOGP3_AA>
0.8

>  <PUBCHEM_EXACT_MASS>
432.142

>  <PUBCHEM_MOLECULAR_FORMULA>
C22H24O9

>  <PUBCHEM_MOLECULAR_WEIGHT>
432.425

>  <PUBCHEM_OPENEYE_CAN_SMILES>
COC1=CC2=C(C=C1)C3COC4=C(C3O2)C=CC(=C4)OC5C(C(C(C(O5)CO)O)O)O

>  <PUBCHEM_OPENEYE_ISO_SMILES>
COC1=CC2=C(C=C1)C3COC4=C(C3O2)C=CC(=C4)OC5C(C(C(C(O5)CO)O)O)O

>  <PUBCHEM_CACTVS_TPSA>
127

>  <PUBCHEM_MONOISOTOPIC_WEIGHT>
432.142

>  <PUBCHEM_TOTAL_CHARGE>
0

>  <PUBCHEM_HEAVY_ATOM_COUNT>
31

>  <PUBCHEM_ATOM_DEF_STEREO_COUNT>
0

>  <PUBCHEM_ATOM_UDEF_STEREO_COUNT>
7

>  <PUBCHEM_BOND_DEF_STEREO_COUNT>
0

>  <PUBCHEM_BOND_UDEF_STEREO_COUNT>
0

>  <PUBCHEM_ISOTOPIC_ATOM_COUNT>
0

>  <PUBCHEM_COMPONENT_COUNT>
1

>  <PUBCHEM_CACTVS_TAUTO_COUNT>
1

>  <PUBCHEM_COORDINATE_TYPE>
1
5
255

>  <PUBCHEM_BONDANNOTATIONS>
11  1  3
10  17  3
15  20  8
15  25  8
16  23  3
18  21  8
18  22  8
20  28  8
21  26  8
22  27  8
24  26  8
24  27  8
25  29  8
28  30  8
29  30  8
19  4  3
12  5  3
13  6  3
14  7  3

$$$$
