44257318
 OpenBabel06101807152D

 45 47  0  0  0  0  0  0  0  0999 V2000
    6.0290    0.0433    0.0000 O   0  0  0  0  0  0  0  0  0  0  0  0
    2.5369    0.0779    0.0000 O   0  0  0  0  0  0  0  0  0  0  0  0
    4.2690    3.0779    0.0000 O   0  0  0  0  0  0  0  0  0  0  0  0
    6.0174    3.1125    0.0000 O   0  0  0  0  0  0  0  0  0  0  0  0
    8.6709    0.6054    0.0000 O   0  0  0  0  0  0  0  0  0  0  0  0
    2.5369   -3.9221    0.0000 O   0  0  0  0  0  0  0  0  0  0  0  0
   10.3914    3.6121    0.0000 O   0  0  0  0  0  0  0  0  0  0  0  0
    4.2690    0.0779    0.0000 C   0  0  0  0  0  0  0  0  0  0  0  0
    5.1350    0.5779    0.0000 C   0  0  0  0  0  0  0  0  0  0  0  0
    5.1350    1.5779    0.0000 C   0  0  0  0  0  0  0  0  0  0  0  0
    4.2690   -0.9221    0.0000 C   0  0  0  0  0  0  0  0  0  0  0  0
    6.9350    1.5987    0.0000 C   0  0  0  0  0  0  0  0  0  0  0  0
    6.0290    2.1126    0.0000 C   0  0  0  0  0  0  0  0  0  0  0  0
    3.4030    0.5779    0.0000 C   0  0  0  0  0  0  0  0  0  0  0  0
    4.2690    2.0779    0.0000 C   0  0  0  0  0  0  0  0  0  0  0  0
    3.4030    1.5779    0.0000 C   0  0  0  0  0  0  0  0  0  0  0  0
    7.7991    2.1021    0.0000 C   0  0  0  0  0  0  0  0  0  0  0  0
    3.4030   -1.4221    0.0000 C   0  0  0  0  0  0  0  0  0  0  0  0
    6.9350    0.5571    0.0000 C   0  0  0  0  0  0  0  0  0  0  0  0
    3.4030   -2.4221    0.0000 C   0  0  0  0  0  0  0  0  0  0  0  0
    8.6671    1.6054    0.0000 C   0  0  0  0  0  0  0  0  0  0  0  0
    7.7953    3.1021    0.0000 C   0  0  0  0  0  0  0  0  0  0  0  0
    2.5369   -2.9221    0.0000 C   0  0  0  0  0  0  0  0  0  0  0  0
    4.2690   -2.9221    0.0000 C   0  0  0  0  0  0  0  0  0  0  0  0
    9.5312    2.1088    0.0000 C   0  0  0  0  0  0  0  0  0  0  0  0
    8.6594    3.6054    0.0000 C   0  0  0  0  0  0  0  0  0  0  0  0
    9.5273    3.1087    0.0000 C   0  0  0  0  0  0  0  0  0  0  0  0
    4.4810   -1.5047    0.0000 H   0  0  0  0  0  0  0  0  0  0  0  0
    4.8796   -0.8144    0.0000 H   0  0  0  0  0  0  0  0  0  0  0  0
    2.8660    1.8879    0.0000 H   0  0  0  0  0  0  0  0  0  0  0  0
    2.8660   -1.1121    0.0000 H   0  0  0  0  0  0  0  0  0  0  0  0
    7.4708    0.2450    0.0000 H   0  0  0  0  0  0  0  0  0  0  0  0
    7.2571    3.4100    0.0000 H   0  0  0  0  0  0  0  0  0  0  0  0
    2.3249   -2.3395    0.0000 H   0  0  0  0  0  0  0  0  0  0  0  0
    1.9264   -3.0297    0.0000 H   0  0  0  0  0  0  0  0  0  0  0  0
    3.9590   -3.4590    0.0000 H   0  0  0  0  0  0  0  0  0  0  0  0
    4.8059   -3.2321    0.0000 H   0  0  0  0  0  0  0  0  0  0  0  0
    4.5790   -2.3851    0.0000 H   0  0  0  0  0  0  0  0  0  0  0  0
   10.0693    1.8008    0.0000 H   0  0  0  0  0  0  0  0  0  0  0  0
    2.0000    0.3879    0.0000 H   0  0  0  0  0  0  0  0  0  0  0  0
    8.6570    4.2254    0.0000 H   0  0  0  0  0  0  0  0  0  0  0  0
    3.7320    3.3879    0.0000 H   0  0  0  0  0  0  0  0  0  0  0  0
    9.2090    0.2975    0.0000 H   0  0  0  0  0  0  0  0  0  0  0  0
    2.0000   -4.2321    0.0000 H   0  0  0  0  0  0  0  0  0  0  0  0
   10.3890    4.2321    0.0000 H   0  0  0  0  0  0  0  0  0  0  0  0
  1  9  1  0  0  0  0
  1 19  1  0  0  0  0
  2 14  1  0  0  0  0
  2 40  1  0  0  0  0
  3 15  1  0  0  0  0
  3 42  1  0  0  0  0
  4 13  2  0  0  0  0
  5 21  1  0  0  0  0
  5 43  1  0  0  0  0
  6 23  1  0  0  0  0
  6 44  1  0  0  0  0
  7 27  1  0  0  0  0
  7 45  1  0  0  0  0
  8  9  2  0  0  0  0
  8 11  1  0  0  0  0
  8 14  1  0  0  0  0
  9 10  1  0  0  0  0
 10 13  1  0  0  0  0
 10 15  2  0  0  0  0
 11 18  1  0  0  0  0
 11 28  1  0  0  0  0
 11 29  1  0  0  0  0
 12 13  1  0  0  0  0
 12 17  1  0  0  0  0
 12 19  2  0  0  0  0
 14 16  2  0  0  0  0
 15 16  1  0  0  0  0
 16 30  1  0  0  0  0
 17 21  2  0  0  0  0
 17 22  1  0  0  0  0
 18 20  2  0  0  0  0
 18 31  1  0  0  0  0
 19 32  1  0  0  0  0
 20 23  1  0  0  0  0
 20 24  1  0  0  0  0
 21 25  1  0  0  0  0
 22 26  2  0  0  0  0
 22 33  1  0  0  0  0
 23 34  1  0  0  0  0
 23 35  1  0  0  0  0
 24 36  1  0  0  0  0
 24 37  1  0  0  0  0
 24 38  1  0  0  0  0
 25 27  2  0  0  0  0
 25 39  1  0  0  0  0
 26 27  1  0  0  0  0
 26 41  1  0  0  0  0
M  END
>  <PUBCHEM_COMPOUND_CID>
44257318

>  <PUBCHEM_COMPOUND_CANONICALIZED>
1

>  <PUBCHEM_CACTVS_COMPLEXITY>
614

>  <PUBCHEM_CACTVS_HBOND_ACCEPTOR>
7

>  <PUBCHEM_CACTVS_HBOND_DONOR>
5

>  <PUBCHEM_CACTVS_ROTATABLE_BOND>
4

>  <PUBCHEM_CACTVS_SUBSKEYS>
AAADceB4OAAAAAAAAAAAAAAAAAAAAAAAAAAwYIAAAAAAAACBQAAAGgAACAAADASgmAIyBoAABgCIAqBSAAACCAAkIAAIiAEGCMgMNzaGNRqAcWAl4BUIuYeK7PzOIAACCAAIAABAAAQQABAAAAAAAAAAAA==

>  <PUBCHEM_IUPAC_OPENEYE_NAME>
3-(2,4-dihydroxyphenyl)-5,7-dihydroxy-8-[(E)-4-hydroxy-3-methyl-but-2-enyl]chromen-4-one

>  <PUBCHEM_IUPAC_CAS_NAME>
3-(2,4-dihydroxyphenyl)-5,7-dihydroxy-8-[(E)-4-hydroxy-3-methylbut-2-enyl]-1-benzopyran-4-one

>  <PUBCHEM_IUPAC_NAME>
3-(2,4-dihydroxyphenyl)-5,7-dihydroxy-8-[(E)-4-hydroxy-3-methylbut-2-enyl]chromen-4-one

>  <PUBCHEM_IUPAC_SYSTEMATIC_NAME>
3-[2,4-bis(oxidanyl)phenyl]-8-[(E)-3-methyl-4-oxidanyl-but-2-enyl]-5,7-bis(oxidanyl)chromen-4-one

>  <PUBCHEM_IUPAC_TRADITIONAL_NAME>
3-(2,4-dihydroxyphenyl)-5,7-dihydroxy-8-[(E)-4-hydroxy-3-methyl-but-2-enyl]chromone

>  <PUBCHEM_IUPAC_INCHI>
InChI=1S/C20H18O7/c1-10(8-21)2-4-13-16(24)7-17(25)18-19(26)14(9-27-20(13)18)12-5-3-11(22)6-15(12)23/h2-3,5-7,9,21-25H,4,8H2,1H3/b10-2+

>  <PUBCHEM_IUPAC_INCHIKEY>
UFCGXNZEVGKUQA-WTDSWWLTSA-N

>  <PUBCHEM_XLOGP3_AA>
3

>  <PUBCHEM_EXACT_MASS>
370.105

>  <PUBCHEM_MOLECULAR_FORMULA>
C20H18O7

>  <PUBCHEM_MOLECULAR_WEIGHT>
370.357

>  <PUBCHEM_OPENEYE_CAN_SMILES>
CC(=CCC1=C(C=C(C2=C1OC=C(C2=O)C3=C(C=C(C=C3)O)O)O)O)CO

>  <PUBCHEM_OPENEYE_ISO_SMILES>
C/C(=C\CC1=C(C=C(C2=C1OC=C(C2=O)C3=C(C=C(C=C3)O)O)O)O)/CO

>  <PUBCHEM_CACTVS_TPSA>
127

>  <PUBCHEM_MONOISOTOPIC_WEIGHT>
370.105

>  <PUBCHEM_TOTAL_CHARGE>
0

>  <PUBCHEM_HEAVY_ATOM_COUNT>
27

>  <PUBCHEM_ATOM_DEF_STEREO_COUNT>
0

>  <PUBCHEM_ATOM_UDEF_STEREO_COUNT>
0

>  <PUBCHEM_BOND_DEF_STEREO_COUNT>
1

>  <PUBCHEM_BOND_UDEF_STEREO_COUNT>
0

>  <PUBCHEM_ISOTOPIC_ATOM_COUNT>
0

>  <PUBCHEM_COMPONENT_COUNT>
1

>  <PUBCHEM_CACTVS_TAUTO_COUNT>
108

>  <PUBCHEM_COORDINATE_TYPE>
1
5
255

>  <PUBCHEM_BONDANNOTATIONS>
1  19  8
1  9  8
10  13  8
10  15  8
12  13  8
12  19  8
14  16  8
15  16  8
17  21  8
17  22  8
21  25  8
22  26  8
25  27  8
26  27  8
8  14  8
8  9  8
9  10  8

$$$$
