442771
 OpenBabel06101807152D

 36 38  0  0  1  0  0  0  0  0999 V2000
    5.5301   -1.9279    0.0000 O   0  0  0  0  0  0  0  0  0  0  0  0
    5.5301    1.0721    0.0000 O   0  0  0  0  0  0  0  0  0  0  0  0
    8.1282   -1.4279    0.0000 O   0  0  0  0  0  0  0  0  0  0  0  0
    3.7817    1.1067    0.0000 O   0  0  0  0  0  0  0  0  0  0  0  0
    9.8602    1.5721    0.0000 O   0  0  0  0  0  0  0  0  0  0  0  0
    2.0000   -1.9521    0.0000 O   0  0  0  0  0  0  0  0  0  0  0  0
    6.3961   -0.4279    0.0000 C   0  0  3  0  0  0  0  0  0  0  0  0
    6.3961   -1.4279    0.0000 C   0  0  0  0  0  0  0  0  0  0  0  0
    7.2622    0.0721    0.0000 C   0  0  0  0  0  0  0  0  0  0  0  0
    5.5301    0.0721    0.0000 C   0  0  0  0  0  0  0  0  0  0  0  0
    4.6641   -0.4279    0.0000 C   0  0  0  0  0  0  0  0  0  0  0  0
    4.6641   -1.4279    0.0000 C   0  0  0  0  0  0  0  0  0  0  0  0
    8.1282   -0.4279    0.0000 C   0  0  0  0  0  0  0  0  0  0  0  0
    7.2622    1.0721    0.0000 C   0  0  0  0  0  0  0  0  0  0  0  0
    3.7702    0.1067    0.0000 C   0  0  0  0  0  0  0  0  0  0  0  0
    3.7702   -1.9626    0.0000 C   0  0  0  0  0  0  0  0  0  0  0  0
    8.9942    0.0721    0.0000 C   0  0  0  0  0  0  0  0  0  0  0  0
    8.1282    1.5721    0.0000 C   0  0  0  0  0  0  0  0  0  0  0  0
    2.8641   -0.4071    0.0000 C   0  0  0  0  0  0  0  0  0  0  0  0
    2.8641   -1.4487    0.0000 C   0  0  0  0  0  0  0  0  0  0  0  0
    8.9942    1.0721    0.0000 C   0  0  0  0  0  0  0  0  0  0  0  0
    9.8602    2.5721    0.0000 C   0  0  0  0  0  0  0  0  0  0  0  0
    6.9331   -0.7379    0.0000 H   0  0  0  0  0  0  0  0  0  0  0  0
    6.6082   -2.0105    0.0000 H   0  0  0  0  0  0  0  0  0  0  0  0
    7.0067   -1.3203    0.0000 H   0  0  0  0  0  0  0  0  0  0  0  0
    6.7252    1.3821    0.0000 H   0  0  0  0  0  0  0  0  0  0  0  0
    3.7773   -2.5826    0.0000 H   0  0  0  0  0  0  0  0  0  0  0  0
    9.5312   -0.2379    0.0000 H   0  0  0  0  0  0  0  0  0  0  0  0
    8.1282    2.1921    0.0000 H   0  0  0  0  0  0  0  0  0  0  0  0
    2.3284   -0.0950    0.0000 H   0  0  0  0  0  0  0  0  0  0  0  0
    8.6651   -1.7379    0.0000 H   0  0  0  0  0  0  0  0  0  0  0  0
    3.2484    1.4229    0.0000 H   0  0  0  0  0  0  0  0  0  0  0  0
    2.0024   -2.5721    0.0000 H   0  0  0  0  0  0  0  0  0  0  0  0
   10.4803    2.5721    0.0000 H   0  0  0  0  0  0  0  0  0  0  0  0
    9.8602    3.1921    0.0000 H   0  0  0  0  0  0  0  0  0  0  0  0
    9.2402    2.5721    0.0000 H   0  0  0  0  0  0  0  0  0  0  0  0
  1  8  1  0  0  0  0
  1 12  1  0  0  0  0
  2 10  2  0  0  0  0
  3 13  1  0  0  0  0
  3 31  1  0  0  0  0
  4 15  1  0  0  0  0
  4 32  1  0  0  0  0
  5 21  1  0  0  0  0
  5 22  1  0  0  0  0
  6 20  1  0  0  0  0
  6 33  1  0  0  0  0
  7  8  1  0  0  0  0
  7  9  1  0  0  0  0
  7 10  1  0  0  0  0
  7 23  1  0  0  0  0
  8 24  1  0  0  0  0
  8 25  1  0  0  0  0
  9 13  2  0  0  0  0
  9 14  1  0  0  0  0
 10 11  1  0  0  0  0
 11 12  1  0  0  0  0
 11 15  2  0  0  0  0
 12 16  2  0  0  0  0
 13 17  1  0  0  0  0
 14 18  2  0  0  0  0
 14 26  1  0  0  0  0
 15 19  1  0  0  0  0
 16 20  1  0  0  0  0
 16 27  1  0  0  0  0
 17 21  2  0  0  0  0
 17 28  1  0  0  0  0
 18 21  1  0  0  0  0
 18 29  1  0  0  0  0
 19 20  2  0  0  0  0
 19 30  1  0  0  0  0
 22 34  1  0  0  0  0
 22 35  1  0  0  0  0
 22 36  1  0  0  0  0
M  END
>  <PUBCHEM_COMPOUND_CID>
442771

>  <PUBCHEM_COMPOUND_CANONICALIZED>
1

>  <PUBCHEM_CACTVS_COMPLEXITY>
413

>  <PUBCHEM_CACTVS_HBOND_ACCEPTOR>
6

>  <PUBCHEM_CACTVS_HBOND_DONOR>
3

>  <PUBCHEM_CACTVS_ROTATABLE_BOND>
2

>  <PUBCHEM_CACTVS_SUBSKEYS>
AAADccB4OAAAAAAAAAAAAAAAAAAAAAAAAAA0YIAAAAAAAACRQAAAGgAACAAADQSgmAIyBoAABgCIAqBSAAACCAAkIAAIiAEGCMgMJzaGNRqCeWCl4BUIuQfK7PzOoAAACAAIAABAAAAQABAAAAAAAAAAAA==

>  <PUBCHEM_IUPAC_OPENEYE_NAME>
5,7-dihydroxy-3-(2-hydroxy-4-methoxy-phenyl)chroman-4-one

>  <PUBCHEM_IUPAC_CAS_NAME>
5,7-dihydroxy-3-(2-hydroxy-4-methoxyphenyl)-3,4-dihydro-2H-1-benzopyran-4-one

>  <PUBCHEM_IUPAC_NAME>
5,7-dihydroxy-3-(2-hydroxy-4-methoxyphenyl)-2,3-dihydrochromen-4-one

>  <PUBCHEM_IUPAC_SYSTEMATIC_NAME>
3-(4-methoxy-2-oxidanyl-phenyl)-5,7-bis(oxidanyl)-2,3-dihydrochromen-4-one

>  <PUBCHEM_IUPAC_TRADITIONAL_NAME>
5,7-dihydroxy-3-(2-hydroxy-4-methoxy-phenyl)chroman-4-one

>  <PUBCHEM_IUPAC_INCHI>
InChI=1S/C16H14O6/c1-21-9-2-3-10(12(18)6-9)11-7-22-14-5-8(17)4-13(19)15(14)16(11)20/h2-6,11,17-19H,7H2,1H3

>  <PUBCHEM_IUPAC_INCHIKEY>
CBEPNYOFLRIAGR-UHFFFAOYSA-N

>  <PUBCHEM_XLOGP3_AA>
2.5

>  <PUBCHEM_EXACT_MASS>
302.079

>  <PUBCHEM_MOLECULAR_FORMULA>
C16H14O6

>  <PUBCHEM_MOLECULAR_WEIGHT>
302.282

>  <PUBCHEM_OPENEYE_CAN_SMILES>
COC1=CC(=C(C=C1)C2COC3=CC(=CC(=C3C2=O)O)O)O

>  <PUBCHEM_OPENEYE_ISO_SMILES>
COC1=CC(=C(C=C1)C2COC3=CC(=CC(=C3C2=O)O)O)O

>  <PUBCHEM_CACTVS_TPSA>
96.2

>  <PUBCHEM_MONOISOTOPIC_WEIGHT>
302.079

>  <PUBCHEM_TOTAL_CHARGE>
0

>  <PUBCHEM_HEAVY_ATOM_COUNT>
22

>  <PUBCHEM_ATOM_DEF_STEREO_COUNT>
0

>  <PUBCHEM_ATOM_UDEF_STEREO_COUNT>
1

>  <PUBCHEM_BOND_DEF_STEREO_COUNT>
0

>  <PUBCHEM_BOND_UDEF_STEREO_COUNT>
0

>  <PUBCHEM_ISOTOPIC_ATOM_COUNT>
0

>  <PUBCHEM_COMPONENT_COUNT>
1

>  <PUBCHEM_CACTVS_TAUTO_COUNT>
120

>  <PUBCHEM_COORDINATE_TYPE>
1
5
255

>  <PUBCHEM_BONDANNOTATIONS>
11  12  8
11  15  8
12  16  8
13  17  8
14  18  8
15  19  8
16  20  8
17  21  8
18  21  8
19  20  8
7  9  3
9  13  8
9  14  8

$$$$
