444170
 OpenBabel06101807152D

 71 75  0  0  1  0  0  0  0  0999 V2000
    5.0474    0.1419    0.0000 P   0  0  3  0  0  0  0  0  0  0  0  0
    5.4104    1.8354    0.0000 P   0  0  3  0  0  0  0  0  0  0  0  0
    4.4026   -3.3113    0.0000 O   0  0  0  0  0  0  0  0  0  0  0  0
    7.4382    4.1647    0.0000 O   0  0  0  0  0  0  0  0  0  0  0  0
    6.7523   -2.2276    0.0000 O   0  0  0  0  0  0  0  0  0  0  0  0
    6.7485   -4.4032    0.0000 O   0  0  0  0  0  0  0  0  0  0  0  0
    5.3248    5.6578    0.0000 O   0  0  0  0  0  0  0  0  0  0  0  0
    7.2108    6.7423    0.0000 O   0  0  0  0  0  0  0  0  0  0  0  0
    5.3548   -0.8097    0.0000 O   0  0  0  0  0  0  0  0  0  0  0  0
    6.0809    2.5774    0.0000 O   0  0  0  0  0  0  0  0  0  0  0  0
    4.7400    1.0934    0.0000 O   0  0  0  0  0  0  0  0  0  0  0  0
    5.9990    0.4492    0.0000 O   0  0  0  0  0  0  0  0  0  0  0  0
    4.6685    2.5058    0.0000 O   0  0  0  0  0  0  0  0  0  0  0  0
    4.0958   -0.1655    0.0000 O   0  0  0  0  0  0  0  0  0  0  0  0
    6.1524    1.1650    0.0000 O   0  0  0  0  0  0  0  0  0  0  0  0
    9.7571    8.1354    0.0000 O   0  0  0  0  0  0  0  0  0  0  0  0
    4.6783   -5.0719    0.0000 N   0  0  0  0  0  0  0  0  0  0  0  0
    4.6783   -6.6813    0.0000 N   0  0  0  0  0  0  0  0  0  0  0  0
    9.1357    6.2343    0.0000 N   0  0  0  0  0  0  0  0  0  0  0  0
    2.8660   -4.8766    0.0000 N   0  0  0  0  0  0  0  0  0  0  0  0
    2.0000   -6.3766    0.0000 N   0  0  0  0  0  0  0  0  0  0  0  0
    2.8660   -7.8766    0.0000 N   0  0  0  0  0  0  0  0  0  0  0  0
   11.4034    7.5973    0.0000 N   0  0  0  0  0  0  0  0  0  0  0  0
    5.9422   -2.8140    0.0000 C   0  0  1  0  0  0  0  0  0  0  0  0
    5.9405   -3.8140    0.0000 C   0  0  2  0  0  0  0  0  0  0  0  0
    4.9917   -2.5033    0.0000 C   0  0  1  0  0  0  0  0  0  0  0  0
    4.9889   -4.1213    0.0000 C   0  0  1  0  0  0  0  0  0  0  0  0
    6.2377    5.2495    0.0000 C   0  0  2  0  0  0  0  0  0  0  0  0
    6.4439    4.2710    0.0000 C   0  0  1  0  0  0  0  0  0  0  0  0
    7.1046    5.7480    0.0000 C   0  0  2  0  0  0  0  0  0  0  0  0
    7.8466    5.0776    0.0000 C   0  0  2  0  0  0  0  0  0  0  0  0
    4.6844   -1.5517    0.0000 C   0  0  0  0  0  0  0  0  0  0  0  0
    5.7735    3.5290    0.0000 C   0  0  0  0  0  0  0  0  0  0  0  0
    8.8251    5.2838    0.0000 C   0  0  0  0  0  0  0  0  0  0  0  0
    3.7320   -5.3766    0.0000 C   0  0  0  0  0  0  0  0  0  0  0  0
    5.2619   -5.8766    0.0000 C   0  0  0  0  0  0  0  0  0  0  0  0
    3.7320   -6.3766    0.0000 C   0  0  0  0  0  0  0  0  0  0  0  0
    9.4929    4.5395    0.0000 C   0  0  0  0  0  0  0  0  0  0  0  0
    2.8660   -6.8766    0.0000 C   0  0  0  0  0  0  0  0  0  0  0  0
   10.4714    4.7457    0.0000 C   0  0  0  0  0  0  0  0  0  0  0  0
   10.1142    6.4405    0.0000 C   0  0  0  0  0  0  0  0  0  0  0  0
   10.7821    5.6962    0.0000 C   0  0  0  0  0  0  0  0  0  0  0  0
    2.0000   -5.3766    0.0000 C   0  0  0  0  0  0  0  0  0  0  0  0
   10.4249    7.3911    0.0000 C   0  0  0  0  0  0  0  0  0  0  0  0
    6.4942   -3.0964    0.0000 H   0  0  0  0  0  0  0  0  0  0  0  0
    6.4934   -3.5335    0.0000 H   0  0  0  0  0  0  0  0  0  0  0  0
    4.3795   -2.4053    0.0000 H   0  0  0  0  0  0  0  0  0  0  0  0
    5.4266   -4.5605    0.0000 H   0  0  0  0  0  0  0  0  0  0  0  0
    5.7552    4.8602    0.0000 H   0  0  0  0  0  0  0  0  0  0  0  0
    6.6651    3.6918    0.0000 H   0  0  0  0  0  0  0  0  0  0  0  0
    7.6838    5.9692    0.0000 H   0  0  0  0  0  0  0  0  0  0  0  0
    8.3804    4.4161    0.0000 H   0  0  0  0  0  0  0  0  0  0  0  0
    4.3035   -1.0625    0.0000 H   0  0  0  0  0  0  0  0  0  0  0  0
    4.1364   -1.8418    0.0000 H   0  0  0  0  0  0  0  0  0  0  0  0
    5.3926    4.0182    0.0000 H   0  0  0  0  0  0  0  0  0  0  0  0
    5.2256    3.2389    0.0000 H   0  0  0  0  0  0  0  0  0  0  0  0
    7.3182   -2.4808    0.0000 H   0  0  0  0  0  0  0  0  0  0  0  0
    7.3154   -4.1520    0.0000 H   0  0  0  0  0  0  0  0  0  0  0  0
    5.8819   -5.8766    0.0000 H   0  0  0  0  0  0  0  0  0  0  0  0
    5.2611    6.2745    0.0000 H   0  0  0  0  0  0  0  0  0  0  0  0
    6.7099    7.1076    0.0000 H   0  0  0  0  0  0  0  0  0  0  0  0
    9.3003    3.9502    0.0000 H   0  0  0  0  0  0  0  0  0  0  0  0
   10.8855    4.2842    0.0000 H   0  0  0  0  0  0  0  0  0  0  0  0
   11.3888    5.8241    0.0000 H   0  0  0  0  0  0  0  0  0  0  0  0
    1.4631   -5.0666    0.0000 H   0  0  0  0  0  0  0  0  0  0  0  0
    6.4590    0.0336    0.0000 H   0  0  0  0  0  0  0  0  0  0  0  0
    4.0785    2.3153    0.0000 H   0  0  0  0  0  0  0  0  0  0  0  0
    2.3291   -8.1866    0.0000 H   0  0  0  0  0  0  0  0  0  0  0  0
    3.4030   -8.1866    0.0000 H   0  0  0  0  0  0  0  0  0  0  0  0
   11.5960    8.1866    0.0000 H   0  0  0  0  0  0  0  0  0  0  0  0
   11.8175    7.1358    0.0000 H   0  0  0  0  0  0  0  0  0  0  0  0
  1  9  1  0  0  0  0
  1 11  1  0  0  0  0
  1 12  1  0  0  0  0
  1 14  2  0  0  0  0
  2 10  1  0  0  0  0
  2 11  1  0  0  0  0
  2 13  1  0  0  0  0
  2 15  2  0  0  0  0
  3 26  1  0  0  0  0
  3 27  1  0  0  0  0
  4 29  1  0  0  0  0
  4 31  1  0  0  0  0
  5 57  1  0  0  0  0
  6 58  1  0  0  0  0
  7 60  1  0  0  0  0
  8 61  1  0  0  0  0
  9 32  1  0  0  0  0
 10 33  1  0  0  0  0
 12 66  1  0  0  0  0
 13 67  1  0  0  0  0
 16 44  2  0  0  0  0
 17 35  1  0  0  0  0
 17 36  1  0  0  0  0
 18 36  2  0  0  0  0
 18 37  1  0  0  0  0
 19 34  1  0  0  0  0
 19 41  2  0  0  0  0
 20 35  2  0  0  0  0
 20 43  1  0  0  0  0
 21 39  1  0  0  0  0
 21 43  2  0  0  0  0
 22 39  1  0  0  0  0
 22 68  1  0  0  0  0
 22 69  1  0  0  0  0
 23 44  1  0  0  0  0
 23 70  1  0  0  0  0
 23 71  1  0  0  0  0
 24  5  1  0  0  0  0
 24 25  1  1  0  0  0
 24 45  1  0  0  0  0
 25  6  1  0  0  0  0
 25 27  1  6  0  0  0
 25 46  1  0  0  0  0
 26 24  1  1  0  0  0
 26 32  1  0  0  0  0
 26 47  1  0  0  0  0
 27 17  1  0  0  0  0
 27 48  1  1  0  0  0
 28  7  1  0  0  0  0
 28 29  1  1  0  0  0
 28 49  1  0  0  0  0
 29 33  1  0  0  0  0
 29 50  1  1  0  0  0
 30  8  1  0  0  0  0
 30 28  1  6  0  0  0
 30 51  1  0  0  0  0
 31 30  1  1  0  0  0
 31 34  1  0  0  0  0
 31 52  1  0  0  0  0
 32 53  1  0  0  0  0
 32 54  1  0  0  0  0
 33 55  1  0  0  0  0
 33 56  1  0  0  0  0
 34 38  2  0  0  0  0
 35 37  1  0  0  0  0
 36 59  1  0  0  0  0
 37 39  2  0  0  0  0
 38 40  1  0  0  0  0
 38 62  1  0  0  0  0
 40 42  2  0  0  0  0
 40 63  1  0  0  0  0
 41 42  1  0  0  0  0
 41 44  1  0  0  0  0
 42 64  1  0  0  0  0
 43 65  1  0  0  0  0
M  END
>  <PUBCHEM_COMPOUND_CID>
444170

>  <PUBCHEM_COMPOUND_CANONICALIZED>
1

>  <PUBCHEM_CACTVS_COMPLEXITY>
1130

>  <PUBCHEM_CACTVS_HBOND_ACCEPTOR>
19

>  <PUBCHEM_CACTVS_HBOND_DONOR>
8

>  <PUBCHEM_CACTVS_ROTATABLE_BOND>
11

>  <PUBCHEM_CACTVS_SUBSKEYS>
AAADceB7vAMAAAAAAAAAAAAAAAAAAWJEgAAsWAAAAAAAAFgB/gAAHgAQCCAACBzhlwY18L9MFxCoQSdzdISCgC03EqAJ2CG4fNiLfvLA/fmfdQhvwAPb6af4+KeAAAAAAAAAAAAAAAAAAAAAAAAAAAAAAA==

>  <PUBCHEM_IUPAC_OPENEYE_NAME>
[[(2R,3S,4R,5R)-5-(6-aminopurin-9-yl)-3,4-dihydroxy-tetrahydrofuran-2-yl]methoxy-hydroxy-phosphoryl] [(2R,3S,4R,5S)-5-(6-carbamoyl-2-pyridyl)-3,4-dihydroxy-tetrahydrofuran-2-yl]methyl hydrogen phosphate

>  <PUBCHEM_IUPAC_CAS_NAME>
[[(2R,3S,4R,5R)-5-(6-aminopurin-9-yl)-3,4-dihydroxy-2-oxolanyl]methoxy-hydroxyphosphoryl] [(2R,3S,4R,5S)-5-(6-carbamoyl-2-pyridinyl)-3,4-dihydroxy-2-oxolanyl]methyl hydrogen phosphate

>  <PUBCHEM_IUPAC_NAME>
[[(2R,3S,4R,5R)-5-(6-aminopurin-9-yl)-3,4-dihydroxyoxolan-2-yl]methoxy-hydroxyphosphoryl] [(2R,3S,4R,5S)-5-(6-carbamoylpyridin-2-yl)-3,4-dihydroxyoxolan-2-yl]methyl hydrogen phosphate

>  <PUBCHEM_IUPAC_SYSTEMATIC_NAME>
[[(2R,3S,4R,5S)-5-(6-aminocarbonylpyridin-2-yl)-3,4-bis(oxidanyl)oxolan-2-yl]methoxy-oxidanyl-phosphoryl] [(2R,3S,4R,5R)-5-(6-aminopurin-9-yl)-3,4-bis(oxidanyl)oxolan-2-yl]methyl hydrogen phosphate

>  <PUBCHEM_IUPAC_TRADITIONAL_NAME>
[[(2R,3S,4R,5R)-5-adenin-9-yl-3,4-dihydroxy-tetrahydrofuran-2-yl]methoxy-hydroxy-phosphoryl] [(2R,3S,4R,5S)-5-(6-carbamoyl-2-pyridyl)-3,4-dihydroxy-tetrahydrofuran-2-yl]methyl hydrogen phosphate

>  <PUBCHEM_IUPAC_INCHI>
InChI=1S/C21H27N7O14P2/c22-18-12-20(25-6-24-18)28(7-26-12)21-16(32)14(30)11(41-21)5-39-44(36,37)42-43(34,35)38-4-10-13(29)15(31)17(40-10)8-2-1-3-9(27-8)19(23)33/h1-3,6-7,10-11,13-17,21,29-32H,4-5H2,(H2,23,33)(H,34,35)(H,36,37)(H2,22,24,25)/t10-,11-,13-,14-,15-,16-,17+,21-/m1/s1

>  <PUBCHEM_IUPAC_INCHIKEY>
LFERELMXERXKKQ-KMXXXSRASA-N

>  <PUBCHEM_XLOGP3>
-5.9

>  <PUBCHEM_EXACT_MASS>
663.109

>  <PUBCHEM_MOLECULAR_FORMULA>
C21H27N7O14P2

>  <PUBCHEM_MOLECULAR_WEIGHT>
663.43

>  <PUBCHEM_OPENEYE_CAN_SMILES>
C1=CC(=NC(=C1)C2C(C(C(O2)COP(=O)(O)OP(=O)(O)OCC3C(C(C(O3)N4C=NC5=C4N=CN=C5N)O)O)O)O)C(=O)N

>  <PUBCHEM_OPENEYE_ISO_SMILES>
C1=CC(=NC(=C1)[C@H]2[C@@H]([C@@H]([C@H](O2)COP(=O)(O)OP(=O)(O)OC[C@@H]3[C@H]([C@H]([C@@H](O3)N4C=NC5=C4N=CN=C5N)O)O)O)O)C(=O)N

>  <PUBCHEM_CACTVS_TPSA>
327

>  <PUBCHEM_MONOISOTOPIC_WEIGHT>
663.109

>  <PUBCHEM_TOTAL_CHARGE>
0

>  <PUBCHEM_HEAVY_ATOM_COUNT>
44

>  <PUBCHEM_ATOM_DEF_STEREO_COUNT>
8

>  <PUBCHEM_ATOM_UDEF_STEREO_COUNT>
0

>  <PUBCHEM_BOND_DEF_STEREO_COUNT>
0

>  <PUBCHEM_BOND_UDEF_STEREO_COUNT>
0

>  <PUBCHEM_ISOTOPIC_ATOM_COUNT>
0

>  <PUBCHEM_COMPONENT_COUNT>
1

>  <PUBCHEM_CACTVS_TAUTO_COUNT>
6

>  <PUBCHEM_COORDINATE_TYPE>
1
5
255

>  <PUBCHEM_BONDANNOTATIONS>
27  17  6
17  35  8
17  36  8
18  36  8
18  37  8
19  34  8
19  41  8
20  35  8
20  43  8
21  39  8
21  43  8
26  32  6
29  33  6
31  52  5
34  38  8
35  37  8
37  39  8
38  40  8
40  42  8
41  42  8
24  5  5
25  6  5
28  7  5
30  8  5

$$$$
