44419746
 OpenBabel06101807152D

 64 66  0  0  0  0  0  0  0  0999 V2000
    3.7320   -2.9050    0.0000 O   0  0  0  0  0  0  0  0  0  0  0  0
    5.4641   -3.9050    0.0000 O   0  0  0  0  0  0  0  0  0  0  0  0
    3.5903   -1.4022    0.0000 O   0  0  0  0  0  0  0  0  0  0  0  0
    4.5981   -0.4050    0.0000 O   0  0  0  0  0  0  0  0  0  0  0  0
    8.0622    1.5950    0.0000 C   0  0  0  0  0  0  0  0  0  0  0  0
    8.0622    0.5950    0.0000 C   0  0  0  0  0  0  0  0  0  0  0  0
    7.1962    2.0950    0.0000 C   0  0  0  0  0  0  0  0  0  0  0  0
    7.1962    0.0950    0.0000 C   0  0  0  0  0  0  0  0  0  0  0  0
    7.1962    3.0950    0.0000 C   0  0  0  0  0  0  0  0  0  0  0  0
    7.1962   -0.9050    0.0000 C   0  0  0  0  0  0  0  0  0  0  0  0
    2.8660    1.5950    0.0000 C   0  0  0  0  0  0  0  0  0  0  0  0
    6.3301    3.5950    0.0000 C   0  0  0  0  0  0  0  0  0  0  0  0
    3.7320    2.0950    0.0000 C   0  0  0  0  0  0  0  0  0  0  0  0
    2.8660    0.5950    0.0000 C   0  0  0  0  0  0  0  0  0  0  0  0
    3.7320    3.0950    0.0000 C   0  0  0  0  0  0  0  0  0  0  0  0
    2.0000    0.0950    0.0000 C   0  0  0  0  0  0  0  0  0  0  0  0
    6.3301   -1.4050    0.0000 C   0  0  0  0  0  0  0  0  0  0  0  0
    5.4641    3.0950    0.0000 C   0  0  0  0  0  0  0  0  0  0  0  0
    4.5981    3.5950    0.0000 C   0  0  0  0  0  0  0  0  0  0  0  0
    2.0000   -0.9050    0.0000 C   0  0  0  0  0  0  0  0  0  0  0  0
    5.4622   -0.8949    0.0000 C   0  0  0  0  0  0  0  0  0  0  0  0
    6.3301   -2.4050    0.0000 C   0  0  0  0  0  0  0  0  0  0  0  0
    2.0000   -1.9050    0.0000 C   0  0  0  0  0  0  0  0  0  0  0  0
    4.5981   -2.4050    0.0000 C   0  0  0  0  0  0  0  0  0  0  0  0
    5.4641   -2.9050    0.0000 C   0  0  0  0  0  0  0  0  0  0  0  0
    4.5903   -1.3983    0.0000 C   0  0  0  0  0  0  0  0  0  0  0  0
    2.8660   -0.4050    0.0000 C   0  0  0  0  0  0  0  0  0  0  0  0
    2.8660   -2.4050    0.0000 C   0  0  0  0  0  0  0  0  0  0  0  0
    3.7320   -0.9050    0.0000 C   0  0  0  0  0  0  0  0  0  0  0  0
    3.7320   -1.9050    0.0000 C   0  0  0  0  0  0  0  0  0  0  0  0
    8.6728    1.4873    0.0000 H   0  0  0  0  0  0  0  0  0  0  0  0
    8.2742    2.1776    0.0000 H   0  0  0  0  0  0  0  0  0  0  0  0
    8.2742    0.0124    0.0000 H   0  0  0  0  0  0  0  0  0  0  0  0
    8.6728    0.7027    0.0000 H   0  0  0  0  0  0  0  0  0  0  0  0
    6.5856    2.2027    0.0000 H   0  0  0  0  0  0  0  0  0  0  0  0
    6.9841    1.5124    0.0000 H   0  0  0  0  0  0  0  0  0  0  0  0
    6.9841    0.6776    0.0000 H   0  0  0  0  0  0  0  0  0  0  0  0
    6.5856   -0.0127    0.0000 H   0  0  0  0  0  0  0  0  0  0  0  0
    7.8067    2.9873    0.0000 H   0  0  0  0  0  0  0  0  0  0  0  0
    7.4082    3.6776    0.0000 H   0  0  0  0  0  0  0  0  0  0  0  0
    7.4082   -1.4876    0.0000 H   0  0  0  0  0  0  0  0  0  0  0  0
    7.8067   -0.7973    0.0000 H   0  0  0  0  0  0  0  0  0  0  0  0
    2.6540    2.1776    0.0000 H   0  0  0  0  0  0  0  0  0  0  0  0
    2.2554    1.4873    0.0000 H   0  0  0  0  0  0  0  0  0  0  0  0
    6.7287    4.0700    0.0000 H   0  0  0  0  0  0  0  0  0  0  0  0
    5.9316    4.0700    0.0000 H   0  0  0  0  0  0  0  0  0  0  0  0
    3.9441    1.5124    0.0000 H   0  0  0  0  0  0  0  0  0  0  0  0
    4.3426    2.2027    0.0000 H   0  0  0  0  0  0  0  0  0  0  0  0
    3.0781    0.0124    0.0000 H   0  0  0  0  0  0  0  0  0  0  0  0
    3.4766    0.7027    0.0000 H   0  0  0  0  0  0  0  0  0  0  0  0
    3.5200    3.6776    0.0000 H   0  0  0  0  0  0  0  0  0  0  0  0
    3.1215    2.9873    0.0000 H   0  0  0  0  0  0  0  0  0  0  0  0
    1.7880    0.6776    0.0000 H   0  0  0  0  0  0  0  0  0  0  0  0
    1.3894   -0.0127    0.0000 H   0  0  0  0  0  0  0  0  0  0  0  0
    5.4641    2.4750    0.0000 H   0  0  0  0  0  0  0  0  0  0  0  0
    4.5981    4.2150    0.0000 H   0  0  0  0  0  0  0  0  0  0  0  0
    5.4646   -0.2749    0.0000 H   0  0  0  0  0  0  0  0  0  0  0  0
    6.8671   -2.7150    0.0000 H   0  0  0  0  0  0  0  0  0  0  0  0
    1.4631   -2.2150    0.0000 H   0  0  0  0  0  0  0  0  0  0  0  0
    2.8660    0.2150    0.0000 H   0  0  0  0  0  0  0  0  0  0  0  0
    4.2690   -2.2150    0.0000 H   0  0  0  0  0  0  0  0  0  0  0  0
    6.0010   -4.2150    0.0000 H   0  0  0  0  0  0  0  0  0  0  0  0
    3.0546   -1.7141    0.0000 H   0  0  0  0  0  0  0  0  0  0  0  0
    4.5981    0.2150    0.0000 H   0  0  0  0  0  0  0  0  0  0  0  0
  1 24  1  0  0  0  0
  1 28  1  0  0  0  0
  2 25  1  0  0  0  0
  2 62  1  0  0  0  0
  3 26  1  0  0  0  0
  3 63  1  0  0  0  0
  4 29  1  0  0  0  0
  4 64  1  0  0  0  0
  5  6  1  0  0  0  0
  5  7  1  0  0  0  0
  5 31  1  0  0  0  0
  5 32  1  0  0  0  0
  6  8  1  0  0  0  0
  6 33  1  0  0  0  0
  6 34  1  0  0  0  0
  7  9  1  0  0  0  0
  7 35  1  0  0  0  0
  7 36  1  0  0  0  0
  8 10  1  0  0  0  0
  8 37  1  0  0  0  0
  8 38  1  0  0  0  0
  9 12  1  0  0  0  0
  9 39  1  0  0  0  0
  9 40  1  0  0  0  0
 10 17  1  0  0  0  0
 10 41  1  0  0  0  0
 10 42  1  0  0  0  0
 11 13  1  0  0  0  0
 11 14  1  0  0  0  0
 11 43  1  0  0  0  0
 11 44  1  0  0  0  0
 12 18  1  0  0  0  0
 12 45  1  0  0  0  0
 12 46  1  0  0  0  0
 13 15  1  0  0  0  0
 13 47  1  0  0  0  0
 13 48  1  0  0  0  0
 14 16  1  0  0  0  0
 14 49  1  0  0  0  0
 14 50  1  0  0  0  0
 15 19  1  0  0  0  0
 15 51  1  0  0  0  0
 15 52  1  0  0  0  0
 16 20  1  0  0  0  0
 16 53  1  0  0  0  0
 16 54  1  0  0  0  0
 17 21  2  0  0  0  0
 17 22  1  0  0  0  0
 18 19  2  0  0  0  0
 18 55  1  0  0  0  0
 19 56  1  0  0  0  0
 20 23  1  0  0  0  0
 20 27  2  0  0  0  0
 21 26  1  0  0  0  0
 21 57  1  0  0  0  0
 22 25  2  0  0  0  0
 22 58  1  0  0  0  0
 23 28  2  0  0  0  0
 23 59  1  0  0  0  0
 24 25  1  0  0  0  0
 24 26  2  0  0  0  0
 27 29  1  0  0  0  0
 27 60  1  0  0  0  0
 28 30  1  0  0  0  0
 29 30  2  0  0  0  0
 30 61  1  0  0  0  0
M  END
>  <PUBCHEM_COMPOUND_CID>
44419746

>  <PUBCHEM_COMPOUND_CANONICALIZED>
1

>  <PUBCHEM_CACTVS_COMPLEXITY>
481

>  <PUBCHEM_CACTVS_HBOND_ACCEPTOR>
4

>  <PUBCHEM_CACTVS_HBOND_DONOR>
3

>  <PUBCHEM_CACTVS_ROTATABLE_BOND>
0

>  <PUBCHEM_CACTVS_SUBSKEYS>
AAADcfB4OAAAAAAAAAAAAAAAAAAAAAAAAAAwYAAAAAAAAAABQAAAGgAACAAADASAmAAwBoAABgCAAiBCAAACCAAgIAAIiAAGiIgNJyKGMRqCeCOlwBULuAeA4PwOIAABCAAAQABAAAIQAACAAAAAAAAAAA==

>  <PUBCHEM_IUPAC_INCHI>
InChI=1S/C26H34O4/c27-22-15-20-13-11-9-7-5-3-1-2-4-6-8-10-12-14-21-17-24(28)26(25(29)18-21)30-23(16-20)19-22/h1,3,15-19,27-29H,2,4-14H2/b3-1+

>  <PUBCHEM_IUPAC_INCHIKEY>
LWPGCSYZHNHGJW-HNQUOIGGSA-N

>  <PUBCHEM_XLOGP3_AA>
8.4

>  <PUBCHEM_EXACT_MASS>
410.246

>  <PUBCHEM_MOLECULAR_FORMULA>
C26H34O4

>  <PUBCHEM_MOLECULAR_WEIGHT>
410.554

>  <PUBCHEM_OPENEYE_CAN_SMILES>
C1CCCC=CCCCCCC2=CC(=CC(=C2)O)OC3=C(C=C(CCC1)C=C3O)O

>  <PUBCHEM_OPENEYE_ISO_SMILES>
C1CCC/C=C/CCCCCC2=CC(=CC(=C2)O)OC3=C(C=C(CCC1)C=C3O)O

>  <PUBCHEM_CACTVS_TPSA>
69.9

>  <PUBCHEM_MONOISOTOPIC_WEIGHT>
410.246

>  <PUBCHEM_TOTAL_CHARGE>
0

>  <PUBCHEM_HEAVY_ATOM_COUNT>
30

>  <PUBCHEM_ATOM_DEF_STEREO_COUNT>
0

>  <PUBCHEM_ATOM_UDEF_STEREO_COUNT>
0

>  <PUBCHEM_BOND_DEF_STEREO_COUNT>
1

>  <PUBCHEM_BOND_UDEF_STEREO_COUNT>
0

>  <PUBCHEM_ISOTOPIC_ATOM_COUNT>
0

>  <PUBCHEM_COMPONENT_COUNT>
1

>  <PUBCHEM_CACTVS_TAUTO_COUNT>
1

>  <PUBCHEM_COORDINATE_TYPE>
1
5
255

>  <PUBCHEM_BONDANNOTATIONS>
17  21  8
17  22  8
20  23  8
20  27  8
21  26  8
22  25  8
23  28  8
24  25  8
24  26  8
27  29  8
28  30  8
29  30  8

$$$$
