44445519
 OpenBabel06101807152D

 29 31  0  0  0  0  0  0  0  0999 V2000
    4.6660    1.8319    0.0000 O   0  0  0  0  0  0  0  0  0  0  0  0
    8.1962   -1.1922    0.0000 O   0  0  0  0  0  0  0  0  0  0  0  0
    4.6660   -2.1681    0.0000 O   0  0  0  0  0  0  0  0  0  0  0  0
    8.1923    1.8560    0.0000 O   0  0  0  0  0  0  0  0  0  0  0  0
    5.5321    0.3319    0.0000 C   0  0  0  0  0  0  0  0  0  0  0  0
    5.5321   -0.6681    0.0000 C   0  0  0  0  0  0  0  0  0  0  0  0
    3.8000    0.3319    0.0000 C   0  0  0  0  0  0  0  0  0  0  0  0
    3.8000   -0.6681    0.0000 C   0  0  0  0  0  0  0  0  0  0  0  0
    4.6660    0.8319    0.0000 C   0  0  0  0  0  0  0  0  0  0  0  0
    4.6660   -1.1681    0.0000 C   0  0  0  0  0  0  0  0  0  0  0  0
    6.4260    0.8666    0.0000 C   0  0  0  0  0  0  0  0  0  0  0  0
    7.3321    0.3527    0.0000 C   0  0  0  0  0  0  0  0  0  0  0  0
    6.4260   -1.2028    0.0000 C   0  0  0  0  0  0  0  0  0  0  0  0
    7.3321   -0.6889    0.0000 C   0  0  0  0  0  0  0  0  0  0  0  0
    2.9061    0.8666    0.0000 C   0  0  0  0  0  0  0  0  0  0  0  0
    2.9061   -1.2028    0.0000 C   0  0  0  0  0  0  0  0  0  0  0  0
    8.1962    0.8560    0.0000 C   0  0  0  0  0  0  0  0  0  0  0  0
    2.0000    0.3527    0.0000 C   0  0  0  0  0  0  0  0  0  0  0  0
    2.0000   -0.6889    0.0000 C   0  0  0  0  0  0  0  0  0  0  0  0
    6.4188    1.4865    0.0000 H   0  0  0  0  0  0  0  0  0  0  0  0
    6.4188   -1.8227    0.0000 H   0  0  0  0  0  0  0  0  0  0  0  0
    2.9132    1.4865    0.0000 H   0  0  0  0  0  0  0  0  0  0  0  0
    2.9132   -1.8227    0.0000 H   0  0  0  0  0  0  0  0  0  0  0  0
    8.4105    0.2743    0.0000 H   0  0  0  0  0  0  0  0  0  0  0  0
    8.8063    0.9661    0.0000 H   0  0  0  0  0  0  0  0  0  0  0  0
    1.4643    0.6648    0.0000 H   0  0  0  0  0  0  0  0  0  0  0  0
    1.4643   -1.0010    0.0000 H   0  0  0  0  0  0  0  0  0  0  0  0
    8.1938   -1.8122    0.0000 H   0  0  0  0  0  0  0  0  0  0  0  0
    8.7280    2.1681    0.0000 H   0  0  0  0  0  0  0  0  0  0  0  0
  1  9  2  0  0  0  0
  2 14  1  0  0  0  0
  2 28  1  0  0  0  0
  3 10  2  0  0  0  0
  4 17  1  0  0  0  0
  4 29  1  0  0  0  0
  5  6  2  0  0  0  0
  5  9  1  0  0  0  0
  5 11  1  0  0  0  0
  6 10  1  0  0  0  0
  6 13  1  0  0  0  0
  7  8  1  0  0  0  0
  7  9  1  0  0  0  0
  7 15  2  0  0  0  0
  8 10  1  0  0  0  0
  8 16  2  0  0  0  0
 11 12  2  0  0  0  0
 11 20  1  0  0  0  0
 12 14  1  0  0  0  0
 12 17  1  0  0  0  0
 13 14  2  0  0  0  0
 13 21  1  0  0  0  0
 15 18  1  0  0  0  0
 15 22  1  0  0  0  0
 16 19  1  0  0  0  0
 16 23  1  0  0  0  0
 17 24  1  0  0  0  0
 17 25  1  0  0  0  0
 18 19  2  0  0  0  0
 18 26  1  0  0  0  0
 19 27  1  0  0  0  0
M  END
>  <PUBCHEM_COMPOUND_CID>
44445519

>  <PUBCHEM_COMPOUND_CANONICALIZED>
1

>  <PUBCHEM_CACTVS_COMPLEXITY>
392

>  <PUBCHEM_CACTVS_HBOND_ACCEPTOR>
4

>  <PUBCHEM_CACTVS_HBOND_DONOR>
2

>  <PUBCHEM_CACTVS_ROTATABLE_BOND>
1

>  <PUBCHEM_CACTVS_SUBSKEYS>
AAADccBwOAAAAAAAAAAAAAAAAAAAAAAAAAAwYMAAAAAAAADBQAAAGgAACAAADASgmAIwBoAAAgCIAqBSAAACAAAkIAAIiAEGCMgINzKCFRKAcQAlwBEImYeLzPDO4AADAAAYAADAAAYAADAAAAAAAAAAAA==

>  <PUBCHEM_IUPAC_OPENEYE_NAME>
2-hydroxy-3-(hydroxymethyl)anthracene-9,10-dione

>  <PUBCHEM_IUPAC_CAS_NAME>
2-hydroxy-3-(hydroxymethyl)anthracene-9,10-dione

>  <PUBCHEM_IUPAC_NAME>
2-hydroxy-3-(hydroxymethyl)anthracene-9,10-dione

>  <PUBCHEM_IUPAC_SYSTEMATIC_NAME>
2-(hydroxymethyl)-3-oxidanyl-anthracene-9,10-dione

>  <PUBCHEM_IUPAC_TRADITIONAL_NAME>
2-hydroxy-3-methylol-9,10-anthraquinone

>  <PUBCHEM_IUPAC_INCHI>
InChI=1S/C15H10O4/c16-7-8-5-11-12(6-13(8)17)15(19)10-4-2-1-3-9(10)14(11)18/h1-6,16-17H,7H2

>  <PUBCHEM_IUPAC_INCHIKEY>
LMXDYBJTJGPZPD-UHFFFAOYSA-N

>  <PUBCHEM_XLOGP3_AA>
2.2

>  <PUBCHEM_EXACT_MASS>
254.058

>  <PUBCHEM_MOLECULAR_FORMULA>
C15H10O4

>  <PUBCHEM_MOLECULAR_WEIGHT>
254.241

>  <PUBCHEM_OPENEYE_CAN_SMILES>
C1=CC=C2C(=C1)C(=O)C3=CC(=C(C=C3C2=O)O)CO

>  <PUBCHEM_OPENEYE_ISO_SMILES>
C1=CC=C2C(=C1)C(=O)C3=CC(=C(C=C3C2=O)O)CO

>  <PUBCHEM_CACTVS_TPSA>
74.6

>  <PUBCHEM_MONOISOTOPIC_WEIGHT>
254.058

>  <PUBCHEM_TOTAL_CHARGE>
0

>  <PUBCHEM_HEAVY_ATOM_COUNT>
19

>  <PUBCHEM_ATOM_DEF_STEREO_COUNT>
0

>  <PUBCHEM_ATOM_UDEF_STEREO_COUNT>
0

>  <PUBCHEM_BOND_DEF_STEREO_COUNT>
0

>  <PUBCHEM_BOND_UDEF_STEREO_COUNT>
0

>  <PUBCHEM_ISOTOPIC_ATOM_COUNT>
0

>  <PUBCHEM_COMPONENT_COUNT>
1

>  <PUBCHEM_CACTVS_TAUTO_COUNT>
5

>  <PUBCHEM_COORDINATE_TYPE>
1
5
255

>  <PUBCHEM_BONDANNOTATIONS>
11  12  8
12  14  8
13  14  8
15  18  8
16  19  8
18  19  8
5  11  8
5  6  8
6  13  8
7  15  8
7  8  8
8  16  8

$$$$
