44559982
 OpenBabel06101807152D

 54 56  0  0  0  0  0  0  0  0999 V2000
    7.2764    1.8292    0.0000 O   0  0  0  0  0  0  0  0  0  0  0  0
    3.7320    1.6340    0.0000 O   0  0  0  0  0  0  0  0  0  0  0  0
   10.8600    4.3660    0.0000 O   0  0  0  0  0  0  0  0  0  0  0  0
   10.8600    0.9019    0.0000 O   0  0  0  0  0  0  0  0  0  0  0  0
    5.4641    1.6340    0.0000 C   0  0  0  0  0  0  0  0  0  0  0  0
    6.3301    2.1340    0.0000 C   0  0  0  0  0  0  0  0  0  0  0  0
    5.4641    0.6340    0.0000 C   0  0  0  0  0  0  0  0  0  0  0  0
    6.3301    3.1340    0.0000 C   0  0  0  0  0  0  0  0  0  0  0  0
    4.5981   -0.8660    0.0000 C   0  0  0  0  0  0  0  0  0  0  0  0
    3.7320   -1.3660    0.0000 C   0  0  0  0  0  0  0  0  0  0  0  0
    4.5981    0.1340    0.0000 C   0  0  0  0  0  0  0  0  0  0  0  0
    4.5981    2.1340    0.0000 C   0  0  0  0  0  0  0  0  0  0  0  0
    7.8600    2.6340    0.0000 C   0  0  0  0  0  0  0  0  0  0  0  0
    7.2764    3.4387    0.0000 C   0  0  0  0  0  0  0  0  0  0  0  0
    3.7320   -2.3660    0.0000 C   0  0  0  0  0  0  0  0  0  0  0  0
    5.4641    3.6340    0.0000 C   0  0  0  0  0  0  0  0  0  0  0  0
    4.5981    3.1340    0.0000 C   0  0  0  0  0  0  0  0  0  0  0  0
    8.8600    2.6340    0.0000 C   0  0  0  0  0  0  0  0  0  0  0  0
    5.4641   -1.3660    0.0000 C   0  0  0  0  0  0  0  0  0  0  0  0
    2.8660   -2.8660    0.0000 C   0  0  0  0  0  0  0  0  0  0  0  0
    9.3600    1.7680    0.0000 C   0  0  0  0  0  0  0  0  0  0  0  0
    9.3600    3.5000    0.0000 C   0  0  0  0  0  0  0  0  0  0  0  0
    2.8660   -3.8660    0.0000 C   0  0  0  0  0  0  0  0  0  0  0  0
   10.3600    3.5000    0.0000 C   0  0  0  0  0  0  0  0  0  0  0  0
   10.3600    1.7680    0.0000 C   0  0  0  0  0  0  0  0  0  0  0  0
   10.8600    2.6340    0.0000 C   0  0  0  0  0  0  0  0  0  0  0  0
    2.0000   -4.3660    0.0000 C   0  0  0  0  0  0  0  0  0  0  0  0
    3.7320   -4.3660    0.0000 C   0  0  0  0  0  0  0  0  0  0  0  0
    5.6762    0.0514    0.0000 H   0  0  0  0  0  0  0  0  0  0  0  0
    6.0747    0.7416    0.0000 H   0  0  0  0  0  0  0  0  0  0  0  0
    3.5200   -0.7834    0.0000 H   0  0  0  0  0  0  0  0  0  0  0  0
    3.1215   -1.4737    0.0000 H   0  0  0  0  0  0  0  0  0  0  0  0
    4.0611    0.4440    0.0000 H   0  0  0  0  0  0  0  0  0  0  0  0
    7.4690    4.0280    0.0000 H   0  0  0  0  0  0  0  0  0  0  0  0
    3.9441   -2.9486    0.0000 H   0  0  0  0  0  0  0  0  0  0  0  0
    4.3426   -2.2584    0.0000 H   0  0  0  0  0  0  0  0  0  0  0  0
    5.4641    4.2540    0.0000 H   0  0  0  0  0  0  0  0  0  0  0  0
    4.0611    3.4440    0.0000 H   0  0  0  0  0  0  0  0  0  0  0  0
    5.1541   -1.9030    0.0000 H   0  0  0  0  0  0  0  0  0  0  0  0
    6.0010   -1.6760    0.0000 H   0  0  0  0  0  0  0  0  0  0  0  0
    5.7741   -0.8291    0.0000 H   0  0  0  0  0  0  0  0  0  0  0  0
    2.3291   -2.5560    0.0000 H   0  0  0  0  0  0  0  0  0  0  0  0
    9.0500    1.2310    0.0000 H   0  0  0  0  0  0  0  0  0  0  0  0
    9.0500    4.0369    0.0000 H   0  0  0  0  0  0  0  0  0  0  0  0
    3.1951    1.9440    0.0000 H   0  0  0  0  0  0  0  0  0  0  0  0
   11.4800    2.6340    0.0000 H   0  0  0  0  0  0  0  0  0  0  0  0
    1.6900   -3.8291    0.0000 H   0  0  0  0  0  0  0  0  0  0  0  0
    1.4631   -4.6760    0.0000 H   0  0  0  0  0  0  0  0  0  0  0  0
    3.4220   -4.9030    0.0000 H   0  0  0  0  0  0  0  0  0  0  0  0
    4.2690   -4.6760    0.0000 H   0  0  0  0  0  0  0  0  0  0  0  0
    4.0420   -3.8291    0.0000 H   0  0  0  0  0  0  0  0  0  0  0  0
    2.3100   -4.9030    0.0000 H   0  0  0  0  0  0  0  0  0  0  0  0
   11.4800    4.3660    0.0000 H   0  0  0  0  0  0  0  0  0  0  0  0
   11.4800    0.9019    0.0000 H   0  0  0  0  0  0  0  0  0  0  0  0
  1  6  1  0  0  0  0
  1 13  1  0  0  0  0
  2 12  1  0  0  0  0
  2 45  1  0  0  0  0
  3 24  1  0  0  0  0
  3 53  1  0  0  0  0
  4 25  1  0  0  0  0
  4 54  1  0  0  0  0
  5  6  1  0  0  0  0
  5  7  1  0  0  0  0
  5 12  2  0  0  0  0
  6  8  2  0  0  0  0
  7 11  1  0  0  0  0
  7 29  1  0  0  0  0
  7 30  1  0  0  0  0
  8 14  1  0  0  0  0
  8 16  1  0  0  0  0
  9 10  1  0  0  0  0
  9 11  2  0  0  0  0
  9 19  1  0  0  0  0
 10 15  1  0  0  0  0
 10 31  1  0  0  0  0
 10 32  1  0  0  0  0
 11 33  1  0  0  0  0
 12 17  1  0  0  0  0
 13 14  2  0  0  0  0
 13 18  1  0  0  0  0
 14 34  1  0  0  0  0
 15 20  1  0  0  0  0
 15 35  1  0  0  0  0
 15 36  1  0  0  0  0
 16 17  2  0  0  0  0
 16 37  1  0  0  0  0
 17 38  1  0  0  0  0
 18 21  2  0  0  0  0
 18 22  1  0  0  0  0
 19 39  1  0  0  0  0
 19 40  1  0  0  0  0
 19 41  1  0  0  0  0
 20 23  2  0  0  0  0
 20 42  1  0  0  0  0
 21 25  1  0  0  0  0
 21 43  1  0  0  0  0
 22 24  2  0  0  0  0
 22 44  1  0  0  0  0
 23 27  1  0  0  0  0
 23 28  1  0  0  0  0
 24 26  1  0  0  0  0
 25 26  2  0  0  0  0
 26 46  1  0  0  0  0
 27 47  1  0  0  0  0
 27 48  1  0  0  0  0
 27 52  1  0  0  0  0
 28 49  1  0  0  0  0
 28 50  1  0  0  0  0
 28 51  1  0  0  0  0
M  END
>  <PUBCHEM_COMPOUND_CID>
44559982

>  <PUBCHEM_COMPOUND_CANONICALIZED>
1

>  <PUBCHEM_CACTVS_COMPLEXITY>
555

>  <PUBCHEM_CACTVS_HBOND_ACCEPTOR>
4

>  <PUBCHEM_CACTVS_HBOND_DONOR>
3

>  <PUBCHEM_CACTVS_ROTATABLE_BOND>
6

>  <PUBCHEM_CACTVS_SUBSKEYS>
AAADceB4OAAAAAAAAAAAAAAAAAAAASAAAAAwYAAAAAAAAEgB9AAAGgAACAAADASAmAAyBsAABkCIAqBSAAACCAAkIAAIiAEGCMgMJzaGNRqCeWCl4BUIuYfK7PzOIAADCAAIAABAAAYQABAAAAAAAAAAAA==

>  <PUBCHEM_IUPAC_OPENEYE_NAME>
5-[7-[(2E)-3,7-dimethylocta-2,6-dienyl]-6-hydroxy-benzofuran-2-yl]benzene-1,3-diol

>  <PUBCHEM_IUPAC_CAS_NAME>
5-[7-[(2E)-3,7-dimethylocta-2,6-dienyl]-6-hydroxy-2-benzofuranyl]benzene-1,3-diol

>  <PUBCHEM_IUPAC_NAME>
5-[7-[(2E)-3,7-dimethylocta-2,6-dienyl]-6-hydroxy-1-benzofuran-2-yl]benzene-1,3-diol

>  <PUBCHEM_IUPAC_SYSTEMATIC_NAME>
5-[7-[(2E)-3,7-dimethylocta-2,6-dienyl]-6-oxidanyl-1-benzofuran-2-yl]benzene-1,3-diol

>  <PUBCHEM_IUPAC_TRADITIONAL_NAME>
5-[7-[(2E)-3,7-dimethylocta-2,6-dienyl]-6-hydroxy-benzofuran-2-yl]resorcinol

>  <PUBCHEM_IUPAC_INCHI>
InChI=1S/C24H26O4/c1-15(2)5-4-6-16(3)7-9-21-22(27)10-8-17-13-23(28-24(17)21)18-11-19(25)14-20(26)12-18/h5,7-8,10-14,25-27H,4,6,9H2,1-3H3/b16-7+

>  <PUBCHEM_IUPAC_INCHIKEY>
CPDKCYSXZONWHC-FRKPEAEDSA-N

>  <PUBCHEM_XLOGP3_AA>
6.7

>  <PUBCHEM_EXACT_MASS>
378.183

>  <PUBCHEM_MOLECULAR_FORMULA>
C24H26O4

>  <PUBCHEM_MOLECULAR_WEIGHT>
378.468

>  <PUBCHEM_OPENEYE_CAN_SMILES>
CC(=CCCC(=CCC1=C(C=CC2=C1OC(=C2)C3=CC(=CC(=C3)O)O)O)C)C

>  <PUBCHEM_OPENEYE_ISO_SMILES>
CC(=CCC/C(=C/CC1=C(C=CC2=C1OC(=C2)C3=CC(=CC(=C3)O)O)O)/C)C

>  <PUBCHEM_CACTVS_TPSA>
73.8

>  <PUBCHEM_MONOISOTOPIC_WEIGHT>
378.183

>  <PUBCHEM_TOTAL_CHARGE>
0

>  <PUBCHEM_HEAVY_ATOM_COUNT>
28

>  <PUBCHEM_ATOM_DEF_STEREO_COUNT>
0

>  <PUBCHEM_ATOM_UDEF_STEREO_COUNT>
0

>  <PUBCHEM_BOND_DEF_STEREO_COUNT>
1

>  <PUBCHEM_BOND_UDEF_STEREO_COUNT>
0

>  <PUBCHEM_ISOTOPIC_ATOM_COUNT>
0

>  <PUBCHEM_COMPONENT_COUNT>
1

>  <PUBCHEM_CACTVS_TAUTO_COUNT>
25

>  <PUBCHEM_COORDINATE_TYPE>
1
5
255

>  <PUBCHEM_BONDANNOTATIONS>
1  13  8
1  6  8
12  17  8
13  14  8
16  17  8
18  21  8
18  22  8
21  25  8
22  24  8
24  26  8
25  26  8
5  12  8
5  6  8
6  8  8
8  14  8
8  16  8

$$$$
