445609
 OpenBabel06101807152D

  4  2  0  0  0  0  0  0  0  0999 V2000
    0.2869    0.0000    0.0000 Fe  0  0  0  0  0 15  0  0  0  0  0  0
    0.5369    2.5000    0.0000 O   0  0  0  0  0  0  0  0  0  0  0  0
    1.0739    2.8100    0.0000 H   0  0  0  0  0  0  0  0  0  0  0  0
    0.0000    2.8100    0.0000 H   0  0  0  0  0  0  0  0  0  0  0  0
  2  3  1  0  0  0  0
  2  4  1  0  0  0  0
M  END
>  <PUBCHEM_COMPOUND_CID>
445609

>  <PUBCHEM_COMPOUND_CANONICALIZED>
1

>  <PUBCHEM_CACTVS_COMPLEXITY>
0

>  <PUBCHEM_CACTVS_HBOND_ACCEPTOR>
1

>  <PUBCHEM_CACTVS_HBOND_DONOR>
1

>  <PUBCHEM_CACTVS_ROTATABLE_BOND>
0

>  <PUBCHEM_CACTVS_SUBSKEYS>
AAADcQAAIAAAAAAgAAAAAAAAAAAAAAAAAAAAAAAAAAAAAAAAAAAAAAAACAAAAAAAAAAAAAAAAAAAAAAAAAAAAAAAAAAAAAAAAAAAAAAAAAAAAAAAAAAAAAAAAAAAAAAAAAAAAAAAAAAAAAAAAAAAAAAAAA==

>  <PUBCHEM_IUPAC_OPENEYE_NAME>
iron;hydrate

>  <PUBCHEM_IUPAC_CAS_NAME>
iron;hydrate

>  <PUBCHEM_IUPAC_NAME>
iron;hydrate

>  <PUBCHEM_IUPAC_SYSTEMATIC_NAME>
iron;hydrate

>  <PUBCHEM_IUPAC_TRADITIONAL_NAME>
iron;hydrate

>  <PUBCHEM_IUPAC_INCHI>
InChI=1S/Fe.H2O/h;1H2

>  <PUBCHEM_IUPAC_INCHIKEY>
WKPSFPXMYGFAQW-UHFFFAOYSA-N

>  <PUBCHEM_EXACT_MASS>
73.946

>  <PUBCHEM_MOLECULAR_FORMULA>
FeH2O

>  <PUBCHEM_MOLECULAR_WEIGHT>
73.86

>  <PUBCHEM_OPENEYE_CAN_SMILES>
O.[Fe]

>  <PUBCHEM_OPENEYE_ISO_SMILES>
O.[Fe]

>  <PUBCHEM_CACTVS_TPSA>
1

>  <PUBCHEM_MONOISOTOPIC_WEIGHT>
73.946

>  <PUBCHEM_TOTAL_CHARGE>
0

>  <PUBCHEM_HEAVY_ATOM_COUNT>
2

>  <PUBCHEM_ATOM_DEF_STEREO_COUNT>
0

>  <PUBCHEM_ATOM_UDEF_STEREO_COUNT>
0

>  <PUBCHEM_BOND_DEF_STEREO_COUNT>
0

>  <PUBCHEM_BOND_UDEF_STEREO_COUNT>
0

>  <PUBCHEM_ISOTOPIC_ATOM_COUNT>
0

>  <PUBCHEM_COMPONENT_COUNT>
2

>  <PUBCHEM_CACTVS_TAUTO_COUNT>
1

>  <PUBCHEM_COORDINATE_TYPE>
1
5
255

$$$$
