44613434
 OpenBabel06101807152D

 47 46  0  0  0  0  0  0  0  0999 V2000
    3.7320   -0.0600    0.0000 O   0  0  0  0  0  0  0  0  0  0  0  0
    2.8660   -1.5600    0.0000 O   0  0  0  0  0  0  0  0  0  0  0  0
   15.8564    0.9400    0.0000 C   0  0  0  0  0  0  0  0  0  0  0  0
   16.7224    0.4400    0.0000 C   0  0  0  0  0  0  0  0  0  0  0  0
   14.9904    0.4400    0.0000 C   0  0  0  0  0  0  0  0  0  0  0  0
   17.5885    0.9400    0.0000 C   0  0  0  0  0  0  0  0  0  0  0  0
   14.1244    0.9400    0.0000 C   0  0  0  0  0  0  0  0  0  0  0  0
   18.4545    0.4400    0.0000 C   0  0  0  0  0  0  0  0  0  0  0  0
   13.2583    0.4400    0.0000 C   0  0  0  0  0  0  0  0  0  0  0  0
   12.3923    0.9400    0.0000 C   0  0  0  0  0  0  0  0  0  0  0  0
   11.5263    0.4400    0.0000 C   0  0  0  0  0  0  0  0  0  0  0  0
   10.6603    0.9400    0.0000 C   0  0  0  0  0  0  0  0  0  0  0  0
    9.7942    0.4400    0.0000 C   0  0  0  0  0  0  0  0  0  0  0  0
    4.5981   -0.5600    0.0000 C   0  0  0  0  0  0  0  0  0  0  0  0
    5.4641   -0.0600    0.0000 C   0  0  0  0  0  0  0  0  0  0  0  0
    6.3301   -0.5600    0.0000 C   0  0  0  0  0  0  0  0  0  0  0  0
    7.1962   -0.0600    0.0000 C   0  0  0  0  0  0  0  0  0  0  0  0
    8.9282   -0.0600    0.0000 C   0  0  0  0  0  0  0  0  0  0  0  0
    8.0622   -0.5600    0.0000 C   0  0  0  0  0  0  0  0  0  0  0  0
    2.8660   -0.5600    0.0000 C   0  0  0  0  0  0  0  0  0  0  0  0
    2.0000   -0.0600    0.0000 C   0  0  0  0  0  0  0  0  0  0  0  0
   16.2549    1.4150    0.0000 H   0  0  0  0  0  0  0  0  0  0  0  0
   15.4579    1.4150    0.0000 H   0  0  0  0  0  0  0  0  0  0  0  0
   16.3239   -0.0349    0.0000 H   0  0  0  0  0  0  0  0  0  0  0  0
   17.1210   -0.0349    0.0000 H   0  0  0  0  0  0  0  0  0  0  0  0
   14.5919   -0.0349    0.0000 H   0  0  0  0  0  0  0  0  0  0  0  0
   15.3889   -0.0349    0.0000 H   0  0  0  0  0  0  0  0  0  0  0  0
   17.9870    1.4150    0.0000 H   0  0  0  0  0  0  0  0  0  0  0  0
   17.1899    1.4150    0.0000 H   0  0  0  0  0  0  0  0  0  0  0  0
   14.5229    1.4150    0.0000 H   0  0  0  0  0  0  0  0  0  0  0  0
   13.7258    1.4150    0.0000 H   0  0  0  0  0  0  0  0  0  0  0  0
   18.1445   -0.0969    0.0000 H   0  0  0  0  0  0  0  0  0  0  0  0
   18.9914    0.1300    0.0000 H   0  0  0  0  0  0  0  0  0  0  0  0
   18.7645    0.9769    0.0000 H   0  0  0  0  0  0  0  0  0  0  0  0
   13.2583   -0.1800    0.0000 H   0  0  0  0  0  0  0  0  0  0  0  0
   12.3923    1.5600    0.0000 H   0  0  0  0  0  0  0  0  0  0  0  0
   11.5263   -0.1800    0.0000 H   0  0  0  0  0  0  0  0  0  0  0  0
   10.6603    1.5600    0.0000 H   0  0  0  0  0  0  0  0  0  0  0  0
    4.1996   -1.0350    0.0000 H   0  0  0  0  0  0  0  0  0  0  0  0
    4.9966   -1.0350    0.0000 H   0  0  0  0  0  0  0  0  0  0  0  0
    5.4641    0.5600    0.0000 H   0  0  0  0  0  0  0  0  0  0  0  0
    6.3301   -1.1800    0.0000 H   0  0  0  0  0  0  0  0  0  0  0  0
    7.1962    0.5600    0.0000 H   0  0  0  0  0  0  0  0  0  0  0  0
    8.0622   -1.1800    0.0000 H   0  0  0  0  0  0  0  0  0  0  0  0
    2.3100    0.4769    0.0000 H   0  0  0  0  0  0  0  0  0  0  0  0
    1.4631    0.2500    0.0000 H   0  0  0  0  0  0  0  0  0  0  0  0
    1.6900   -0.5969    0.0000 H   0  0  0  0  0  0  0  0  0  0  0  0
  1 14  1  0  0  0  0
  1 20  1  0  0  0  0
  2 20  2  0  0  0  0
  3  4  1  0  0  0  0
  3  5  1  0  0  0  0
  3 22  1  0  0  0  0
  3 23  1  0  0  0  0
  4  6  1  0  0  0  0
  4 24  1  0  0  0  0
  4 25  1  0  0  0  0
  5  7  1  0  0  0  0
  5 26  1  0  0  0  0
  5 27  1  0  0  0  0
  6  8  1  0  0  0  0
  6 28  1  0  0  0  0
  6 29  1  0  0  0  0
  7  9  1  0  0  0  0
  7 30  1  0  0  0  0
  7 31  1  0  0  0  0
  8 32  1  0  0  0  0
  8 33  1  0  0  0  0
  8 34  1  0  0  0  0
  9 10  2  0  0  0  0
  9 35  1  0  0  0  0
 10 11  1  0  0  0  0
 10 36  1  0  0  0  0
 11 12  2  0  0  0  0
 11 37  1  0  0  0  0
 12 13  1  0  0  0  0
 12 38  1  0  0  0  0
 13 18  3  0  0  0  0
 14 15  1  0  0  0  0
 14 39  1  0  0  0  0
 14 40  1  0  0  0  0
 15 16  2  0  0  0  0
 15 41  1  0  0  0  0
 16 17  1  0  0  0  0
 16 42  1  0  0  0  0
 17 19  2  0  0  0  0
 17 43  1  0  0  0  0
 18 19  1  0  0  0  0
 19 44  1  0  0  0  0
 20 21  1  0  0  0  0
 21 45  1  0  0  0  0
 21 46  1  0  0  0  0
 21 47  1  0  0  0  0
M  END
>  <PUBCHEM_COMPOUND_CID>
44613434

>  <PUBCHEM_COMPOUND_CANONICALIZED>
1

>  <PUBCHEM_CACTVS_COMPLEXITY>
439

>  <PUBCHEM_CACTVS_HBOND_ACCEPTOR>
2

>  <PUBCHEM_CACTVS_HBOND_DONOR>
0

>  <PUBCHEM_CACTVS_ROTATABLE_BOND>
10

>  <PUBCHEM_CACTVS_SUBSKEYS>
AAADceB4MAAAAAAAAAAAAAAAAAAAAAAAAAAAAAAAAAAAAAAAAAAAGgAAAAAACACggAICCAAABADIECDSCAAAAAAgAAAICAAAAAgIBAIAIQACEAAAgAAIoAMAgAAAAAAAAAAAAAAAAAAAAAAAAAAAAAAAAA==

>  <PUBCHEM_IUPAC_OPENEYE_NAME>
[(2E,4E,8E,10E)-heptadeca-2,4,8,10-tetraen-6-ynyl] acetate

>  <PUBCHEM_IUPAC_CAS_NAME>
acetic acid [(2E,4E,8E,10E)-heptadeca-2,4,8,10-tetraen-6-ynyl] ester

>  <PUBCHEM_IUPAC_NAME>
[(2E,4E,8E,10E)-heptadeca-2,4,8,10-tetraen-6-ynyl] acetate

>  <PUBCHEM_IUPAC_SYSTEMATIC_NAME>
[(2E,4E,8E,10E)-heptadeca-2,4,8,10-tetraen-6-ynyl] ethanoate

>  <PUBCHEM_IUPAC_TRADITIONAL_NAME>
acetic acid [(2E,4E,8E,10E)-heptadeca-2,4,8,10-tetraen-6-ynyl] ester

>  <PUBCHEM_IUPAC_INCHI>
InChI=1S/C19H26O2/c1-3-4-5-6-7-8-9-10-11-12-13-14-15-16-17-18-21-19(2)20/h8-11,14-17H,3-7,18H2,1-2H3/b9-8+,11-10+,15-14+,17-16+

>  <PUBCHEM_IUPAC_INCHIKEY>
MAZDUSRZUTVBOS-SPONOCFTSA-N

>  <PUBCHEM_XLOGP3_AA>
5.9

>  <PUBCHEM_EXACT_MASS>
286.193

>  <PUBCHEM_MOLECULAR_FORMULA>
C19H26O2

>  <PUBCHEM_MOLECULAR_WEIGHT>
286.415

>  <PUBCHEM_OPENEYE_CAN_SMILES>
CCCCCCC=CC=CC#CC=CC=CCOC(=O)C

>  <PUBCHEM_OPENEYE_ISO_SMILES>
CCCCCC/C=C/C=C/C#C/C=C/C=C/COC(=O)C

>  <PUBCHEM_CACTVS_TPSA>
26.3

>  <PUBCHEM_MONOISOTOPIC_WEIGHT>
286.193

>  <PUBCHEM_TOTAL_CHARGE>
0

>  <PUBCHEM_HEAVY_ATOM_COUNT>
21

>  <PUBCHEM_ATOM_DEF_STEREO_COUNT>
0

>  <PUBCHEM_ATOM_UDEF_STEREO_COUNT>
0

>  <PUBCHEM_BOND_DEF_STEREO_COUNT>
4

>  <PUBCHEM_BOND_UDEF_STEREO_COUNT>
0

>  <PUBCHEM_ISOTOPIC_ATOM_COUNT>
0

>  <PUBCHEM_COMPONENT_COUNT>
1

>  <PUBCHEM_CACTVS_TAUTO_COUNT>
1

>  <PUBCHEM_COORDINATE_TYPE>
1
5
255

$$$$
