447199
 OpenBabel06101807152D

 32 34  0  0  1  0  0  0  0  0999 V2000
    4.4026    1.1580    0.0000 O   0  0  0  0  0  0  0  0  0  0  0  0
    6.7485    0.0662    0.0000 O   0  0  0  0  0  0  0  0  0  0  0  0
    6.7523    2.2418    0.0000 O   0  0  0  0  0  0  0  0  0  0  0  0
    3.7066    3.1272    0.0000 O   0  0  0  0  0  0  0  0  0  0  0  0
    5.2619   -1.4072    0.0000 N   0  0  0  0  0  0  0  0  0  0  0  0
    4.6783   -2.2120    0.0000 N   0  0  0  0  0  0  0  0  0  0  0  0
    2.8660   -0.4072    0.0000 N   0  0  0  0  0  0  0  0  0  0  0  0
    2.0000   -1.9072    0.0000 N   0  0  0  0  0  0  0  0  0  0  0  0
    2.8660   -3.4072    0.0000 N   0  0  0  0  0  0  0  0  0  0  0  0
    5.9405    0.6554    0.0000 C   0  0  1  0  0  0  0  0  0  0  0  0
    4.9889    0.3480    0.0000 C   0  0  2  0  0  0  0  0  0  0  0  0
    5.9422    1.6554    0.0000 C   0  0  1  0  0  0  0  0  0  0  0  0
    4.9917    1.9660    0.0000 C   0  0  1  0  0  0  0  0  0  0  0  0
    4.6783   -0.6025    0.0000 C   0  0  0  0  0  0  0  0  0  0  0  0
    4.6844    2.9176    0.0000 C   0  0  0  0  0  0  0  0  0  0  0  0
    3.7320   -0.9072    0.0000 C   0  0  0  0  0  0  0  0  0  0  0  0
    3.7320   -1.9072    0.0000 C   0  0  0  0  0  0  0  0  0  0  0  0
    2.8660   -2.4072    0.0000 C   0  0  0  0  0  0  0  0  0  0  0  0
    2.0000   -0.9072    0.0000 C   0  0  0  0  0  0  0  0  0  0  0  0
    6.4934    0.9359    0.0000 H   0  0  0  0  0  0  0  0  0  0  0  0
    5.5889   -0.2541    0.0000 H   0  0  0  0  0  0  0  0  0  0  0  0
    5.8463    2.2679    0.0000 H   0  0  0  0  0  0  0  0  0  0  0  0
    4.3795    2.0641    0.0000 H   0  0  0  0  0  0  0  0  0  0  0  0
    5.2985    3.0029    0.0000 H   0  0  0  0  0  0  0  0  0  0  0  0
    4.7071    3.5372    0.0000 H   0  0  0  0  0  0  0  0  0  0  0  0
    7.3154    0.3174    0.0000 H   0  0  0  0  0  0  0  0  0  0  0  0
    6.6886    2.8585    0.0000 H   0  0  0  0  0  0  0  0  0  0  0  0
    5.8819   -1.4072    0.0000 H   0  0  0  0  0  0  0  0  0  0  0  0
    3.5160    3.7172    0.0000 H   0  0  0  0  0  0  0  0  0  0  0  0
    1.4631   -0.5972    0.0000 H   0  0  0  0  0  0  0  0  0  0  0  0
    2.3291   -3.7172    0.0000 H   0  0  0  0  0  0  0  0  0  0  0  0
    3.4030   -3.7172    0.0000 H   0  0  0  0  0  0  0  0  0  0  0  0
  1 11  1  0  0  0  0
  1 13  1  0  0  0  0
  2 26  1  0  0  0  0
  3 27  1  0  0  0  0
  4 15  1  0  0  0  0
  4 29  1  0  0  0  0
  5  6  1  0  0  0  0
  5 14  1  0  0  0  0
  5 28  1  0  0  0  0
  6 17  2  0  0  0  0
  7 16  1  0  0  0  0
  7 19  2  0  0  0  0
  8 18  2  0  0  0  0
  8 19  1  0  0  0  0
  9 18  1  0  0  0  0
  9 31  1  0  0  0  0
  9 32  1  0  0  0  0
 10  2  1  0  0  0  0
 10 11  1  6  0  0  0
 10 20  1  0  0  0  0
 11 14  1  0  0  0  0
 11 21  1  1  0  0  0
 12  3  1  0  0  0  0
 12 10  1  6  0  0  0
 12 22  1  0  0  0  0
 13 12  1  1  0  0  0
 13 15  1  0  0  0  0
 13 23  1  0  0  0  0
 14 16  2  0  0  0  0
 15 24  1  0  0  0  0
 15 25  1  0  0  0  0
 16 17  1  0  0  0  0
 17 18  1  0  0  0  0
 19 30  1  0  0  0  0
M  END
>  <PUBCHEM_COMPOUND_CID>
447199

>  <PUBCHEM_COMPOUND_CANONICALIZED>
1

>  <PUBCHEM_CACTVS_COMPLEXITY>
335

>  <PUBCHEM_CACTVS_HBOND_ACCEPTOR>
8

>  <PUBCHEM_CACTVS_HBOND_DONOR>
5

>  <PUBCHEM_CACTVS_ROTATABLE_BOND>
2

>  <PUBCHEM_CACTVS_SUBSKEYS>
AAADccBzuAAAAAAAAAAAAAAAAAAAAWJAAAAsAAAAAAAAAFgB+AAAHgAYCAAACByhlgYF8LZrFgCiAQZhZASShC0xEKAR+SA4XJiLfiLA+NmX1Ahv2ANL6Cfw8KcAAAAAAAAAAAAAAAAAAAAAAAAAAAAAAA==

>  <PUBCHEM_IUPAC_OPENEYE_NAME>
(2S,3R,4S,5R)-2-(7-amino-2H-pyrazolo[4,3-d]pyrimidin-3-yl)-5-(hydroxymethyl)tetrahydrofuran-3,4-diol

>  <PUBCHEM_IUPAC_CAS_NAME>
(2S,3R,4S,5R)-2-(7-amino-2H-pyrazolo[4,3-d]pyrimidin-3-yl)-5-(hydroxymethyl)oxolane-3,4-diol

>  <PUBCHEM_IUPAC_NAME>
(2S,3R,4S,5R)-2-(7-amino-2H-pyrazolo[4,3-d]pyrimidin-3-yl)-5-(hydroxymethyl)oxolane-3,4-diol

>  <PUBCHEM_IUPAC_SYSTEMATIC_NAME>
(2S,3R,4S,5R)-2-(7-azanyl-2H-pyrazolo[4,3-d]pyrimidin-3-yl)-5-(hydroxymethyl)oxolane-3,4-diol

>  <PUBCHEM_IUPAC_TRADITIONAL_NAME>
(2S,3R,4S,5R)-2-(7-amino-2H-pyrazolo[4,3-d]pyrimidin-3-yl)-5-methylol-tetrahydrofuran-3,4-diol

>  <PUBCHEM_IUPAC_INCHI>
InChI=1S/C10H13N5O4/c11-10-6-4(12-2-13-10)5(14-15-6)9-8(18)7(17)3(1-16)19-9/h2-3,7-9,16-18H,1H2,(H,14,15)(H2,11,12,13)/t3-,7-,8-,9+/m1/s1

>  <PUBCHEM_IUPAC_INCHIKEY>
KBHMEHLJSZMEMI-KSYZLYKTSA-N

>  <PUBCHEM_XLOGP3_AA>
-2.2

>  <PUBCHEM_EXACT_MASS>
267.097

>  <PUBCHEM_MOLECULAR_FORMULA>
C10H13N5O4

>  <PUBCHEM_MOLECULAR_WEIGHT>
267.245

>  <PUBCHEM_OPENEYE_CAN_SMILES>
C1=NC2=C(NN=C2C(=N1)N)C3C(C(C(O3)CO)O)O

>  <PUBCHEM_OPENEYE_ISO_SMILES>
C1=NC2=C(NN=C2C(=N1)N)[C@H]3[C@@H]([C@@H]([C@H](O3)CO)O)O

>  <PUBCHEM_CACTVS_TPSA>
150

>  <PUBCHEM_MONOISOTOPIC_WEIGHT>
267.097

>  <PUBCHEM_TOTAL_CHARGE>
0

>  <PUBCHEM_HEAVY_ATOM_COUNT>
19

>  <PUBCHEM_ATOM_DEF_STEREO_COUNT>
4

>  <PUBCHEM_ATOM_UDEF_STEREO_COUNT>
0

>  <PUBCHEM_BOND_DEF_STEREO_COUNT>
0

>  <PUBCHEM_BOND_UDEF_STEREO_COUNT>
0

>  <PUBCHEM_ISOTOPIC_ATOM_COUNT>
0

>  <PUBCHEM_COMPONENT_COUNT>
1

>  <PUBCHEM_CACTVS_TAUTO_COUNT>
8

>  <PUBCHEM_COORDINATE_TYPE>
1
5
255

>  <PUBCHEM_BONDANNOTATIONS>
11  21  5
13  15  6
14  16  8
16  17  8
17  18  8
10  2  5
12  3  5
5  14  8
5  6  8
6  17  8
7  16  8
7  19  8
8  18  8
8  19  8

$$$$
