4483254
 OpenBabel06101807152D

123129  0  0  1  0  0  0  0  0999 V2000
    6.8671   -2.3970    0.0000 O   0  0  0  0  0  0  0  0  0  0  0  0
    9.3112   -1.7053    0.0000 O   0  0  0  0  0  0  0  0  0  0  0  0
    5.1350   -2.3970    0.0000 O   0  0  0  0  0  0  0  0  0  0  0  0
    5.8747    8.1749    0.0000 O   0  0  0  0  0  0  0  0  0  0  0  0
    4.3882    7.2858    0.0000 O   0  0  0  0  0  0  0  0  0  0  0  0
    6.8671   -4.3970    0.0000 O   0  0  0  0  0  0  0  0  0  0  0  0
    5.1350   -5.3970    0.0000 O   0  0  0  0  0  0  0  0  0  0  0  0
    3.4030   -4.3970    0.0000 O   0  0  0  0  0  0  0  0  0  0  0  0
    6.0010   -5.8970    0.0000 O   0  0  0  0  0  0  0  0  0  0  0  0
    2.5369   -2.8970    0.0000 O   0  0  0  0  0  0  0  0  0  0  0  0
    3.4030   -1.3970    0.0000 O   0  0  0  0  0  0  0  0  0  0  0  0
    8.5991   -5.3970    0.0000 O   0  0  0  0  0  0  0  0  0  0  0  0
    8.5991   -7.3970    0.0000 O   0  0  0  0  0  0  0  0  0  0  0  0
    6.8671   -8.3970    0.0000 O   0  0  0  0  0  0  0  0  0  0  0  0
    5.1350   -8.3970    0.0000 O   0  0  0  0  0  0  0  0  0  0  0  0
    7.7681    2.3032    0.0000 C   0  0  3  0  0  0  0  0  0  0  0  0
    6.9040    1.7999    0.0000 C   0  0  3  0  0  0  0  0  0  0  0  0
    6.8920    0.7583    0.0000 C   0  0  3  0  0  0  0  0  0  0  0  0
    7.7643    3.3032    0.0000 C   0  0  3  0  0  0  0  0  0  0  0  0
    7.7920    0.2340    0.0000 C   0  0  3  0  0  0  0  0  0  0  0  0
    8.6801    1.7999    0.0000 C   0  0  0  0  0  0  0  0  0  0  0  0
    7.8046   -0.8509    0.0000 C   0  0  3  0  0  0  0  0  0  0  0  0
    8.6921    0.7583    0.0000 C   0  0  0  0  0  0  0  0  0  0  0  0
    6.8963    3.7999    0.0000 C   0  0  0  0  0  0  0  0  0  0  0  0
    6.8762    4.8413    0.0000 C   0  0  3  0  0  0  0  0  0  0  0  0
    6.0361    2.2966    0.0000 C   0  0  0  0  0  0  0  0  0  0  0  0
    5.9421    0.2340    0.0000 C   0  0  0  0  0  0  0  0  0  0  0  0
    7.7722    5.3725    0.0000 C   0  0  3  0  0  0  0  0  0  0  0  0
    8.6723    3.8136    0.0000 C   0  0  0  0  0  0  0  0  0  0  0  0
    8.6763    4.8552    0.0000 C   0  0  0  0  0  0  0  0  0  0  0  0
    8.7522    2.4807    0.0000 C   0  0  0  0  0  0  0  0  0  0  0  0
    6.8671   -1.3970    0.0000 C   0  0  3  0  0  0  0  0  0  0  0  0
    6.0279    1.2617    0.0000 C   0  0  0  0  0  0  0  0  0  0  0  0
    6.0322    3.2965    0.0000 C   0  0  0  0  0  0  0  0  0  0  0  0
    5.9295   -0.8509    0.0000 C   0  0  0  0  0  0  0  0  0  0  0  0
    8.7497    3.1334    0.0000 C   0  0  0  0  0  0  0  0  0  0  0  0
    5.9223    5.3583    0.0000 C   0  0  0  0  0  0  0  0  0  0  0  0
    7.7764    6.4575    0.0000 C   0  0  0  0  0  0  0  0  0  0  0  0
    5.9014    6.4431    0.0000 C   0  0  3  0  0  0  0  0  0  0  0  0
    8.8046   -0.8432    0.0000 C   0  0  0  0  0  0  0  0  0  0  0  0
    8.3113   -1.7130    0.0000 C   0  0  0  0  0  0  0  0  0  0  0  0
    6.8347    6.9964    0.0000 C   0  0  0  0  0  0  0  0  0  0  0  0
    8.6324    5.8825    0.0000 C   0  0  0  0  0  0  0  0  0  0  0  0
    4.9015    6.4276    0.0000 C   0  0  0  0  0  0  0  0  0  0  0  0
    5.3881    7.3013    0.0000 C   0  0  0  0  0  0  0  0  0  0  0  0
    6.0010   -2.8970    0.0000 C   0  0  3  0  0  0  0  0  0  0  0  0
    6.0010   -3.8970    0.0000 C   0  0  3  0  0  0  0  0  0  0  0  0
    5.1350   -4.3970    0.0000 C   0  0  3  0  0  0  0  0  0  0  0  0
    4.2690   -2.8970    0.0000 C   0  0  3  0  0  0  0  0  0  0  0  0
    4.2690   -3.8970    0.0000 C   0  0  3  0  0  0  0  0  0  0  0  0
    6.8671   -5.3970    0.0000 C   0  0  3  0  0  0  0  0  0  0  0  0
    3.4030   -2.3970    0.0000 C   0  0  0  0  0  0  0  0  0  0  0  0
    7.7331   -5.8970    0.0000 C   0  0  3  0  0  0  0  0  0  0  0  0
    7.7331   -6.8970    0.0000 C   0  0  3  0  0  0  0  0  0  0  0  0
    6.0010   -6.8970    0.0000 C   0  0  3  0  0  0  0  0  0  0  0  0
    6.8671   -7.3970    0.0000 C   0  0  3  0  0  0  0  0  0  0  0  0
    5.1350   -7.3970    0.0000 C   0  0  0  0  0  0  0  0  0  0  0  0
    7.6385    1.3721    0.0000 H   0  0  0  0  0  0  0  0  0  0  0  0
    8.5314   -0.1853    0.0000 H   0  0  0  0  0  0  0  0  0  0  0  0
    9.2921    1.7009    0.0000 H   0  0  0  0  0  0  0  0  0  0  0  0
    8.8824    2.3860    0.0000 H   0  0  0  0  0  0  0  0  0  0  0  0
    8.9079    0.1771    0.0000 H   0  0  0  0  0  0  0  0  0  0  0  0
    9.3017    0.8715    0.0000 H   0  0  0  0  0  0  0  0  0  0  0  0
    6.1502    4.3994    0.0000 H   0  0  0  0  0  0  0  0  0  0  0  0
    5.4251    2.4019    0.0000 H   0  0  0  0  0  0  0  0  0  0  0  0
    5.8263    1.7131    0.0000 H   0  0  0  0  0  0  0  0  0  0  0  0
    5.7398    0.8201    0.0000 H   0  0  0  0  0  0  0  0  0  0  0  0
    5.3300    0.1350    0.0000 H   0  0  0  0  0  0  0  0  0  0  0  0
    8.8791    3.2291    0.0000 H   0  0  0  0  0  0  0  0  0  0  0  0
    9.2836    3.9173    0.0000 H   0  0  0  0  0  0  0  0  0  0  0  0
    9.2868    4.7467    0.0000 H   0  0  0  0  0  0  0  0  0  0  0  0
    8.8876    5.4381    0.0000 H   0  0  0  0  0  0  0  0  0  0  0  0
    8.8623    1.8705    0.0000 H   0  0  0  0  0  0  0  0  0  0  0  0
    9.3624    2.5907    0.0000 H   0  0  0  0  0  0  0  0  0  0  0  0
    8.6422    3.0908    0.0000 H   0  0  0  0  0  0  0  0  0  0  0  0
    7.6040   -1.8206    0.0000 H   0  0  0  0  0  0  0  0  0  0  0  0
    6.3400    1.7974    0.0000 H   0  0  0  0  0  0  0  0  0  0  0  0
    5.4922    1.5737    0.0000 H   0  0  0  0  0  0  0  0  0  0  0  0
    5.7158    0.7259    0.0000 H   0  0  0  0  0  0  0  0  0  0  0  0
    5.4941    3.6045    0.0000 H   0  0  0  0  0  0  0  0  0  0  0  0
    5.3199   -0.7377    0.0000 H   0  0  0  0  0  0  0  0  0  0  0  0
    5.7137   -1.4321    0.0000 H   0  0  0  0  0  0  0  0  0  0  0  0
    8.6444    2.5224    0.0000 H   0  0  0  0  0  0  0  0  0  0  0  0
    9.3607    3.0281    0.0000 H   0  0  0  0  0  0  0  0  0  0  0  0
    8.8550    3.7444    0.0000 H   0  0  0  0  0  0  0  0  0  0  0  0
    5.3095    5.4526    0.0000 H   0  0  0  0  0  0  0  0  0  0  0  0
    5.7246    4.7706    0.0000 H   0  0  0  0  0  0  0  0  0  0  0  0
    8.3869    6.3491    0.0000 H   0  0  0  0  0  0  0  0  0  0  0  0
    7.9877    7.0404    0.0000 H   0  0  0  0  0  0  0  0  0  0  0  0
    9.3855   -0.6266    0.0000 H   0  0  0  0  0  0  0  0  0  0  0  0
    8.6922   -0.2334    0.0000 H   0  0  0  0  0  0  0  0  0  0  0  0
    7.7767   -2.0272    0.0000 H   0  0  0  0  0  0  0  0  0  0  0  0
    8.6254   -2.2476    0.0000 H   0  0  0  0  0  0  0  0  0  0  0  0
    8.8458   -1.3989    0.0000 H   0  0  0  0  0  0  0  0  0  0  0  0
    7.2302    7.4739    0.0000 H   0  0  0  0  0  0  0  0  0  0  0  0
    6.4319    7.4677    0.0000 H   0  0  0  0  0  0  0  0  0  0  0  0
    8.9486    5.3492    0.0000 H   0  0  0  0  0  0  0  0  0  0  0  0
    9.1657    6.1987    0.0000 H   0  0  0  0  0  0  0  0  0  0  0  0
    8.3162    6.4158    0.0000 H   0  0  0  0  0  0  0  0  0  0  0  0
    4.8920    7.0476    0.0000 H   0  0  0  0  0  0  0  0  0  0  0  0
    4.2816    6.4181    0.0000 H   0  0  0  0  0  0  0  0  0  0  0  0
    4.9111    5.8077    0.0000 H   0  0  0  0  0  0  0  0  0  0  0  0
    6.0010   -2.0470    0.0000 H   0  0  0  0  0  0  0  0  0  0  0  0
    9.9312   -1.7005    0.0000 H   0  0  0  0  0  0  0  0  0  0  0  0
    6.7372   -3.4720    0.0000 H   0  0  0  0  0  0  0  0  0  0  0  0
    5.5565    8.7070    0.0000 H   0  0  0  0  0  0  0  0  0  0  0  0
    5.8711   -4.8220    0.0000 H   0  0  0  0  0  0  0  0  0  0  0  0
    4.2690   -2.0470    0.0000 H   0  0  0  0  0  0  0  0  0  0  0  0
    3.5329   -3.4720    0.0000 H   0  0  0  0  0  0  0  0  0  0  0  0
    7.6032   -4.9720    0.0000 H   0  0  0  0  0  0  0  0  0  0  0  0
    4.5981   -5.7070    0.0000 H   0  0  0  0  0  0  0  0  0  0  0  0
    3.4030   -5.0170    0.0000 H   0  0  0  0  0  0  0  0  0  0  0  0
    8.4692   -6.3220    0.0000 H   0  0  0  0  0  0  0  0  0  0  0  0
    7.7331   -7.7470    0.0000 H   0  0  0  0  0  0  0  0  0  0  0  0
    5.2649   -6.4720    0.0000 H   0  0  0  0  0  0  0  0  0  0  0  0
    2.0000   -2.5870    0.0000 H   0  0  0  0  0  0  0  0  0  0  0  0
    6.1309   -7.8220    0.0000 H   0  0  0  0  0  0  0  0  0  0  0  0
    9.1360   -5.7070    0.0000 H   0  0  0  0  0  0  0  0  0  0  0  0
    4.9230   -6.8144    0.0000 H   0  0  0  0  0  0  0  0  0  0  0  0
    4.5244   -7.5047    0.0000 H   0  0  0  0  0  0  0  0  0  0  0  0
    8.5991   -8.0170    0.0000 H   0  0  0  0  0  0  0  0  0  0  0  0
    7.4040   -8.7070    0.0000 H   0  0  0  0  0  0  0  0  0  0  0  0
    4.5981   -8.7070    0.0000 H   0  0  0  0  0  0  0  0  0  0  0  0
  1 32  1  0  0  0  0
  1 46  1  0  0  0  0
  2 40  1  0  0  0  0
  2104  1  0  0  0  0
  3 46  1  0  0  0  0
  3 49  1  0  0  0  0
  4 45  1  0  0  0  0
  4106  1  0  0  0  0
  5 45  2  0  0  0  0
  6 47  1  0  0  0  0
  6 51  1  0  0  0  0
  7 48  1  0  0  0  0
  7111  1  0  0  0  0
  8 50  1  0  0  0  0
  8112  1  0  0  0  0
  9 51  1  0  0  0  0
  9 55  1  0  0  0  0
 10 52  1  0  0  0  0
 10116  1  0  0  0  0
 11 52  2  0  0  0  0
 12 53  1  0  0  0  0
 12118  1  0  0  0  0
 13 54  1  0  0  0  0
 13121  1  0  0  0  0
 14 56  1  0  0  0  0
 14122  1  0  0  0  0
 15 57  1  0  0  0  0
 15123  1  0  0  0  0
 16 17  1  0  0  0  0
 16 19  1  0  0  0  0
 16 21  1  0  0  0  0
 16 31  1  0  0  0  0
 17 18  1  0  0  0  0
 17 26  1  0  0  0  0
 17 58  1  0  0  0  0
 18 20  1  0  0  0  0
 18 27  1  0  0  0  0
 18 33  1  0  0  0  0
 19 24  1  0  0  0  0
 19 29  1  0  0  0  0
 19 36  1  0  0  0  0
 20 22  1  0  0  0  0
 20 23  1  0  0  0  0
 20 59  1  0  0  0  0
 21 23  1  0  0  0  0
 21 60  1  0  0  0  0
 21 61  1  0  0  0  0
 22 32  1  0  0  0  0
 22 40  1  0  0  0  0
 22 41  1  0  0  0  0
 23 62  1  0  0  0  0
 23 63  1  0  0  0  0
 24 25  1  0  0  0  0
 24 34  2  0  0  0  0
 25 28  1  0  0  0  0
 25 37  1  0  0  0  0
 25 64  1  0  0  0  0
 26 34  1  0  0  0  0
 26 65  1  0  0  0  0
 26 66  1  0  0  0  0
 27 35  1  0  0  0  0
 27 67  1  0  0  0  0
 27 68  1  0  0  0  0
 28 30  1  0  0  0  0
 28 38  1  0  0  0  0
 28 43  1  0  0  0  0
 29 30  1  0  0  0  0
 29 69  1  0  0  0  0
 29 70  1  0  0  0  0
 30 71  1  0  0  0  0
 30 72  1  0  0  0  0
 31 73  1  0  0  0  0
 31 74  1  0  0  0  0
 31 75  1  0  0  0  0
 32 35  1  0  0  0  0
 32 76  1  0  0  0  0
 33 77  1  0  0  0  0
 33 78  1  0  0  0  0
 33 79  1  0  0  0  0
 34 80  1  0  0  0  0
 35 81  1  0  0  0  0
 35 82  1  0  0  0  0
 36 83  1  0  0  0  0
 36 84  1  0  0  0  0
 36 85  1  0  0  0  0
 37 39  1  0  0  0  0
 37 86  1  0  0  0  0
 37 87  1  0  0  0  0
 38 42  1  0  0  0  0
 38 88  1  0  0  0  0
 38 89  1  0  0  0  0
 39 42  1  0  0  0  0
 39 44  1  0  0  0  0
 39 45  1  0  0  0  0
 40 90  1  0  0  0  0
 40 91  1  0  0  0  0
 41 92  1  0  0  0  0
 41 93  1  0  0  0  0
 41 94  1  0  0  0  0
 42 95  1  0  0  0  0
 42 96  1  0  0  0  0
 43 97  1  0  0  0  0
 43 98  1  0  0  0  0
 43 99  1  0  0  0  0
 44100  1  0  0  0  0
 44101  1  0  0  0  0
 44102  1  0  0  0  0
 46 47  1  0  0  0  0
 46103  1  0  0  0  0
 47 48  1  0  0  0  0
 47105  1  0  0  0  0
 48 50  1  0  0  0  0
 48107  1  0  0  0  0
 49 50  1  0  0  0  0
 49 52  1  0  0  0  0
 49108  1  0  0  0  0
 50109  1  0  0  0  0
 51 53  1  0  0  0  0
 51110  1  0  0  0  0
 53 54  1  0  0  0  0
 53113  1  0  0  0  0
 54 56  1  0  0  0  0
 54114  1  0  0  0  0
 55 56  1  0  0  0  0
 55 57  1  0  0  0  0
 55115  1  0  0  0  0
 56117  1  0  0  0  0
 57119  1  0  0  0  0
 57120  1  0  0  0  0
M  END
>  <PUBCHEM_COMPOUND_CID>
4483254

>  <PUBCHEM_COMPOUND_CANONICALIZED>
1

>  <PUBCHEM_CACTVS_COMPLEXITY>
1590

>  <PUBCHEM_CACTVS_HBOND_ACCEPTOR>
15

>  <PUBCHEM_CACTVS_HBOND_DONOR>
9

>  <PUBCHEM_CACTVS_ROTATABLE_BOND>
8

>  <PUBCHEM_CACTVS_SUBSKEYS>
AAADcfB8PAAAAAAAAAAAAAAAAAAAAAAAAAA0aMGCAAAAAADAAAAAGgAACAAADxSwgAMCCAAABgCIAiDSCAIAAAAgAAAACAFAAAgREBYAAQQiQAAFoAAPAAPK7PzPgAAAAAAAAADAAAYAADAAAAAAAAAAAA==

>  <PUBCHEM_IUPAC_OPENEYE_NAME>
6-[[11-carboxy-4-(hydroxymethyl)-4,6a,6b,8a,11,14b-hexamethyl-1,2,3,4a,5,6,7,8,9,10,12,12a,14,14a-tetradecahydropicen-3-yl]oxy]-3,4-dihydroxy-5-[3,4,5-trihydroxy-6-(hydroxymethyl)tetrahydropyran-2-yl]oxy-tetrahydropyran-2-carboxylic acid

>  <PUBCHEM_IUPAC_CAS_NAME>
6-[[11-carboxy-4-(hydroxymethyl)-4,6a,6b,8a,11,14b-hexamethyl-1,2,3,4a,5,6,7,8,9,10,12,12a,14,14a-tetradecahydropicen-3-yl]oxy]-3,4-dihydroxy-5-[[3,4,5-trihydroxy-6-(hydroxymethyl)-2-oxanyl]oxy]-2-oxanecarboxylic acid

>  <PUBCHEM_IUPAC_NAME>
6-[[11-carboxy-4-(hydroxymethyl)-4,6a,6b,8a,11,14b-hexamethyl-1,2,3,4a,5,6,7,8,9,10,12,12a,14,14a-tetradecahydropicen-3-yl]oxy]-3,4-dihydroxy-5-[3,4,5-trihydroxy-6-(hydroxymethyl)oxan-2-yl]oxyoxane-2-carboxylic acid

>  <PUBCHEM_IUPAC_SYSTEMATIC_NAME>
6-[[11-carboxy-4-(hydroxymethyl)-4,6a,6b,8a,11,14b-hexamethyl-1,2,3,4a,5,6,7,8,9,10,12,12a,14,14a-tetradecahydropicen-3-yl]oxy]-5-[6-(hydroxymethyl)-3,4,5-tris(oxidanyl)oxan-2-yl]oxy-3,4-bis(oxidanyl)oxane-2-carboxylic acid

>  <PUBCHEM_IUPAC_TRADITIONAL_NAME>
6-[(11-carboxy-4,6a,6b,8a,11,14b-hexamethyl-4-methylol-1,2,3,4a,5,6,7,8,9,10,12,12a,14,14a-tetradecahydropicen-3-yl)oxy]-3,4-dihydroxy-5-(3,4,5-trihydroxy-6-methylol-tetrahydropyran-2-yl)oxy-tetrahydropyran-2-carboxylic acid

>  <PUBCHEM_IUPAC_INCHI>
InChI=1S/C42H66O15/c1-37-13-14-38(2,36(52)53)17-21(37)20-7-8-24-39(3)11-10-25(40(4,19-44)23(39)9-12-42(24,6)41(20,5)16-15-37)55-35-32(29(48)28(47)31(56-35)33(50)51)57-34-30(49)27(46)26(45)22(18-43)54-34/h7,21-32,34-35,43-49H,8-19H2,1-6H3,(H,50,51)(H,52,53)

>  <PUBCHEM_IUPAC_INCHIKEY>
FXYSHYMHTAACSV-UHFFFAOYSA-N

>  <PUBCHEM_XLOGP3_AA>
3.3

>  <PUBCHEM_EXACT_MASS>
810.44

>  <PUBCHEM_MOLECULAR_FORMULA>
C42H66O15

>  <PUBCHEM_MOLECULAR_WEIGHT>
810.975

>  <PUBCHEM_OPENEYE_CAN_SMILES>
CC12CCC(CC1C3=CCC4C5(CCC(C(C5CCC4(C3(CC2)C)C)(C)CO)OC6C(C(C(C(O6)C(=O)O)O)O)OC7C(C(C(C(O7)CO)O)O)O)C)(C)C(=O)O

>  <PUBCHEM_OPENEYE_ISO_SMILES>
CC12CCC(CC1C3=CCC4C5(CCC(C(C5CCC4(C3(CC2)C)C)(C)CO)OC6C(C(C(C(O6)C(=O)O)O)O)OC7C(C(C(C(O7)CO)O)O)O)C)(C)C(=O)O

>  <PUBCHEM_CACTVS_TPSA>
253

>  <PUBCHEM_MONOISOTOPIC_WEIGHT>
810.44

>  <PUBCHEM_TOTAL_CHARGE>
0

>  <PUBCHEM_HEAVY_ATOM_COUNT>
57

>  <PUBCHEM_ATOM_DEF_STEREO_COUNT>
0

>  <PUBCHEM_ATOM_UDEF_STEREO_COUNT>
20

>  <PUBCHEM_BOND_DEF_STEREO_COUNT>
0

>  <PUBCHEM_BOND_UDEF_STEREO_COUNT>
0

>  <PUBCHEM_ISOTOPIC_ATOM_COUNT>
0

>  <PUBCHEM_COMPONENT_COUNT>
1

>  <PUBCHEM_CACTVS_TAUTO_COUNT>
1

>  <PUBCHEM_COORDINATE_TYPE>
1
5
255

>  <PUBCHEM_BONDANNOTATIONS>
16  31  3
17  58  3
18  33  3
19  36  3
20  59  3
22  40  3
25  64  3
28  43  3
32  76  3
39  44  3
46  103  3
47  105  3
48  107  3
49  108  3
50  109  3
51  110  3
53  113  3
54  114  3
55  115  3
56  117  3

$$$$
