4483634
 OpenBabel06101807152D

145152  0  0  1  0  0  0  0  0999 V2000
   11.1972   -1.6941    0.0000 O   0  0  0  0  0  0  0  0  0  0  0  0
    9.3898   -0.6413    0.0000 O   0  0  0  0  0  0  0  0  0  0  0  0
   13.6414   -1.0024    0.0000 O   0  0  0  0  0  0  0  0  0  0  0  0
   12.9510    7.5853    0.0000 O   0  0  0  0  0  0  0  0  0  0  0  0
   13.6280    0.7295    0.0000 O   0  0  0  0  0  0  0  0  0  0  0  0
   13.8343    6.0954    0.0000 O   0  0  0  0  0  0  0  0  0  0  0  0
    9.4651   -1.6941    0.0000 O   0  0  0  0  0  0  0  0  0  0  0  0
   11.1972   -3.6941    0.0000 O   0  0  0  0  0  0  0  0  0  0  0  0
    9.4651   -4.6941    0.0000 O   0  0  0  0  0  0  0  0  0  0  0  0
    7.7331   -3.6941    0.0000 O   0  0  0  0  0  0  0  0  0  0  0  0
    7.7331   -0.6941    0.0000 O   0  0  0  0  0  0  0  0  0  0  0  0
    7.7331   -4.6941    0.0000 O   0  0  0  0  0  0  0  0  0  0  0  0
    9.4651   -6.6941    0.0000 O   0  0  0  0  0  0  0  0  0  0  0  0
    7.7331   -7.6941    0.0000 O   0  0  0  0  0  0  0  0  0  0  0  0
    6.0010   -6.6941    0.0000 O   0  0  0  0  0  0  0  0  0  0  0  0
    6.0010   -3.6941    0.0000 O   0  0  0  0  0  0  0  0  0  0  0  0
    5.1350   -2.1941    0.0000 O   0  0  0  0  0  0  0  0  0  0  0  0
    4.2690   -4.6941    0.0000 O   0  0  0  0  0  0  0  0  0  0  0  0
    2.5369   -3.6941    0.0000 O   0  0  0  0  0  0  0  0  0  0  0  0
    2.5369   -1.6941    0.0000 O   0  0  0  0  0  0  0  0  0  0  0  0
    5.1350   -0.1941    0.0000 O   0  0  0  0  0  0  0  0  0  0  0  0
   12.0983    3.0061    0.0000 C   0  0  3  0  0  0  0  0  0  0  0  0
   11.2342    2.5027    0.0000 C   0  0  3  0  0  0  0  0  0  0  0  0
   11.2221    1.4612    0.0000 C   0  0  3  0  0  0  0  0  0  0  0  0
   12.0944    4.0061    0.0000 C   0  0  3  0  0  0  0  0  0  0  0  0
   12.1222    0.9369    0.0000 C   0  0  3  0  0  0  0  0  0  0  0  0
   13.0102    2.5027    0.0000 C   0  0  0  0  0  0  0  0  0  0  0  0
   13.0222    1.4612    0.0000 C   0  0  0  0  0  0  0  0  0  0  0  0
   11.2264    4.5027    0.0000 C   0  0  0  0  0  0  0  0  0  0  0  0
   12.1347   -0.1480    0.0000 C   0  0  3  0  0  0  0  0  0  0  0  0
   11.2064    5.5442    0.0000 C   0  0  3  0  0  0  0  0  0  0  0  0
   10.3662    2.9994    0.0000 C   0  0  0  0  0  0  0  0  0  0  0  0
   10.2722    0.9369    0.0000 C   0  0  0  0  0  0  0  0  0  0  0  0
   13.0024    4.5164    0.0000 C   0  0  0  0  0  0  0  0  0  0  0  0
   12.1024    6.0754    0.0000 C   0  0  3  0  0  0  0  0  0  0  0  0
   13.0824    3.1835    0.0000 C   0  0  0  0  0  0  0  0  0  0  0  0
   13.0065    5.5580    0.0000 C   0  0  0  0  0  0  0  0  0  0  0  0
   11.1972   -0.6941    0.0000 C   0  0  3  0  0  0  0  0  0  0  0  0
   10.2597   -0.1480    0.0000 C   0  0  3  0  0  0  0  0  0  0  0  0
   10.3624    3.9994    0.0000 C   0  0  0  0  0  0  0  0  0  0  0  0
   10.3580    1.9645    0.0000 C   0  0  0  0  0  0  0  0  0  0  0  0
   13.0799    3.8362    0.0000 C   0  0  0  0  0  0  0  0  0  0  0  0
   10.2524    6.0611    0.0000 C   0  0  0  0  0  0  0  0  0  0  0  0
   12.1066    7.1604    0.0000 C   0  0  0  0  0  0  0  0  0  0  0  0
   10.2315    7.1459    0.0000 C   0  0  0  0  0  0  0  0  0  0  0  0
   12.6414   -1.0102    0.0000 C   0  0  0  0  0  0  0  0  0  0  0  0
   11.1648    7.6992    0.0000 C   0  0  0  0  0  0  0  0  0  0  0  0
   13.1347   -0.1403    0.0000 C   0  0  0  0  0  0  0  0  0  0  0  0
   12.9626    6.5854    0.0000 C   0  0  0  0  0  0  0  0  0  0  0  0
    9.7182    8.0041    0.0000 C   0  0  0  0  0  0  0  0  0  0  0  0
    9.2317    7.1305    0.0000 C   0  0  0  0  0  0  0  0  0  0  0  0
   10.3312   -2.1941    0.0000 C   0  0  3  0  0  0  0  0  0  0  0  0
   10.3312   -3.1941    0.0000 C   0  0  3  0  0  0  0  0  0  0  0  0
    9.4651   -3.6941    0.0000 C   0  0  3  0  0  0  0  0  0  0  0  0
    8.5991   -2.1941    0.0000 C   0  0  3  0  0  0  0  0  0  0  0  0
    8.5991   -3.1941    0.0000 C   0  0  3  0  0  0  0  0  0  0  0  0
    7.7331   -1.6941    0.0000 C   0  0  0  0  0  0  0  0  0  0  0  0
    8.5991   -5.1941    0.0000 C   0  0  3  0  0  0  0  0  0  0  0  0
    8.5991   -6.1941    0.0000 C   0  0  3  0  0  0  0  0  0  0  0  0
    7.7331   -6.6941    0.0000 C   0  0  3  0  0  0  0  0  0  0  0  0
    6.8671   -5.1941    0.0000 C   0  0  3  0  0  0  0  0  0  0  0  0
    6.8671   -6.1941    0.0000 C   0  0  3  0  0  0  0  0  0  0  0  0
    6.0010   -4.6941    0.0000 C   0  0  0  0  0  0  0  0  0  0  0  0
    5.1350   -3.1941    0.0000 C   0  0  3  0  0  0  0  0  0  0  0  0
    4.2690   -3.6941    0.0000 C   0  0  3  0  0  0  0  0  0  0  0  0
    3.4030   -3.1941    0.0000 C   0  0  3  0  0  0  0  0  0  0  0  0
    4.2690   -1.6941    0.0000 C   0  0  3  0  0  0  0  0  0  0  0  0
    3.4030   -2.1941    0.0000 C   0  0  3  0  0  0  0  0  0  0  0  0
    4.2690   -0.6941    0.0000 C   0  0  0  0  0  0  0  0  0  0  0  0
   11.7699    2.1907    0.0000 H   0  0  0  0  0  0  0  0  0  0  0  0
   12.6615    0.6311    0.0000 H   0  0  0  0  0  0  0  0  0  0  0  0
   13.6222    2.4037    0.0000 H   0  0  0  0  0  0  0  0  0  0  0  0
   13.2125    3.0888    0.0000 H   0  0  0  0  0  0  0  0  0  0  0  0
   13.2380    0.8800    0.0000 H   0  0  0  0  0  0  0  0  0  0  0  0
   13.6318    1.5743    0.0000 H   0  0  0  0  0  0  0  0  0  0  0  0
   10.6768    5.2218    0.0000 H   0  0  0  0  0  0  0  0  0  0  0  0
    9.7552    3.1047    0.0000 H   0  0  0  0  0  0  0  0  0  0  0  0
   10.1564    2.4160    0.0000 H   0  0  0  0  0  0  0  0  0  0  0  0
   10.0699    1.5230    0.0000 H   0  0  0  0  0  0  0  0  0  0  0  0
    9.6602    0.8379    0.0000 H   0  0  0  0  0  0  0  0  0  0  0  0
   13.2092    3.9319    0.0000 H   0  0  0  0  0  0  0  0  0  0  0  0
   13.6137    4.6202    0.0000 H   0  0  0  0  0  0  0  0  0  0  0  0
   13.1924    2.5734    0.0000 H   0  0  0  0  0  0  0  0  0  0  0  0
   13.6925    3.2936    0.0000 H   0  0  0  0  0  0  0  0  0  0  0  0
   12.9724    3.7937    0.0000 H   0  0  0  0  0  0  0  0  0  0  0  0
   13.6169    5.4496    0.0000 H   0  0  0  0  0  0  0  0  0  0  0  0
   13.2178    6.1409    0.0000 H   0  0  0  0  0  0  0  0  0  0  0  0
   11.7347   -1.0031    0.0000 H   0  0  0  0  0  0  0  0  0  0  0  0
   10.2561   -0.7680    0.0000 H   0  0  0  0  0  0  0  0  0  0  0  0
    9.8242    4.3073    0.0000 H   0  0  0  0  0  0  0  0  0  0  0  0
   10.6701    2.5003    0.0000 H   0  0  0  0  0  0  0  0  0  0  0  0
    9.8223    2.2766    0.0000 H   0  0  0  0  0  0  0  0  0  0  0  0
   10.0460    1.4288    0.0000 H   0  0  0  0  0  0  0  0  0  0  0  0
   12.9746    3.2252    0.0000 H   0  0  0  0  0  0  0  0  0  0  0  0
   13.6909    3.7309    0.0000 H   0  0  0  0  0  0  0  0  0  0  0  0
   13.1852    4.4472    0.0000 H   0  0  0  0  0  0  0  0  0  0  0  0
    9.6397    6.1554    0.0000 H   0  0  0  0  0  0  0  0  0  0  0  0
   10.0547    5.4735    0.0000 H   0  0  0  0  0  0  0  0  0  0  0  0
   12.7170    7.0519    0.0000 H   0  0  0  0  0  0  0  0  0  0  0  0
   12.3179    7.7433    0.0000 H   0  0  0  0  0  0  0  0  0  0  0  0
   12.1069   -1.3243    0.0000 H   0  0  0  0  0  0  0  0  0  0  0  0
   12.9555   -1.5447    0.0000 H   0  0  0  0  0  0  0  0  0  0  0  0
   13.1759   -0.6960    0.0000 H   0  0  0  0  0  0  0  0  0  0  0  0
   11.5603    8.1767    0.0000 H   0  0  0  0  0  0  0  0  0  0  0  0
   10.7621    8.1706    0.0000 H   0  0  0  0  0  0  0  0  0  0  0  0
    9.2221    7.7504    0.0000 H   0  0  0  0  0  0  0  0  0  0  0  0
    8.6117    7.1209    0.0000 H   0  0  0  0  0  0  0  0  0  0  0  0
    9.2412    6.5106    0.0000 H   0  0  0  0  0  0  0  0  0  0  0  0
   10.2503    8.3224    0.0000 H   0  0  0  0  0  0  0  0  0  0  0  0
    9.4000    8.5362    0.0000 H   0  0  0  0  0  0  0  0  0  0  0  0
    9.1862    7.6859    0.0000 H   0  0  0  0  0  0  0  0  0  0  0  0
    8.8553   -0.3272    0.0000 H   0  0  0  0  0  0  0  0  0  0  0  0
   10.3312   -1.5741    0.0000 H   0  0  0  0  0  0  0  0  0  0  0  0
   14.2613   -0.9977    0.0000 H   0  0  0  0  0  0  0  0  0  0  0  0
   13.4843    7.9015    0.0000 H   0  0  0  0  0  0  0  0  0  0  0  0
   10.3312   -3.8141    0.0000 H   0  0  0  0  0  0  0  0  0  0  0  0
    8.9282   -4.0041    0.0000 H   0  0  0  0  0  0  0  0  0  0  0  0
    8.5991   -1.5741    0.0000 H   0  0  0  0  0  0  0  0  0  0  0  0
    8.0622   -2.8841    0.0000 H   0  0  0  0  0  0  0  0  0  0  0  0
   11.1972   -4.3141    0.0000 H   0  0  0  0  0  0  0  0  0  0  0  0
    7.1225   -1.5865    0.0000 H   0  0  0  0  0  0  0  0  0  0  0  0
    7.5210   -2.2767    0.0000 H   0  0  0  0  0  0  0  0  0  0  0  0
    7.1962   -3.3841    0.0000 H   0  0  0  0  0  0  0  0  0  0  0  0
    8.5991   -4.5741    0.0000 H   0  0  0  0  0  0  0  0  0  0  0  0
    7.1962   -0.3841    0.0000 H   0  0  0  0  0  0  0  0  0  0  0  0
    8.5991   -6.8141    0.0000 H   0  0  0  0  0  0  0  0  0  0  0  0
    7.1962   -7.0041    0.0000 H   0  0  0  0  0  0  0  0  0  0  0  0
    6.8671   -4.5741    0.0000 H   0  0  0  0  0  0  0  0  0  0  0  0
    6.3301   -5.8841    0.0000 H   0  0  0  0  0  0  0  0  0  0  0  0
    9.4651   -7.3141    0.0000 H   0  0  0  0  0  0  0  0  0  0  0  0
    5.3905   -4.5865    0.0000 H   0  0  0  0  0  0  0  0  0  0  0  0
    5.7890   -5.2767    0.0000 H   0  0  0  0  0  0  0  0  0  0  0  0
    7.1962   -8.0041    0.0000 H   0  0  0  0  0  0  0  0  0  0  0  0
    5.4641   -6.3841    0.0000 H   0  0  0  0  0  0  0  0  0  0  0  0
    5.1350   -3.8141    0.0000 H   0  0  0  0  0  0  0  0  0  0  0  0
    3.7320   -4.0041    0.0000 H   0  0  0  0  0  0  0  0  0  0  0  0
    2.8660   -2.8841    0.0000 H   0  0  0  0  0  0  0  0  0  0  0  0
    4.8059   -1.3841    0.0000 H   0  0  0  0  0  0  0  0  0  0  0  0
    3.4030   -1.5741    0.0000 H   0  0  0  0  0  0  0  0  0  0  0  0
    3.7320   -5.0041    0.0000 H   0  0  0  0  0  0  0  0  0  0  0  0
    4.0569   -0.1115    0.0000 H   0  0  0  0  0  0  0  0  0  0  0  0
    3.6584   -0.8018    0.0000 H   0  0  0  0  0  0  0  0  0  0  0  0
    2.0000   -3.3841    0.0000 H   0  0  0  0  0  0  0  0  0  0  0  0
    2.5369   -1.0741    0.0000 H   0  0  0  0  0  0  0  0  0  0  0  0
    5.1350    0.4259    0.0000 H   0  0  0  0  0  0  0  0  0  0  0  0
  1 38  1  0  0  0  0
  1 52  1  0  0  0  0
  2 39  1  0  0  0  0
  2112  1  0  0  0  0
  3 48  1  0  0  0  0
  3114  1  0  0  0  0
  4 49  1  0  0  0  0
  4115  1  0  0  0  0
  5 48  2  0  0  0  0
  6 49  2  0  0  0  0
  7 52  1  0  0  0  0
  7 55  1  0  0  0  0
  8 53  1  0  0  0  0
  8120  1  0  0  0  0
  9 54  1  0  0  0  0
  9 58  1  0  0  0  0
 10 56  1  0  0  0  0
 10123  1  0  0  0  0
 11 57  1  0  0  0  0
 11125  1  0  0  0  0
 12 58  1  0  0  0  0
 12 61  1  0  0  0  0
 13 59  1  0  0  0  0
 13130  1  0  0  0  0
 14 60  1  0  0  0  0
 14133  1  0  0  0  0
 15 62  1  0  0  0  0
 15134  1  0  0  0  0
 16 63  1  0  0  0  0
 16 64  1  0  0  0  0
 17 64  1  0  0  0  0
 17 67  1  0  0  0  0
 18 65  1  0  0  0  0
 18140  1  0  0  0  0
 19 66  1  0  0  0  0
 19143  1  0  0  0  0
 20 68  1  0  0  0  0
 20144  1  0  0  0  0
 21 69  1  0  0  0  0
 21145  1  0  0  0  0
 22 23  1  0  0  0  0
 22 25  1  0  0  0  0
 22 27  1  0  0  0  0
 22 36  1  0  0  0  0
 23 24  1  0  0  0  0
 23 32  1  0  0  0  0
 23 70  1  0  0  0  0
 24 26  1  0  0  0  0
 24 33  1  0  0  0  0
 24 41  1  0  0  0  0
 25 29  1  0  0  0  0
 25 34  1  0  0  0  0
 25 42  1  0  0  0  0
 26 28  1  0  0  0  0
 26 30  1  0  0  0  0
 26 71  1  0  0  0  0
 27 28  1  0  0  0  0
 27 72  1  0  0  0  0
 27 73  1  0  0  0  0
 28 74  1  0  0  0  0
 28 75  1  0  0  0  0
 29 31  1  0  0  0  0
 29 40  2  0  0  0  0
 30 38  1  0  0  0  0
 30 46  1  0  0  0  0
 30 48  1  0  0  0  0
 31 35  1  0  0  0  0
 31 43  1  0  0  0  0
 31 76  1  0  0  0  0
 32 40  1  0  0  0  0
 32 77  1  0  0  0  0
 32 78  1  0  0  0  0
 33 39  1  0  0  0  0
 33 79  1  0  0  0  0
 33 80  1  0  0  0  0
 34 37  1  0  0  0  0
 34 81  1  0  0  0  0
 34 82  1  0  0  0  0
 35 37  1  0  0  0  0
 35 44  1  0  0  0  0
 35 49  1  0  0  0  0
 36 83  1  0  0  0  0
 36 84  1  0  0  0  0
 36 85  1  0  0  0  0
 37 86  1  0  0  0  0
 37 87  1  0  0  0  0
 38 39  1  0  0  0  0
 38 88  1  0  0  0  0
 39 89  1  0  0  0  0
 40 90  1  0  0  0  0
 41 91  1  0  0  0  0
 41 92  1  0  0  0  0
 41 93  1  0  0  0  0
 42 94  1  0  0  0  0
 42 95  1  0  0  0  0
 42 96  1  0  0  0  0
 43 45  1  0  0  0  0
 43 97  1  0  0  0  0
 43 98  1  0  0  0  0
 44 47  1  0  0  0  0
 44 99  1  0  0  0  0
 44100  1  0  0  0  0
 45 47  1  0  0  0  0
 45 50  1  0  0  0  0
 45 51  1  0  0  0  0
 46101  1  0  0  0  0
 46102  1  0  0  0  0
 46103  1  0  0  0  0
 47104  1  0  0  0  0
 47105  1  0  0  0  0
 50109  1  0  0  0  0
 50110  1  0  0  0  0
 50111  1  0  0  0  0
 51106  1  0  0  0  0
 51107  1  0  0  0  0
 51108  1  0  0  0  0
 52 53  1  0  0  0  0
 52113  1  0  0  0  0
 53 54  1  0  0  0  0
 53116  1  0  0  0  0
 54 56  1  0  0  0  0
 54117  1  0  0  0  0
 55 56  1  0  0  0  0
 55 57  1  0  0  0  0
 55118  1  0  0  0  0
 56119  1  0  0  0  0
 57121  1  0  0  0  0
 57122  1  0  0  0  0
 58 59  1  0  0  0  0
 58124  1  0  0  0  0
 59 60  1  0  0  0  0
 59126  1  0  0  0  0
 60 62  1  0  0  0  0
 60127  1  0  0  0  0
 61 62  1  0  0  0  0
 61 63  1  0  0  0  0
 61128  1  0  0  0  0
 62129  1  0  0  0  0
 63131  1  0  0  0  0
 63132  1  0  0  0  0
 64 65  1  0  0  0  0
 64135  1  0  0  0  0
 65 66  1  0  0  0  0
 65136  1  0  0  0  0
 66 68  1  0  0  0  0
 66137  1  0  0  0  0
 67 68  1  0  0  0  0
 67 69  1  0  0  0  0
 67138  1  0  0  0  0
 68139  1  0  0  0  0
 69141  1  0  0  0  0
 69142  1  0  0  0  0
M  END
>  <PUBCHEM_COMPOUND_CID>
4483634

>  <PUBCHEM_COMPOUND_CANONICALIZED>
1

>  <PUBCHEM_CACTVS_COMPLEXITY>
1940

>  <PUBCHEM_CACTVS_HBOND_ACCEPTOR>
21

>  <PUBCHEM_CACTVS_HBOND_DONOR>
13

>  <PUBCHEM_CACTVS_ROTATABLE_BOND>
11

>  <PUBCHEM_CACTVS_SUBSKEYS>
AAADcfB8PgAAAAAAAAAAAAAAAAAAAAAAAAA0aNGCAAAAAADAAAAAGgAACAAADxSwgAMCCAAABgCIAiDSCAAAAAAgAAAACAEAAAgREBYAAQAiQAAFoAAPAAPK6PyPgAAAAAAAAADAAAYAADCAAAAAAAAAAA==

>  <PUBCHEM_IUPAC_OPENEYE_NAME>
3-[3,5-dihydroxy-6-(hydroxymethyl)-4-[3,4,5-trihydroxy-6-[[3,4,5-trihydroxy-6-(hydroxymethyl)tetrahydropyran-2-yl]oxymethyl]tetrahydropyran-2-yl]oxy-tetrahydropyran-2-yl]oxy-2-hydroxy-4,6a,6b,11,11,14b-hexamethyl-1,2,3,4a,5,6,7,8,9,10,12,12a,14,14a-tetradecahydropicene-4,8a-dicarboxylic acid

>  <PUBCHEM_IUPAC_CAS_NAME>
3-[[3,5-dihydroxy-6-(hydroxymethyl)-4-[[3,4,5-trihydroxy-6-[[3,4,5-trihydroxy-6-(hydroxymethyl)-2-oxanyl]oxymethyl]-2-oxanyl]oxy]-2-oxanyl]oxy]-2-hydroxy-4,6a,6b,11,11,14b-hexamethyl-1,2,3,4a,5,6,7,8,9,10,12,12a,14,14a-tetradecahydropicene-4,8a-dicarboxylic acid

>  <PUBCHEM_IUPAC_NAME>
3-[3,5-dihydroxy-6-(hydroxymethyl)-4-[3,4,5-trihydroxy-6-[[3,4,5-trihydroxy-6-(hydroxymethyl)oxan-2-yl]oxymethyl]oxan-2-yl]oxyoxan-2-yl]oxy-2-hydroxy-4,6a,6b,11,11,14b-hexamethyl-1,2,3,4a,5,6,7,8,9,10,12,12a,14,14a-tetradecahydropicene-4,8a-dicarboxylic acid

>  <PUBCHEM_IUPAC_SYSTEMATIC_NAME>
3-[6-(hydroxymethyl)-4-[6-[[6-(hydroxymethyl)-3,4,5-tris(oxidanyl)oxan-2-yl]oxymethyl]-3,4,5-tris(oxidanyl)oxan-2-yl]oxy-3,5-bis(oxidanyl)oxan-2-yl]oxy-4,6a,6b,11,11,14b-hexamethyl-2-oxidanyl-1,2,3,4a,5,6,7,8,9,10,12,12a,14,14a-tetradecahydropicene-4,8a-dicarboxylic acid

>  <PUBCHEM_IUPAC_TRADITIONAL_NAME>
3-[3,5-dihydroxy-6-methylol-4-[3,4,5-trihydroxy-6-[(3,4,5-trihydroxy-6-methylol-tetrahydropyran-2-yl)oxymethyl]tetrahydropyran-2-yl]oxy-tetrahydropyran-2-yl]oxy-2-hydroxy-4,6a,6b,11,11,14b-hexamethyl-1,2,3,4a,5,6,7,8,9,10,12,12a,14,14a-tetradecahydropicene-4,8a-dicarboxylic acid

>  <PUBCHEM_IUPAC_INCHI>
InChI=1S/C48H76O21/c1-43(2)11-13-48(42(62)63)14-12-45(4)20(21(48)15-43)7-8-26-44(3)16-22(51)37(47(6,41(60)61)27(44)9-10-46(26,45)5)69-40-35(59)36(30(54)24(18-50)66-40)68-39-34(58)32(56)29(53)25(67-39)19-64-38-33(57)31(55)28(52)23(17-49)65-38/h7,21-40,49-59H,8-19H2,1-6H3,(H,60,61)(H,62,63)

>  <PUBCHEM_IUPAC_INCHIKEY>
HIZNXZVTIKIPSM-UHFFFAOYSA-N

>  <PUBCHEM_XLOGP3_AA>
-0.1

>  <PUBCHEM_EXACT_MASS>
988.488

>  <PUBCHEM_MOLECULAR_FORMULA>
C48H76O21

>  <PUBCHEM_MOLECULAR_WEIGHT>
989.115

>  <PUBCHEM_OPENEYE_CAN_SMILES>
CC1(CCC2(CCC3(C(=CCC4C3(CCC5C4(CC(C(C5(C)C(=O)O)OC6C(C(C(C(O6)CO)O)OC7C(C(C(C(O7)COC8C(C(C(C(O8)CO)O)O)O)O)O)O)O)O)C)C)C2C1)C)C(=O)O)C

>  <PUBCHEM_OPENEYE_ISO_SMILES>
CC1(CCC2(CCC3(C(=CCC4C3(CCC5C4(CC(C(C5(C)C(=O)O)OC6C(C(C(C(O6)CO)O)OC7C(C(C(C(O7)COC8C(C(C(C(O8)CO)O)O)O)O)O)O)O)O)C)C)C2C1)C)C(=O)O)C

>  <PUBCHEM_CACTVS_TPSA>
353

>  <PUBCHEM_MONOISOTOPIC_WEIGHT>
988.488

>  <PUBCHEM_TOTAL_CHARGE>
0

>  <PUBCHEM_HEAVY_ATOM_COUNT>
69

>  <PUBCHEM_ATOM_DEF_STEREO_COUNT>
0

>  <PUBCHEM_ATOM_UDEF_STEREO_COUNT>
25

>  <PUBCHEM_BOND_DEF_STEREO_COUNT>
0

>  <PUBCHEM_BOND_UDEF_STEREO_COUNT>
0

>  <PUBCHEM_ISOTOPIC_ATOM_COUNT>
0

>  <PUBCHEM_COMPONENT_COUNT>
1

>  <PUBCHEM_CACTVS_TAUTO_COUNT>
1

>  <PUBCHEM_COORDINATE_TYPE>
1
5
255

>  <PUBCHEM_BONDANNOTATIONS>
38  1  3
52  1  3
56  10  3
59  13  3
60  14  3
62  15  3
64  16  3
65  18  3
66  19  3
39  2  3
68  20  3
22  36  3
23  32  3
24  41  3
25  42  3
26  28  3
30  46  3
31  43  3
35  49  3
55  57  3
61  63  3
67  69  3
53  8  3
54  9  3
58  9  3

$$$$
