45109789
 OpenBabel06101807152D

 39 36  0  0  1  0  0  0  0  0999 V2000
    1.4030    0.8660    0.0000 P   0  0  0  0  0  0  0  0  0  0  0  0
    2.2690    1.3660    0.0000 O   0  0  0  0  0  0  0  0  0  0  0  0
    4.0010    2.3660    0.0000 O   0  0  0  0  0  0  0  0  0  0  0  0
    5.7331    1.3660    0.0000 O   0  0  0  0  0  0  0  0  0  0  0  0
    0.5369    0.3660    0.0000 O   0  0  0  0  0  0  0  0  0  0  0  0
    0.9030    1.7320    0.0000 O   0  0  0  0  0  0  0  0  0  0  0  0
    1.9030    0.0000    0.0000 O   0  0  0  0  0  0  0  0  0  0  0  0
    4.0010    5.6510    0.0000 O   0  0  0  0  0  0  0  0  0  0  0  0
    4.0010    1.3660    0.0000 C   0  0  3  0  0  0  0  0  0  0  0  0
    3.1350    0.8660    0.0000 C   0  0  0  0  0  0  0  0  0  0  0  0
    4.8671    0.8660    0.0000 C   0  0  0  0  0  0  0  0  0  0  0  0
    3.1350    8.6629    0.0000 C   0  0  0  0  0  0  0  0  0  0  0  0
    4.0010    9.1629    0.0000 C   0  0  0  0  0  0  0  0  0  0  0  0
    2.2690    9.1629    0.0000 C   0  0  0  0  0  0  0  0  0  0  0  0
    3.1350    5.1510    0.0000 C   0  0  0  0  0  0  0  0  0  0  0  0
    2.2690    5.6510    0.0000 C   0  0  0  0  0  0  0  0  0  0  0  0
    4.5380    1.6760    0.0000 H   0  0  0  0  0  0  0  0  0  0  0  0
    2.7365    0.3911    0.0000 H   0  0  0  0  0  0  0  0  0  0  0  0
    3.5335    0.3911    0.0000 H   0  0  0  0  0  0  0  0  0  0  0  0
    4.4685    0.3911    0.0000 H   0  0  0  0  0  0  0  0  0  0  0  0
    5.2656    0.3911    0.0000 H   0  0  0  0  0  0  0  0  0  0  0  0
    4.5380    2.6760    0.0000 H   0  0  0  0  0  0  0  0  0  0  0  0
    6.2700    1.0560    0.0000 H   0  0  0  0  0  0  0  0  0  0  0  0
    2.7365    8.1879    0.0000 H   0  0  0  0  0  0  0  0  0  0  0  0
    3.5335    8.1879    0.0000 H   0  0  0  0  0  0  0  0  0  0  0  0
    4.3110    8.6259    0.0000 H   0  0  0  0  0  0  0  0  0  0  0  0
    4.5380    9.4729    0.0000 H   0  0  0  0  0  0  0  0  0  0  0  0
    3.6910    9.6998    0.0000 H   0  0  0  0  0  0  0  0  0  0  0  0
    2.5790    9.6998    0.0000 H   0  0  0  0  0  0  0  0  0  0  0  0
    1.7320    9.4729    0.0000 H   0  0  0  0  0  0  0  0  0  0  0  0
    1.9590    8.6259    0.0000 H   0  0  0  0  0  0  0  0  0  0  0  0
    0.0000    0.6760    0.0000 H   0  0  0  0  0  0  0  0  0  0  0  0
    1.2130    2.2690    0.0000 H   0  0  0  0  0  0  0  0  0  0  0  0
    2.7365    4.6760    0.0000 H   0  0  0  0  0  0  0  0  0  0  0  0
    3.5335    4.6760    0.0000 H   0  0  0  0  0  0  0  0  0  0  0  0
    2.5790    6.1879    0.0000 H   0  0  0  0  0  0  0  0  0  0  0  0
    1.7320    5.9610    0.0000 H   0  0  0  0  0  0  0  0  0  0  0  0
    1.9590    5.1140    0.0000 H   0  0  0  0  0  0  0  0  0  0  0  0
    4.5380    5.3410    0.0000 H   0  0  0  0  0  0  0  0  0  0  0  0
  1  2  1  0  0  0  0
  1  5  1  0  0  0  0
  1  6  1  0  0  0  0
  1  7  2  0  0  0  0
  2 10  1  0  0  0  0
  3  9  1  0  0  0  0
  3 22  1  0  0  0  0
  4 11  1  0  0  0  0
  4 23  1  0  0  0  0
  5 32  1  0  0  0  0
  6 33  1  0  0  0  0
  8 15  1  0  0  0  0
  8 39  1  0  0  0  0
  9 10  1  0  0  0  0
  9 11  1  0  0  0  0
  9 17  1  0  0  0  0
 10 18  1  0  0  0  0
 10 19  1  0  0  0  0
 11 20  1  0  0  0  0
 11 21  1  0  0  0  0
 12 13  1  0  0  0  0
 12 14  1  0  0  0  0
 12 24  1  0  0  0  0
 12 25  1  0  0  0  0
 13 26  1  0  0  0  0
 13 27  1  0  0  0  0
 13 28  1  0  0  0  0
 14 29  1  0  0  0  0
 14 30  1  0  0  0  0
 14 31  1  0  0  0  0
 15 16  1  0  0  0  0
 15 34  1  0  0  0  0
 15 35  1  0  0  0  0
 16 36  1  0  0  0  0
 16 37  1  0  0  0  0
 16 38  1  0  0  0  0
M  END
>  <PUBCHEM_COMPOUND_CID>
45109789

>  <PUBCHEM_COMPOUND_CANONICALIZED>
1

>  <PUBCHEM_CACTVS_COMPLEXITY>
132

>  <PUBCHEM_CACTVS_HBOND_ACCEPTOR>
7

>  <PUBCHEM_CACTVS_HBOND_DONOR>
5

>  <PUBCHEM_CACTVS_ROTATABLE_BOND>
4

>  <PUBCHEM_CACTVS_SUBSKEYS>
AAADceBwOAIAAAAAAAAAAAAAAAAAAAAAAAAAAAAAAAAAAAAAAAAAGgAACCAACBSggAICAAAAAxAAQAAAAIAAAAAAAAAAAAAAAAABEAAAAAAAQAABAAABAAAAAAAAAAAAAAAAAAAAAAAAAAAAAAAAAAAAAA==

>  <PUBCHEM_IUPAC_OPENEYE_NAME>
2,3-dihydroxypropyl dihydrogen phosphate;ethanol;propane

>  <PUBCHEM_IUPAC_CAS_NAME>
2,3-dihydroxypropyl dihydrogen phosphate;ethanol;propane

>  <PUBCHEM_IUPAC_NAME>
2,3-dihydroxypropyl dihydrogen phosphate;ethanol;propane

>  <PUBCHEM_IUPAC_SYSTEMATIC_NAME>
2,3-bis(oxidanyl)propyl dihydrogen phosphate;ethanol;propane

>  <PUBCHEM_IUPAC_TRADITIONAL_NAME>
ethanol;glyceryl dihydrogen phosphate;n-propane

>  <PUBCHEM_IUPAC_INCHI>
InChI=1S/C3H9O6P.C3H8.C2H6O/c4-1-3(5)2-9-10(6,7)8;1-3-2;1-2-3/h3-5H,1-2H2,(H2,6,7,8);3H2,1-2H3;3H,2H2,1H3

>  <PUBCHEM_IUPAC_INCHIKEY>
GDQGIGPGALPYCN-UHFFFAOYSA-N

>  <PUBCHEM_EXACT_MASS>
262.118

>  <PUBCHEM_MOLECULAR_FORMULA>
C8H23O7P

>  <PUBCHEM_MOLECULAR_WEIGHT>
262.239

>  <PUBCHEM_OPENEYE_CAN_SMILES>
CCC.CCO.C(C(COP(=O)(O)O)O)O

>  <PUBCHEM_OPENEYE_ISO_SMILES>
CCC.CCO.C(C(COP(=O)(O)O)O)O

>  <PUBCHEM_CACTVS_TPSA>
127

>  <PUBCHEM_MONOISOTOPIC_WEIGHT>
262.118

>  <PUBCHEM_TOTAL_CHARGE>
0

>  <PUBCHEM_HEAVY_ATOM_COUNT>
16

>  <PUBCHEM_ATOM_DEF_STEREO_COUNT>
0

>  <PUBCHEM_ATOM_UDEF_STEREO_COUNT>
1

>  <PUBCHEM_BOND_DEF_STEREO_COUNT>
0

>  <PUBCHEM_BOND_UDEF_STEREO_COUNT>
0

>  <PUBCHEM_ISOTOPIC_ATOM_COUNT>
0

>  <PUBCHEM_COMPONENT_COUNT>
3

>  <PUBCHEM_CACTVS_TAUTO_COUNT>
1

>  <PUBCHEM_COORDINATE_TYPE>
1
5
255

>  <PUBCHEM_BONDANNOTATIONS>
9  3  3

$$$$
