45253964
 OpenBabel06101807152D

167166  0  0  0  0  0  0  0  0999 V2000
   20.1865    4.7500    0.0000 O   0  0  0  0  0  0  0  0  0  0  0  0
   18.4545    2.7500    0.0000 O   0  0  0  0  0  0  0  0  0  0  0  0
   17.5885    4.2500    0.0000 O   0  0  0  0  0  0  0  0  0  0  0  0
   21.0526    3.2500    0.0000 O   0  0  0  0  0  0  0  0  0  0  0  0
   19.3205    1.2500    0.0000 O   0  0  0  0  0  0  0  0  0  0  0  0
   16.7224    5.7500    0.0000 O   0  0  0  0  0  0  0  0  0  0  0  0
   24.5167    4.2500    0.0000 C   0  0  0  0  0  0  0  0  0  0  0  0
   25.3827    4.7500    0.0000 C   0  0  0  0  0  0  0  0  0  0  0  0
   13.2583    4.7500    0.0000 C   0  0  0  0  0  0  0  0  0  0  0  0
   16.7224   -1.2500    0.0000 C   0  0  0  0  0  0  0  0  0  0  0  0
   23.6506    4.7500    0.0000 C   0  0  0  0  0  0  0  0  0  0  0  0
   15.8564   -1.7500    0.0000 C   0  0  0  0  0  0  0  0  0  0  0  0
   12.3923    4.2500    0.0000 C   0  0  0  0  0  0  0  0  0  0  0  0
   29.7128    7.2500    0.0000 C   0  0  0  0  0  0  0  0  0  0  0  0
   30.5788    7.7500    0.0000 C   0  0  0  0  0  0  0  0  0  0  0  0
   26.2487    4.2500    0.0000 C   0  0  0  0  0  0  0  0  0  0  0  0
    5.4641    4.2500    0.0000 C   0  0  0  0  0  0  0  0  0  0  0  0
   12.3923   -7.7500    0.0000 C   0  0  0  0  0  0  0  0  0  0  0  0
    6.3301    4.7500    0.0000 C   0  0  0  0  0  0  0  0  0  0  0  0
   13.2583   -7.2500    0.0000 C   0  0  0  0  0  0  0  0  0  0  0  0
   16.7224   -0.2500    0.0000 C   0  0  0  0  0  0  0  0  0  0  0  0
   14.1244    4.2500    0.0000 C   0  0  0  0  0  0  0  0  0  0  0  0
   11.5263    4.7500    0.0000 C   0  0  0  0  0  0  0  0  0  0  0  0
   15.8564   -2.7500    0.0000 C   0  0  0  0  0  0  0  0  0  0  0  0
   29.7128    6.2500    0.0000 C   0  0  0  0  0  0  0  0  0  0  0  0
   30.5788    8.7500    0.0000 C   0  0  0  0  0  0  0  0  0  0  0  0
    4.5981    4.7500    0.0000 C   0  0  0  0  0  0  0  0  0  0  0  0
   12.3923   -8.7500    0.0000 C   0  0  0  0  0  0  0  0  0  0  0  0
   13.2583   -6.2500    0.0000 C   0  0  0  0  0  0  0  0  0  0  0  0
    7.1962    4.2500    0.0000 C   0  0  0  0  0  0  0  0  0  0  0  0
   22.7846    4.2500    0.0000 C   0  0  0  0  0  0  0  0  0  0  0  0
   17.5885    0.2500    0.0000 C   0  0  0  0  0  0  0  0  0  0  0  0
   14.9904    4.7500    0.0000 C   0  0  0  0  0  0  0  0  0  0  0  0
   27.1147    4.7500    0.0000 C   0  0  0  0  0  0  0  0  0  0  0  0
   10.6603    4.2500    0.0000 C   0  0  0  0  0  0  0  0  0  0  0  0
   14.9904   -3.2500    0.0000 C   0  0  0  0  0  0  0  0  0  0  0  0
   28.8468    5.7500    0.0000 C   0  0  0  0  0  0  0  0  0  0  0  0
   31.4449    9.2500    0.0000 C   0  0  0  0  0  0  0  0  0  0  0  0
   11.5263   -9.2500    0.0000 C   0  0  0  0  0  0  0  0  0  0  0  0
    3.7320    4.2500    0.0000 C   0  0  0  0  0  0  0  0  0  0  0  0
    8.0622    4.7500    0.0000 C   0  0  0  0  0  0  0  0  0  0  0  0
   14.1244   -5.7500    0.0000 C   0  0  0  0  0  0  0  0  0  0  0  0
   21.9186    4.7500    0.0000 C   0  0  0  0  0  0  0  0  0  0  0  0
   17.5885    1.2500    0.0000 C   0  0  0  0  0  0  0  0  0  0  0  0
   15.8564    4.2500    0.0000 C   0  0  0  0  0  0  0  0  0  0  0  0
   27.9808    4.2500    0.0000 C   0  0  0  0  0  0  0  0  0  0  0  0
   28.8468    4.7500    0.0000 C   0  0  0  0  0  0  0  0  0  0  0  0
   31.4449   10.2500    0.0000 C   0  0  0  0  0  0  0  0  0  0  0  0
    2.8660    4.7500    0.0000 C   0  0  0  0  0  0  0  0  0  0  0  0
   11.5263  -10.2500    0.0000 C   0  0  0  0  0  0  0  0  0  0  0  0
   14.9904   -4.2500    0.0000 C   0  0  0  0  0  0  0  0  0  0  0  0
    9.7942    4.7500    0.0000 C   0  0  0  0  0  0  0  0  0  0  0  0
   14.1244   -4.7500    0.0000 C   0  0  0  0  0  0  0  0  0  0  0  0
    8.9282    4.2500    0.0000 C   0  0  0  0  0  0  0  0  0  0  0  0
   19.3205    4.2500    0.0000 C   0  0  3  0  0  0  0  0  0  0  0  0
   18.4545    4.7500    0.0000 C   0  0  0  0  0  0  0  0  0  0  0  0
   19.3205    3.2500    0.0000 C   0  0  0  0  0  0  0  0  0  0  0  0
   21.0526    4.2500    0.0000 C   0  0  0  0  0  0  0  0  0  0  0  0
   16.7224    4.7500    0.0000 C   0  0  0  0  0  0  0  0  0  0  0  0
   18.4545    1.7500    0.0000 C   0  0  0  0  0  0  0  0  0  0  0  0
   32.3109   10.7500    0.0000 C   0  0  0  0  0  0  0  0  0  0  0  0
   10.6603  -10.7500    0.0000 C   0  0  0  0  0  0  0  0  0  0  0  0
    2.0000    4.2500    0.0000 C   0  0  0  0  0  0  0  0  0  0  0  0
   24.1181    3.7750    0.0000 H   0  0  0  0  0  0  0  0  0  0  0  0
   24.9152    3.7750    0.0000 H   0  0  0  0  0  0  0  0  0  0  0  0
   25.7812    5.2250    0.0000 H   0  0  0  0  0  0  0  0  0  0  0  0
   24.9842    5.2250    0.0000 H   0  0  0  0  0  0  0  0  0  0  0  0
   13.6569    5.2250    0.0000 H   0  0  0  0  0  0  0  0  0  0  0  0
   12.8598    5.2250    0.0000 H   0  0  0  0  0  0  0  0  0  0  0  0
   16.9345   -1.8326    0.0000 H   0  0  0  0  0  0  0  0  0  0  0  0
   17.3330   -1.1423    0.0000 H   0  0  0  0  0  0  0  0  0  0  0  0
   24.0492    5.2250    0.0000 H   0  0  0  0  0  0  0  0  0  0  0  0
   23.2521    5.2250    0.0000 H   0  0  0  0  0  0  0  0  0  0  0  0
   11.9938    3.7750    0.0000 H   0  0  0  0  0  0  0  0  0  0  0  0
   12.7908    3.7750    0.0000 H   0  0  0  0  0  0  0  0  0  0  0  0
   15.6444   -1.1674    0.0000 H   0  0  0  0  0  0  0  0  0  0  0  0
   15.2458   -1.8577    0.0000 H   0  0  0  0  0  0  0  0  0  0  0  0
   29.5008    7.8326    0.0000 H   0  0  0  0  0  0  0  0  0  0  0  0
   29.1022    7.1423    0.0000 H   0  0  0  0  0  0  0  0  0  0  0  0
   30.7909    7.1674    0.0000 H   0  0  0  0  0  0  0  0  0  0  0  0
   31.1894    7.8577    0.0000 H   0  0  0  0  0  0  0  0  0  0  0  0
   25.8502    3.7750    0.0000 H   0  0  0  0  0  0  0  0  0  0  0  0
   26.6472    3.7750    0.0000 H   0  0  0  0  0  0  0  0  0  0  0  0
    5.0656    3.7750    0.0000 H   0  0  0  0  0  0  0  0  0  0  0  0
    5.8626    3.7750    0.0000 H   0  0  0  0  0  0  0  0  0  0  0  0
   12.1803   -7.1674    0.0000 H   0  0  0  0  0  0  0  0  0  0  0  0
   11.7817   -7.8577    0.0000 H   0  0  0  0  0  0  0  0  0  0  0  0
   13.4704   -7.8326    0.0000 H   0  0  0  0  0  0  0  0  0  0  0  0
   13.8689   -7.1423    0.0000 H   0  0  0  0  0  0  0  0  0  0  0  0
    6.7287    5.2250    0.0000 H   0  0  0  0  0  0  0  0  0  0  0  0
    5.9316    5.2250    0.0000 H   0  0  0  0  0  0  0  0  0  0  0  0
   13.7258    3.7750    0.0000 H   0  0  0  0  0  0  0  0  0  0  0  0
   14.5229    3.7750    0.0000 H   0  0  0  0  0  0  0  0  0  0  0  0
   16.5104    0.3326    0.0000 H   0  0  0  0  0  0  0  0  0  0  0  0
   16.1119   -0.3577    0.0000 H   0  0  0  0  0  0  0  0  0  0  0  0
   11.9248    5.2250    0.0000 H   0  0  0  0  0  0  0  0  0  0  0  0
   11.1278    5.2250    0.0000 H   0  0  0  0  0  0  0  0  0  0  0  0
   16.0685   -3.3326    0.0000 H   0  0  0  0  0  0  0  0  0  0  0  0
   16.4670   -2.6423    0.0000 H   0  0  0  0  0  0  0  0  0  0  0  0
   29.9249    5.6674    0.0000 H   0  0  0  0  0  0  0  0  0  0  0  0
   30.3234    6.3577    0.0000 H   0  0  0  0  0  0  0  0  0  0  0  0
   30.3668    9.3326    0.0000 H   0  0  0  0  0  0  0  0  0  0  0  0
   29.9683    8.6423    0.0000 H   0  0  0  0  0  0  0  0  0  0  0  0
   12.6044   -9.3326    0.0000 H   0  0  0  0  0  0  0  0  0  0  0  0
   13.0029   -8.6423    0.0000 H   0  0  0  0  0  0  0  0  0  0  0  0
    4.9966    5.2250    0.0000 H   0  0  0  0  0  0  0  0  0  0  0  0
    4.1996    5.2250    0.0000 H   0  0  0  0  0  0  0  0  0  0  0  0
   13.0463   -5.6674    0.0000 H   0  0  0  0  0  0  0  0  0  0  0  0
   12.6477   -6.3577    0.0000 H   0  0  0  0  0  0  0  0  0  0  0  0
    6.7976    3.7750    0.0000 H   0  0  0  0  0  0  0  0  0  0  0  0
    7.5947    3.7750    0.0000 H   0  0  0  0  0  0  0  0  0  0  0  0
   22.3861    3.7750    0.0000 H   0  0  0  0  0  0  0  0  0  0  0  0
   23.1831    3.7750    0.0000 H   0  0  0  0  0  0  0  0  0  0  0  0
   15.3889    5.2250    0.0000 H   0  0  0  0  0  0  0  0  0  0  0  0
   14.5919    5.2250    0.0000 H   0  0  0  0  0  0  0  0  0  0  0  0
   17.8005   -0.3326    0.0000 H   0  0  0  0  0  0  0  0  0  0  0  0
   18.1990    0.3577    0.0000 H   0  0  0  0  0  0  0  0  0  0  0  0
   27.5133    5.2250    0.0000 H   0  0  0  0  0  0  0  0  0  0  0  0
   26.7162    5.2250    0.0000 H   0  0  0  0  0  0  0  0  0  0  0  0
   14.7783   -2.6674    0.0000 H   0  0  0  0  0  0  0  0  0  0  0  0
   14.3798   -3.3577    0.0000 H   0  0  0  0  0  0  0  0  0  0  0  0
   10.2617    3.7750    0.0000 H   0  0  0  0  0  0  0  0  0  0  0  0
   11.0588    3.7750    0.0000 H   0  0  0  0  0  0  0  0  0  0  0  0
   28.6347    6.3326    0.0000 H   0  0  0  0  0  0  0  0  0  0  0  0
   28.2362    5.6423    0.0000 H   0  0  0  0  0  0  0  0  0  0  0  0
   31.6569    8.6674    0.0000 H   0  0  0  0  0  0  0  0  0  0  0  0
   32.0554    9.3577    0.0000 H   0  0  0  0  0  0  0  0  0  0  0  0
    3.3335    3.7750    0.0000 H   0  0  0  0  0  0  0  0  0  0  0  0
    4.1306    3.7750    0.0000 H   0  0  0  0  0  0  0  0  0  0  0  0
   11.3142   -8.6674    0.0000 H   0  0  0  0  0  0  0  0  0  0  0  0
   10.9157   -9.3577    0.0000 H   0  0  0  0  0  0  0  0  0  0  0  0
   14.3364   -6.3326    0.0000 H   0  0  0  0  0  0  0  0  0  0  0  0
   14.7349   -5.6423    0.0000 H   0  0  0  0  0  0  0  0  0  0  0  0
    8.4607    5.2250    0.0000 H   0  0  0  0  0  0  0  0  0  0  0  0
    7.6636    5.2250    0.0000 H   0  0  0  0  0  0  0  0  0  0  0  0
   22.3171    5.2250    0.0000 H   0  0  0  0  0  0  0  0  0  0  0  0
   21.5201    5.2250    0.0000 H   0  0  0  0  0  0  0  0  0  0  0  0
   17.3764    1.8326    0.0000 H   0  0  0  0  0  0  0  0  0  0  0  0
   16.9779    1.1423    0.0000 H   0  0  0  0  0  0  0  0  0  0  0  0
   15.4579    3.7750    0.0000 H   0  0  0  0  0  0  0  0  0  0  0  0
   16.2549    3.7750    0.0000 H   0  0  0  0  0  0  0  0  0  0  0  0
   27.9808    3.6300    0.0000 H   0  0  0  0  0  0  0  0  0  0  0  0
   29.3837    4.4400    0.0000 H   0  0  0  0  0  0  0  0  0  0  0  0
   31.2328   10.8326    0.0000 H   0  0  0  0  0  0  0  0  0  0  0  0
   30.8343   10.1423    0.0000 H   0  0  0  0  0  0  0  0  0  0  0  0
   11.7383  -10.8326    0.0000 H   0  0  0  0  0  0  0  0  0  0  0  0
   12.1369  -10.1423    0.0000 H   0  0  0  0  0  0  0  0  0  0  0  0
    3.2646    5.2250    0.0000 H   0  0  0  0  0  0  0  0  0  0  0  0
    2.4675    5.2250    0.0000 H   0  0  0  0  0  0  0  0  0  0  0  0
   15.5273   -4.5600    0.0000 H   0  0  0  0  0  0  0  0  0  0  0  0
    9.7942    5.3700    0.0000 H   0  0  0  0  0  0  0  0  0  0  0  0
   13.5874   -4.4400    0.0000 H   0  0  0  0  0  0  0  0  0  0  0  0
    8.9282    3.6300    0.0000 H   0  0  0  0  0  0  0  0  0  0  0  0
   19.8574    3.9400    0.0000 H   0  0  0  0  0  0  0  0  0  0  0  0
   18.8530    5.2250    0.0000 H   0  0  0  0  0  0  0  0  0  0  0  0
   18.0560    5.2250    0.0000 H   0  0  0  0  0  0  0  0  0  0  0  0
   19.5326    2.6674    0.0000 H   0  0  0  0  0  0  0  0  0  0  0  0
   19.9311    3.3577    0.0000 H   0  0  0  0  0  0  0  0  0  0  0  0
   32.6209   10.2131    0.0000 H   0  0  0  0  0  0  0  0  0  0  0  0
   32.8478   11.0600    0.0000 H   0  0  0  0  0  0  0  0  0  0  0  0
   32.0009   11.2869    0.0000 H   0  0  0  0  0  0  0  0  0  0  0  0
    1.6900    4.7869    0.0000 H   0  0  0  0  0  0  0  0  0  0  0  0
    1.4631    3.9400    0.0000 H   0  0  0  0  0  0  0  0  0  0  0  0
    2.3100    3.7131    0.0000 H   0  0  0  0  0  0  0  0  0  0  0  0
   10.3503  -10.2131    0.0000 H   0  0  0  0  0  0  0  0  0  0  0  0
   10.1233  -11.0600    0.0000 H   0  0  0  0  0  0  0  0  0  0  0  0
   10.9703  -11.2869    0.0000 H   0  0  0  0  0  0  0  0  0  0  0  0
  1 55  1  0  0  0  0
  1 58  1  0  0  0  0
  2 57  1  0  0  0  0
  2 60  1  0  0  0  0
  3 56  1  0  0  0  0
  3 59  1  0  0  0  0
  4 58  2  0  0  0  0
  5 60  2  0  0  0  0
  6 59  2  0  0  0  0
  7  8  1  0  0  0  0
  7 11  1  0  0  0  0
  7 64  1  0  0  0  0
  7 65  1  0  0  0  0
  8 16  1  0  0  0  0
  8 66  1  0  0  0  0
  8 67  1  0  0  0  0
  9 13  1  0  0  0  0
  9 22  1  0  0  0  0
  9 68  1  0  0  0  0
  9 69  1  0  0  0  0
 10 12  1  0  0  0  0
 10 21  1  0  0  0  0
 10 70  1  0  0  0  0
 10 71  1  0  0  0  0
 11 31  1  0  0  0  0
 11 72  1  0  0  0  0
 11 73  1  0  0  0  0
 12 24  1  0  0  0  0
 12 76  1  0  0  0  0
 12 77  1  0  0  0  0
 13 23  1  0  0  0  0
 13 74  1  0  0  0  0
 13 75  1  0  0  0  0
 14 15  1  0  0  0  0
 14 25  1  0  0  0  0
 14 78  1  0  0  0  0
 14 79  1  0  0  0  0
 15 26  1  0  0  0  0
 15 80  1  0  0  0  0
 15 81  1  0  0  0  0
 16 34  1  0  0  0  0
 16 82  1  0  0  0  0
 16 83  1  0  0  0  0
 17 19  1  0  0  0  0
 17 27  1  0  0  0  0
 17 84  1  0  0  0  0
 17 85  1  0  0  0  0
 18 20  1  0  0  0  0
 18 28  1  0  0  0  0
 18 86  1  0  0  0  0
 18 87  1  0  0  0  0
 19 30  1  0  0  0  0
 19 90  1  0  0  0  0
 19 91  1  0  0  0  0
 20 29  1  0  0  0  0
 20 88  1  0  0  0  0
 20 89  1  0  0  0  0
 21 32  1  0  0  0  0
 21 94  1  0  0  0  0
 21 95  1  0  0  0  0
 22 33  1  0  0  0  0
 22 92  1  0  0  0  0
 22 93  1  0  0  0  0
 23 35  1  0  0  0  0
 23 96  1  0  0  0  0
 23 97  1  0  0  0  0
 24 36  1  0  0  0  0
 24 98  1  0  0  0  0
 24 99  1  0  0  0  0
 25 37  1  0  0  0  0
 25100  1  0  0  0  0
 25101  1  0  0  0  0
 26 38  1  0  0  0  0
 26102  1  0  0  0  0
 26103  1  0  0  0  0
 27 40  1  0  0  0  0
 27106  1  0  0  0  0
 27107  1  0  0  0  0
 28 39  1  0  0  0  0
 28104  1  0  0  0  0
 28105  1  0  0  0  0
 29 42  1  0  0  0  0
 29108  1  0  0  0  0
 29109  1  0  0  0  0
 30 41  1  0  0  0  0
 30110  1  0  0  0  0
 30111  1  0  0  0  0
 31 43  1  0  0  0  0
 31112  1  0  0  0  0
 31113  1  0  0  0  0
 32 44  1  0  0  0  0
 32116  1  0  0  0  0
 32117  1  0  0  0  0
 33 45  1  0  0  0  0
 33114  1  0  0  0  0
 33115  1  0  0  0  0
 34 46  1  0  0  0  0
 34118  1  0  0  0  0
 34119  1  0  0  0  0
 35 52  1  0  0  0  0
 35122  1  0  0  0  0
 35123  1  0  0  0  0
 36 51  1  0  0  0  0
 36120  1  0  0  0  0
 36121  1  0  0  0  0
 37 47  1  0  0  0  0
 37124  1  0  0  0  0
 37125  1  0  0  0  0
 38 48  1  0  0  0  0
 38126  1  0  0  0  0
 38127  1  0  0  0  0
 39 50  1  0  0  0  0
 39130  1  0  0  0  0
 39131  1  0  0  0  0
 40 49  1  0  0  0  0
 40128  1  0  0  0  0
 40129  1  0  0  0  0
 41 54  1  0  0  0  0
 41134  1  0  0  0  0
 41135  1  0  0  0  0
 42 53  1  0  0  0  0
 42132  1  0  0  0  0
 42133  1  0  0  0  0
 43 58  1  0  0  0  0
 43136  1  0  0  0  0
 43137  1  0  0  0  0
 44 60  1  0  0  0  0
 44138  1  0  0  0  0
 44139  1  0  0  0  0
 45 59  1  0  0  0  0
 45140  1  0  0  0  0
 45141  1  0  0  0  0
 46 47  2  0  0  0  0
 46142  1  0  0  0  0
 47143  1  0  0  0  0
 48 61  1  0  0  0  0
 48144  1  0  0  0  0
 48145  1  0  0  0  0
 49 63  1  0  0  0  0
 49148  1  0  0  0  0
 49149  1  0  0  0  0
 50 62  1  0  0  0  0
 50146  1  0  0  0  0
 50147  1  0  0  0  0
 51 53  2  0  0  0  0
 51150  1  0  0  0  0
 52 54  2  0  0  0  0
 52151  1  0  0  0  0
 53152  1  0  0  0  0
 54153  1  0  0  0  0
 55 56  1  0  0  0  0
 55 57  1  0  0  0  0
 55154  1  0  0  0  0
 56155  1  0  0  0  0
 56156  1  0  0  0  0
 57157  1  0  0  0  0
 57158  1  0  0  0  0
 61159  1  0  0  0  0
 61160  1  0  0  0  0
 61161  1  0  0  0  0
 62165  1  0  0  0  0
 62166  1  0  0  0  0
 62167  1  0  0  0  0
 63162  1  0  0  0  0
 63163  1  0  0  0  0
 63164  1  0  0  0  0
M  END
>  <PUBCHEM_COMPOUND_CID>
45253964

>  <PUBCHEM_COMPOUND_CANONICALIZED>
1

>  <PUBCHEM_CACTVS_COMPLEXITY>
1010

>  <PUBCHEM_CACTVS_HBOND_ACCEPTOR>
6

>  <PUBCHEM_CACTVS_HBOND_DONOR>
0

>  <PUBCHEM_CACTVS_ROTATABLE_BOND>
53

>  <PUBCHEM_CACTVS_SUBSKEYS>
AAADcfB8OAAAAAAAAAAAAAAAAAAAAAAAAAAAAAAAAAAAAAAAAAAAGgAAAAAACBSggAICCAAABACIACDSCAAAAAAgAAAICAEAAAgBABIAAQACAAAFgAAKAAOIyKCAAAAAAAAAAAAAAAAAAAAAAAAAAAAAAA==

>  <PUBCHEM_IUPAC_OPENEYE_NAME>
[2-[(Z)-octadec-9-enoyl]oxy-3-[(E)-octadec-9-enoyl]oxy-propyl] (E)-octadec-9-enoate

>  <PUBCHEM_IUPAC_CAS_NAME>
(E)-9-octadecenoic acid [2-[(Z)-1-oxooctadec-9-enoxy]-3-[(E)-1-oxooctadec-9-enoxy]propyl] ester

>  <PUBCHEM_IUPAC_NAME>
[2-[(Z)-octadec-9-enoyl]oxy-3-[(E)-octadec-9-enoyl]oxypropyl] (E)-octadec-9-enoate

>  <PUBCHEM_IUPAC_SYSTEMATIC_NAME>
[2-[(Z)-octadec-9-enoyl]oxy-3-[(E)-octadec-9-enoyl]oxy-propyl] (E)-octadec-9-enoate

>  <PUBCHEM_IUPAC_TRADITIONAL_NAME>
(E)-octadec-9-enoic acid [2-[(Z)-octadec-9-enoyl]oxy-3-[(E)-octadec-9-enoyl]oxy-propyl] ester

>  <PUBCHEM_IUPAC_INCHI>
InChI=1S/C57H104O6/c1-4-7-10-13-16-19-22-25-28-31-34-37-40-43-46-49-55(58)61-52-54(63-57(60)51-48-45-42-39-36-33-30-27-24-21-18-15-12-9-6-3)53-62-56(59)50-47-44-41-38-35-32-29-26-23-20-17-14-11-8-5-2/h25-30,54H,4-24,31-53H2,1-3H3/b28-25+,29-26+,30-27-

>  <PUBCHEM_IUPAC_INCHIKEY>
PHYFQTYBJUILEZ-BSCDBXJPSA-N

>  <PUBCHEM_XLOGP3_AA>
22.4

>  <PUBCHEM_EXACT_MASS>
884.783

>  <PUBCHEM_MOLECULAR_FORMULA>
C57H104O6

>  <PUBCHEM_MOLECULAR_WEIGHT>
885.453

>  <PUBCHEM_OPENEYE_CAN_SMILES>
CCCCCCCCC=CCCCCCCCC(=O)OCC(COC(=O)CCCCCCCC=CCCCCCCCC)OC(=O)CCCCCCCC=CCCCCCCCC

>  <PUBCHEM_OPENEYE_ISO_SMILES>
CCCCCCCC/C=C/CCCCCCCC(=O)OCC(OC(=O)CCCCCCC/C=C\CCCCCCCC)COC(=O)CCCCCCC/C=C/CCCCCCCC

>  <PUBCHEM_CACTVS_TPSA>
78.9

>  <PUBCHEM_MONOISOTOPIC_WEIGHT>
884.783

>  <PUBCHEM_TOTAL_CHARGE>
0

>  <PUBCHEM_HEAVY_ATOM_COUNT>
63

>  <PUBCHEM_ATOM_DEF_STEREO_COUNT>
0

>  <PUBCHEM_ATOM_UDEF_STEREO_COUNT>
0

>  <PUBCHEM_BOND_DEF_STEREO_COUNT>
3

>  <PUBCHEM_BOND_UDEF_STEREO_COUNT>
0

>  <PUBCHEM_ISOTOPIC_ATOM_COUNT>
0

>  <PUBCHEM_COMPONENT_COUNT>
1

>  <PUBCHEM_CACTVS_TAUTO_COUNT>
1

>  <PUBCHEM_COORDINATE_TYPE>
1
5
255

$$$$
