4638509
 OpenBabel06101807152D

111118  0  0  1  0  0  0  0  0999 V2000
   10.8604   -2.5560    0.0000 O   0  0  0  0  0  0  0  0  0  0  0  0
    9.0743   -3.4233    0.0000 O   0  0  0  0  0  0  0  0  0  0  0  0
    7.7331    2.5926    0.0000 O   0  0  0  0  0  0  0  0  0  0  0  0
    9.5646    5.7091    0.0000 O   0  0  0  0  0  0  0  0  0  0  0  0
   11.4685   -5.2311    0.0000 O   0  0  0  0  0  0  0  0  0  0  0  0
    6.8671    4.0926    0.0000 O   0  0  0  0  0  0  0  0  0  0  0  0
    6.0010    1.5926    0.0000 O   0  0  0  0  0  0  0  0  0  0  0  0
    4.2690    2.5926    0.0000 O   0  0  0  0  0  0  0  0  0  0  0  0
    4.2690    4.5926    0.0000 O   0  0  0  0  0  0  0  0  0  0  0  0
    4.2690    1.5926    0.0000 O   0  0  0  0  0  0  0  0  0  0  0  0
    6.0010   -0.4074    0.0000 O   0  0  0  0  0  0  0  0  0  0  0  0
    4.2690   -1.4074    0.0000 O   0  0  0  0  0  0  0  0  0  0  0  0
    2.5369   -0.4074    0.0000 O   0  0  0  0  0  0  0  0  0  0  0  0
    9.4983   -0.4875    0.0000 C   0  0  3  0  0  0  0  0  0  0  0  0
   10.3738   -0.0043    0.0000 C   0  0  3  0  0  0  0  0  0  0  0  0
    9.6887   -1.4632    0.0000 C   0  0  3  0  0  0  0  0  0  0  0  0
   10.3930    0.9955    0.0000 C   0  0  3  0  0  0  0  0  0  0  0  0
   10.6753   -1.5853    0.0000 C   0  0  3  0  0  0  0  0  0  0  0  0
    9.5368    1.5121    0.0000 C   0  0  3  0  0  0  0  0  0  0  0  0
   11.0978   -0.6855    0.0000 C   0  0  0  0  0  0  0  0  0  0  0  0
    8.6420    0.0291    0.0000 C   0  0  0  0  0  0  0  0  0  0  0  0
    9.2726   -2.3595    0.0000 C   0  0  3  0  0  0  0  0  0  0  0  0
    8.6613    1.0289    0.0000 C   0  0  0  0  0  0  0  0  0  0  0  0
    9.5408    2.5538    0.0000 C   0  0  3  0  0  0  0  0  0  0  0  0
    9.9952   -3.0335    0.0000 C   0  0  3  0  0  0  0  0  0  0  0  0
    8.6228   -0.9707    0.0000 C   0  0  0  0  0  0  0  0  0  0  0  0
   11.3126    1.4847    0.0000 C   0  0  0  0  0  0  0  0  0  0  0  0
   10.4489    3.0641    0.0000 C   0  0  0  0  0  0  0  0  0  0  0  0
    8.5991    3.0926    0.0000 C   0  0  3  0  0  0  0  0  0  0  0  0
   10.7933   -3.6360    0.0000 C   0  0  0  0  0  0  0  0  0  0  0  0
    8.2911   -2.5510    0.0000 C   0  0  0  0  0  0  0  0  0  0  0  0
   11.3407    2.5260    0.0000 C   0  0  0  0  0  0  0  0  0  0  0  0
    8.6691    2.0638    0.0000 C   0  0  0  0  0  0  0  0  0  0  0  0
   10.4781    4.1487    0.0000 C   0  0  0  0  0  0  0  0  0  0  0  0
    8.6033    4.1776    0.0000 C   0  0  0  0  0  0  0  0  0  0  0  0
    9.5491    4.7092    0.0000 C   0  0  3  0  0  0  0  0  0  0  0  0
   10.6705   -4.6285    0.0000 C   0  0  3  0  0  0  0  0  0  0  0  0
    9.7496   -5.0183    0.0000 C   0  0  3  0  0  0  0  0  0  0  0  0
    8.9515   -4.4158    0.0000 C   0  0  0  0  0  0  0  0  0  0  0  0
    6.8671    3.0926    0.0000 C   0  0  3  0  0  0  0  0  0  0  0  0
    9.6268   -6.0108    0.0000 C   0  0  0  0  0  0  0  0  0  0  0  0
    6.0010    2.5926    0.0000 C   0  0  3  0  0  0  0  0  0  0  0  0
    5.1350    3.0926    0.0000 C   0  0  3  0  0  0  0  0  0  0  0  0
    6.0010    4.5926    0.0000 C   0  0  0  0  0  0  0  0  0  0  0  0
    5.1350    4.0926    0.0000 C   0  0  3  0  0  0  0  0  0  0  0  0
    5.1350    1.0926    0.0000 C   0  0  3  0  0  0  0  0  0  0  0  0
    5.1350    0.0926    0.0000 C   0  0  3  0  0  0  0  0  0  0  0  0
    4.2690   -0.4074    0.0000 C   0  0  3  0  0  0  0  0  0  0  0  0
    3.4030    1.0926    0.0000 C   0  0  3  0  0  0  0  0  0  0  0  0
    3.4030    0.0926    0.0000 C   0  0  3  0  0  0  0  0  0  0  0  0
    2.5369    1.5926    0.0000 C   0  0  0  0  0  0  0  0  0  0  0  0
   11.1572    0.3254    0.0000 H   0  0  0  0  0  0  0  0  0  0  0  0
    8.8449   -1.3606    0.0000 H   0  0  0  0  0  0  0  0  0  0  0  0
   11.1174    0.5508    0.0000 H   0  0  0  0  0  0  0  0  0  0  0  0
   11.5186   -1.6915    0.0000 H   0  0  0  0  0  0  0  0  0  0  0  0
   10.2778    1.9286    0.0000 H   0  0  0  0  0  0  0  0  0  0  0  0
   11.6282   -1.0065    0.0000 H   0  0  0  0  0  0  0  0  0  0  0  0
   11.4728   -0.1917    0.0000 H   0  0  0  0  0  0  0  0  0  0  0  0
    8.0336    0.1485    0.0000 H   0  0  0  0  0  0  0  0  0  0  0  0
    8.4188   -0.5493    0.0000 H   0  0  0  0  0  0  0  0  0  0  0  0
    8.7484   -1.6903    0.0000 H   0  0  0  0  0  0  0  0  0  0  0  0
    8.4605    1.6155    0.0000 H   0  0  0  0  0  0  0  0  0  0  0  0
    8.0488    0.9330    0.0000 H   0  0  0  0  0  0  0  0  0  0  0  0
    8.3232   -0.4279    0.0000 H   0  0  0  0  0  0  0  0  0  0  0  0
    8.0800   -1.2703    0.0000 H   0  0  0  0  0  0  0  0  0  0  0  0
    8.9224   -1.5135    0.0000 H   0  0  0  0  0  0  0  0  0  0  0  0
   11.5059    0.8956    0.0000 H   0  0  0  0  0  0  0  0  0  0  0  0
   11.9261    1.5743    0.0000 H   0  0  0  0  0  0  0  0  0  0  0  0
    7.8638    3.5190    0.0000 H   0  0  0  0  0  0  0  0  0  0  0  0
   11.3860   -3.8179    0.0000 H   0  0  0  0  0  0  0  0  0  0  0  0
   11.0753   -3.0839    0.0000 H   0  0  0  0  0  0  0  0  0  0  0  0
    8.1723   -1.9425    0.0000 H   0  0  0  0  0  0  0  0  0  0  0  0
    7.6826   -2.6698    0.0000 H   0  0  0  0  0  0  0  0  0  0  0  0
    8.4098   -3.1596    0.0000 H   0  0  0  0  0  0  0  0  0  0  0  0
   11.8847    2.8235    0.0000 H   0  0  0  0  0  0  0  0  0  0  0  0
    8.3653    2.6043    0.0000 H   0  0  0  0  0  0  0  0  0  0  0  0
    8.1286    1.7600    0.0000 H   0  0  0  0  0  0  0  0  0  0  0  0
    8.9728    1.5233    0.0000 H   0  0  0  0  0  0  0  0  0  0  0  0
   11.0859    4.0262    0.0000 H   0  0  0  0  0  0  0  0  0  0  0  0
   10.7029    4.7265    0.0000 H   0  0  0  0  0  0  0  0  0  0  0  0
    8.3965    4.7621    0.0000 H   0  0  0  0  0  0  0  0  0  0  0  0
    7.9920    4.0739    0.0000 H   0  0  0  0  0  0  0  0  0  0  0  0
   10.2925    5.1214    0.0000 H   0  0  0  0  0  0  0  0  0  0  0  0
   10.5661   -5.4720    0.0000 H   0  0  0  0  0  0  0  0  0  0  0  0
    8.9668   -5.3497    0.0000 H   0  0  0  0  0  0  0  0  0  0  0  0
    8.3588   -4.2339    0.0000 H   0  0  0  0  0  0  0  0  0  0  0  0
    8.6695   -4.9679    0.0000 H   0  0  0  0  0  0  0  0  0  0  0  0
    6.8671    2.2426    0.0000 H   0  0  0  0  0  0  0  0  0  0  0  0
    9.0115   -5.9346    0.0000 H   0  0  0  0  0  0  0  0  0  0  0  0
    9.5506   -6.6261    0.0000 H   0  0  0  0  0  0  0  0  0  0  0  0
   10.2421   -6.0869    0.0000 H   0  0  0  0  0  0  0  0  0  0  0  0
   10.1062    6.0108    0.0000 H   0  0  0  0  0  0  0  0  0  0  0  0
   11.3924   -5.8464    0.0000 H   0  0  0  0  0  0  0  0  0  0  0  0
    5.2649    2.1676    0.0000 H   0  0  0  0  0  0  0  0  0  0  0  0
    4.3989    3.5176    0.0000 H   0  0  0  0  0  0  0  0  0  0  0  0
    6.3996    5.0676    0.0000 H   0  0  0  0  0  0  0  0  0  0  0  0
    5.6025    5.0676    0.0000 H   0  0  0  0  0  0  0  0  0  0  0  0
    5.1350    4.9426    0.0000 H   0  0  0  0  0  0  0  0  0  0  0  0
    5.8711    0.6676    0.0000 H   0  0  0  0  0  0  0  0  0  0  0  0
    3.7320    2.9026    0.0000 H   0  0  0  0  0  0  0  0  0  0  0  0
    4.2690    5.2126    0.0000 H   0  0  0  0  0  0  0  0  0  0  0  0
    5.1350   -0.7574    0.0000 H   0  0  0  0  0  0  0  0  0  0  0  0
    3.5329   -0.8324    0.0000 H   0  0  0  0  0  0  0  0  0  0  0  0
    3.4030    1.9426    0.0000 H   0  0  0  0  0  0  0  0  0  0  0  0
    2.6668    0.5176    0.0000 H   0  0  0  0  0  0  0  0  0  0  0  0
    6.0010   -1.0274    0.0000 H   0  0  0  0  0  0  0  0  0  0  0  0
    2.8469    2.1296    0.0000 H   0  0  0  0  0  0  0  0  0  0  0  0
    2.0000    1.9026    0.0000 H   0  0  0  0  0  0  0  0  0  0  0  0
    2.2269    1.0557    0.0000 H   0  0  0  0  0  0  0  0  0  0  0  0
    3.7320   -1.7174    0.0000 H   0  0  0  0  0  0  0  0  0  0  0  0
    2.0000   -0.0974    0.0000 H   0  0  0  0  0  0  0  0  0  0  0  0
  1 18  1  0  0  0  0
  1 25  1  0  0  0  0
  2 25  1  0  0  0  0
  2 39  1  0  0  0  0
  3 29  1  0  0  0  0
  3 40  1  0  0  0  0
  4 36  1  0  0  0  0
  4 92  1  0  0  0  0
  5 37  1  0  0  0  0
  5 93  1  0  0  0  0
  6 40  1  0  0  0  0
  6 44  1  0  0  0  0
  7 42  1  0  0  0  0
  7 46  1  0  0  0  0
  8 43  1  0  0  0  0
  8100  1  0  0  0  0
  9 45  1  0  0  0  0
  9101  1  0  0  0  0
 10 46  1  0  0  0  0
 10 49  1  0  0  0  0
 11 47  1  0  0  0  0
 11106  1  0  0  0  0
 12 48  1  0  0  0  0
 12110  1  0  0  0  0
 13 50  1  0  0  0  0
 13111  1  0  0  0  0
 14 15  1  0  0  0  0
 14 16  1  0  0  0  0
 14 21  1  0  0  0  0
 14 26  1  0  0  0  0
 15 17  1  0  0  0  0
 15 20  1  0  0  0  0
 15 52  1  0  0  0  0
 16 18  1  0  0  0  0
 16 22  1  0  0  0  0
 16 53  1  0  0  0  0
 17 19  1  0  0  0  0
 17 27  1  0  0  0  0
 17 54  1  0  0  0  0
 18 20  1  0  0  0  0
 18 55  1  0  0  0  0
 19 23  1  0  0  0  0
 19 24  1  0  0  0  0
 19 56  1  0  0  0  0
 20 57  1  0  0  0  0
 20 58  1  0  0  0  0
 21 23  1  0  0  0  0
 21 59  1  0  0  0  0
 21 60  1  0  0  0  0
 22 25  1  0  0  0  0
 22 31  1  0  0  0  0
 22 61  1  0  0  0  0
 23 62  1  0  0  0  0
 23 63  1  0  0  0  0
 24 28  1  0  0  0  0
 24 29  1  0  0  0  0
 24 33  1  0  0  0  0
 25 30  1  0  0  0  0
 26 64  1  0  0  0  0
 26 65  1  0  0  0  0
 26 66  1  0  0  0  0
 27 32  1  0  0  0  0
 27 67  1  0  0  0  0
 27 68  1  0  0  0  0
 28 32  2  0  0  0  0
 28 34  1  0  0  0  0
 29 35  1  0  0  0  0
 29 69  1  0  0  0  0
 30 37  1  0  0  0  0
 30 70  1  0  0  0  0
 30 71  1  0  0  0  0
 31 72  1  0  0  0  0
 31 73  1  0  0  0  0
 31 74  1  0  0  0  0
 32 75  1  0  0  0  0
 33 76  1  0  0  0  0
 33 77  1  0  0  0  0
 33 78  1  0  0  0  0
 34 36  1  0  0  0  0
 34 79  1  0  0  0  0
 34 80  1  0  0  0  0
 35 36  1  0  0  0  0
 35 81  1  0  0  0  0
 35 82  1  0  0  0  0
 36 83  1  0  0  0  0
 37 38  1  0  0  0  0
 37 84  1  0  0  0  0
 38 39  1  0  0  0  0
 38 41  1  0  0  0  0
 38 85  1  0  0  0  0
 39 86  1  0  0  0  0
 39 87  1  0  0  0  0
 40 42  1  0  0  0  0
 40 88  1  0  0  0  0
 41 89  1  0  0  0  0
 41 90  1  0  0  0  0
 41 91  1  0  0  0  0
 42 43  1  0  0  0  0
 42 94  1  0  0  0  0
 43 45  1  0  0  0  0
 43 95  1  0  0  0  0
 44 45  1  0  0  0  0
 44 96  1  0  0  0  0
 44 97  1  0  0  0  0
 45 98  1  0  0  0  0
 46 47  1  0  0  0  0
 46 99  1  0  0  0  0
 47 48  1  0  0  0  0
 47102  1  0  0  0  0
 48 50  1  0  0  0  0
 48103  1  0  0  0  0
 49 50  1  0  0  0  0
 49 51  1  0  0  0  0
 49104  1  0  0  0  0
 50105  1  0  0  0  0
 51107  1  0  0  0  0
 51108  1  0  0  0  0
 51109  1  0  0  0  0
M  END
>  <PUBCHEM_COMPOUND_CID>
4638509

>  <PUBCHEM_COMPOUND_CANONICALIZED>
1

>  <PUBCHEM_CACTVS_COMPLEXITY>
1330

>  <PUBCHEM_CACTVS_HBOND_ACCEPTOR>
13

>  <PUBCHEM_CACTVS_HBOND_DONOR>
7

>  <PUBCHEM_CACTVS_ROTATABLE_BOND>
4

>  <PUBCHEM_CACTVS_SUBSKEYS>
AAADcfB8PAAAAAAAAAAAAAAAAAAAAaIAAAA0aJECAAASAGCAAAAAGgAACAAADxSwgAMCCAAABgCAAiBCAAAAAAAgAAAACAAAAAgREAIAAQAiQAAFwAAPAAPA4PwPgAAAAAAAAADAAAQQADAAAYAADAAAAA==

>  <PUBCHEM_IUPAC_INCHI>
InChI=1S/C38H60O13/c1-16-14-47-38(13-24(16)40)17(2)28-26(51-38)12-23-21-7-6-19-10-20(39)11-27(37(19,5)22(21)8-9-36(23,28)4)49-35-33(30(43)25(41)15-46-35)50-34-32(45)31(44)29(42)18(3)48-34/h6,16-18,20-35,39-45H,7-15H2,1-5H3

>  <PUBCHEM_IUPAC_INCHIKEY>
CEUOJNPNKKLCDB-UHFFFAOYSA-N

>  <PUBCHEM_XLOGP3_AA>
1.1

>  <PUBCHEM_EXACT_MASS>
724.403

>  <PUBCHEM_MOLECULAR_FORMULA>
C38H60O13

>  <PUBCHEM_MOLECULAR_WEIGHT>
724.885

>  <PUBCHEM_OPENEYE_CAN_SMILES>
CC1COC2(CC1O)C(C3C(O2)CC4C3(CCC5C4CC=C6C5(C(CC(C6)O)OC7C(C(C(CO7)O)O)OC8C(C(C(C(O8)C)O)O)O)C)C)C

>  <PUBCHEM_OPENEYE_ISO_SMILES>
CC1COC2(CC1O)C(C3C(O2)CC4C3(CCC5C4CC=C6C5(C(CC(C6)O)OC7C(C(C(CO7)O)O)OC8C(C(C(C(O8)C)O)O)O)C)C)C

>  <PUBCHEM_CACTVS_TPSA>
197

>  <PUBCHEM_MONOISOTOPIC_WEIGHT>
724.403

>  <PUBCHEM_TOTAL_CHARGE>
0

>  <PUBCHEM_HEAVY_ATOM_COUNT>
51

>  <PUBCHEM_ATOM_DEF_STEREO_COUNT>
0

>  <PUBCHEM_ATOM_UDEF_STEREO_COUNT>
22

>  <PUBCHEM_BOND_DEF_STEREO_COUNT>
0

>  <PUBCHEM_BOND_UDEF_STEREO_COUNT>
0

>  <PUBCHEM_ISOTOPIC_ATOM_COUNT>
0

>  <PUBCHEM_COMPONENT_COUNT>
1

>  <PUBCHEM_CACTVS_TAUTO_COUNT>
1

>  <PUBCHEM_COORDINATE_TYPE>
1
5
255

>  <PUBCHEM_BONDANNOTATIONS>
14  26  3
15  52  3
16  53  3
17  54  3
18  55  3
19  56  3
22  61  3
24  33  3
25  30  3
29  69  3
36  83  3
37  84  3
38  85  3
40  88  3
42  94  3
43  95  3
45  98  3
46  99  3
47  102  3
48  103  3
49  104  3
50  105  3

$$$$
