47945
 OpenBabel06101807152D

 43 43  0  0  1  0  0  0  0  0999 V2000
    6.3301    1.2694    0.0000 O   0  0  0  0  0  0  0  0  0  0  0  0
    4.5981    3.2694    0.0000 O   0  0  0  0  0  0  0  0  0  0  0  0
    2.0000   -1.2306    0.0000 O   0  0  0  0  0  0  0  0  0  0  0  0
    3.3660   -4.2694    0.0000 O   0  0  0  0  0  0  0  0  0  0  0  0
    4.5981    0.2694    0.0000 C   0  0  3  0  0  0  0  0  0  0  0  0
    4.5981    1.2694    0.0000 C   0  0  0  0  0  0  0  0  0  0  0  0
    5.4641    1.7694    0.0000 C   0  0  3  0  0  0  0  0  0  0  0  0
    5.4641    2.7694    0.0000 C   0  0  3  0  0  0  0  0  0  0  0  0
    6.3301    3.2694    0.0000 C   0  0  0  0  0  0  0  0  0  0  0  0
    3.7320   -0.2306    0.0000 C   0  0  0  0  0  0  0  0  0  0  0  0
    5.4641   -0.2306    0.0000 C   0  0  0  0  0  0  0  0  0  0  0  0
    3.7320   -1.2306    0.0000 C   0  0  0  0  0  0  0  0  0  0  0  0
    6.3301    4.2694    0.0000 C   0  0  0  0  0  0  0  0  0  0  0  0
    7.1962    2.7694    0.0000 C   0  0  0  0  0  0  0  0  0  0  0  0
    2.8660   -1.7306    0.0000 C   0  0  0  0  0  0  0  0  0  0  0  0
    2.8660   -2.7306    0.0000 C   0  0  0  0  0  0  0  0  0  0  0  0
    2.0570   -3.3184    0.0000 C   0  0  0  0  0  0  0  0  0  0  0  0
    3.6750   -3.3184    0.0000 C   0  0  0  0  0  0  0  0  0  0  0  0
    2.3660   -4.2694    0.0000 C   0  0  0  0  0  0  0  0  0  0  0  0
    4.5981   -0.5806    0.0000 H   0  0  0  0  0  0  0  0  0  0  0  0
    4.3860    1.8520    0.0000 H   0  0  0  0  0  0  0  0  0  0  0  0
    3.9875    1.1618    0.0000 H   0  0  0  0  0  0  0  0  0  0  0  0
    5.4641    0.9194    0.0000 H   0  0  0  0  0  0  0  0  0  0  0  0
    5.4641    3.6194    0.0000 H   0  0  0  0  0  0  0  0  0  0  0  0
    6.8671    3.5794    0.0000 H   0  0  0  0  0  0  0  0  0  0  0  0
    3.5200    0.3520    0.0000 H   0  0  0  0  0  0  0  0  0  0  0  0
    3.1215   -0.3382    0.0000 H   0  0  0  0  0  0  0  0  0  0  0  0
    5.1541   -0.7675    0.0000 H   0  0  0  0  0  0  0  0  0  0  0  0
    6.0010   -0.5406    0.0000 H   0  0  0  0  0  0  0  0  0  0  0  0
    5.7741    0.3064    0.0000 H   0  0  0  0  0  0  0  0  0  0  0  0
    3.9441   -1.8132    0.0000 H   0  0  0  0  0  0  0  0  0  0  0  0
    4.3426   -1.1229    0.0000 H   0  0  0  0  0  0  0  0  0  0  0  0
    6.9501    4.2694    0.0000 H   0  0  0  0  0  0  0  0  0  0  0  0
    6.3301    4.8894    0.0000 H   0  0  0  0  0  0  0  0  0  0  0  0
    5.7101    4.2694    0.0000 H   0  0  0  0  0  0  0  0  0  0  0  0
    6.8862    2.2325    0.0000 H   0  0  0  0  0  0  0  0  0  0  0  0
    7.7331    2.4594    0.0000 H   0  0  0  0  0  0  0  0  0  0  0  0
    7.5062    3.3064    0.0000 H   0  0  0  0  0  0  0  0  0  0  0  0
    6.8671    1.5794    0.0000 H   0  0  0  0  0  0  0  0  0  0  0  0
    4.5981    3.8894    0.0000 H   0  0  0  0  0  0  0  0  0  0  0  0
    1.4674   -3.1268    0.0000 H   0  0  0  0  0  0  0  0  0  0  0  0
    4.2647   -3.1268    0.0000 H   0  0  0  0  0  0  0  0  0  0  0  0
    2.0016   -4.7710    0.0000 H   0  0  0  0  0  0  0  0  0  0  0  0
  1  7  1  0  0  0  0
  1 39  1  0  0  0  0
  2  8  1  0  0  0  0
  2 40  1  0  0  0  0
  3 15  2  0  0  0  0
  4 18  1  0  0  0  0
  4 19  1  0  0  0  0
  5  6  1  0  0  0  0
  5 10  1  0  0  0  0
  5 11  1  0  0  0  0
  5 20  1  0  0  0  0
  6  7  1  0  0  0  0
  6 21  1  0  0  0  0
  6 22  1  0  0  0  0
  7  8  1  0  0  0  0
  7 23  1  0  0  0  0
  8  9  1  0  0  0  0
  8 24  1  0  0  0  0
  9 13  1  0  0  0  0
  9 14  1  0  0  0  0
  9 25  1  0  0  0  0
 10 12  1  0  0  0  0
 10 26  1  0  0  0  0
 10 27  1  0  0  0  0
 11 28  1  0  0  0  0
 11 29  1  0  0  0  0
 11 30  1  0  0  0  0
 12 15  1  0  0  0  0
 12 31  1  0  0  0  0
 12 32  1  0  0  0  0
 13 33  1  0  0  0  0
 13 34  1  0  0  0  0
 13 35  1  0  0  0  0
 14 36  1  0  0  0  0
 14 37  1  0  0  0  0
 14 38  1  0  0  0  0
 15 16  1  0  0  0  0
 16 17  1  0  0  0  0
 16 18  2  0  0  0  0
 17 19  2  0  0  0  0
 17 41  1  0  0  0  0
 18 42  1  0  0  0  0
 19 43  1  0  0  0  0
M  END
>  <PUBCHEM_COMPOUND_CID>
47945

>  <PUBCHEM_COMPOUND_CANONICALIZED>
1

>  <PUBCHEM_CACTVS_COMPLEXITY>
277

>  <PUBCHEM_CACTVS_HBOND_ACCEPTOR>
4

>  <PUBCHEM_CACTVS_HBOND_DONOR>
2

>  <PUBCHEM_CACTVS_ROTATABLE_BOND>
8

>  <PUBCHEM_CACTVS_SUBSKEYS>
AAADceBwOAAAAAAAAAAAAAAAAAAAASAAAAAAAAAAAAAAAAABgAAAGgAACAAADRSgmAIyBIAABkCIAqhSgAACCAAkIAAIiAEGCMgNNhYMNQqCWWCk4BEJKYOLyOCOAAAAAAAAAAAAAAAAAAAAAAAAAAAAAA==

>  <PUBCHEM_IUPAC_OPENEYE_NAME>
1-(3-furyl)-6,7-dihydroxy-4,8-dimethyl-nonan-1-one

>  <PUBCHEM_IUPAC_CAS_NAME>
1-(3-furanyl)-6,7-dihydroxy-4,8-dimethyl-1-nonanone

>  <PUBCHEM_IUPAC_NAME>
1-(furan-3-yl)-6,7-dihydroxy-4,8-dimethylnonan-1-one

>  <PUBCHEM_IUPAC_SYSTEMATIC_NAME>
1-(furan-3-yl)-4,8-dimethyl-6,7-bis(oxidanyl)nonan-1-one

>  <PUBCHEM_IUPAC_TRADITIONAL_NAME>
1-(3-furyl)-6,7-dihydroxy-4,8-dimethyl-nonan-1-one

>  <PUBCHEM_IUPAC_INCHI>
InChI=1S/C15H24O4/c1-10(2)15(18)14(17)8-11(3)4-5-13(16)12-6-7-19-9-12/h6-7,9-11,14-15,17-18H,4-5,8H2,1-3H3

>  <PUBCHEM_IUPAC_INCHIKEY>
PRLJTIPWGNRUNG-UHFFFAOYSA-N

>  <PUBCHEM_XLOGP3>
2.7

>  <PUBCHEM_EXACT_MASS>
268.167

>  <PUBCHEM_MOLECULAR_FORMULA>
C15H24O4

>  <PUBCHEM_MOLECULAR_WEIGHT>
268.353

>  <PUBCHEM_OPENEYE_CAN_SMILES>
CC(C)C(C(CC(C)CCC(=O)C1=COC=C1)O)O

>  <PUBCHEM_OPENEYE_ISO_SMILES>
CC(C)C(C(CC(C)CCC(=O)C1=COC=C1)O)O

>  <PUBCHEM_CACTVS_TPSA>
70.7

>  <PUBCHEM_MONOISOTOPIC_WEIGHT>
268.167

>  <PUBCHEM_TOTAL_CHARGE>
0

>  <PUBCHEM_HEAVY_ATOM_COUNT>
19

>  <PUBCHEM_ATOM_DEF_STEREO_COUNT>
0

>  <PUBCHEM_ATOM_UDEF_STEREO_COUNT>
3

>  <PUBCHEM_BOND_DEF_STEREO_COUNT>
0

>  <PUBCHEM_BOND_UDEF_STEREO_COUNT>
0

>  <PUBCHEM_ISOTOPIC_ATOM_COUNT>
0

>  <PUBCHEM_COMPONENT_COUNT>
1

>  <PUBCHEM_CACTVS_TAUTO_COUNT>
2

>  <PUBCHEM_COORDINATE_TYPE>
1
5
255

>  <PUBCHEM_BONDANNOTATIONS>
16  17  8
16  18  8
17  19  8
4  18  8
4  19  8
5  20  3
7  23  3
8  24  3

$$$$
