480783
 OpenBabel06101807152D

 56 58  0  0  0  0  0  0  0  0999 V2000
    8.0901   -0.3017    0.0000 O   0  0  0  0  0  0  0  0  0  0  0  0
    4.5981   -0.2671    0.0000 O   0  0  0  0  0  0  0  0  0  0  0  0
    6.3301    2.7329    0.0000 O   0  0  0  0  0  0  0  0  0  0  0  0
    8.0785    2.7675    0.0000 O   0  0  0  0  0  0  0  0  0  0  0  0
   12.4525    3.2671    0.0000 O   0  0  0  0  0  0  0  0  0  0  0  0
    6.3301   -0.2671    0.0000 C   0  0  0  0  0  0  0  0  0  0  0  0
    5.4641    1.2329    0.0000 C   0  0  0  0  0  0  0  0  0  0  0  0
    7.1962    1.2329    0.0000 C   0  0  0  0  0  0  0  0  0  0  0  0
    7.1962    0.2329    0.0000 C   0  0  0  0  0  0  0  0  0  0  0  0
    5.4641    0.2329    0.0000 C   0  0  0  0  0  0  0  0  0  0  0  0
    6.3301    1.7329    0.0000 C   0  0  0  0  0  0  0  0  0  0  0  0
    6.3301   -1.2671    0.0000 C   0  0  0  0  0  0  0  0  0  0  0  0
    4.5981    1.7329    0.0000 C   0  0  0  0  0  0  0  0  0  0  0  0
    8.0901    1.7676    0.0000 C   0  0  0  0  0  0  0  0  0  0  0  0
    8.9962    1.2537    0.0000 C   0  0  0  0  0  0  0  0  0  0  0  0
    5.4641   -1.7671    0.0000 C   0  0  0  0  0  0  0  0  0  0  0  0
    8.9962    0.2121    0.0000 C   0  0  0  0  0  0  0  0  0  0  0  0
    3.7320    1.2329    0.0000 C   0  0  0  0  0  0  0  0  0  0  0  0
    9.8602    1.7571    0.0000 C   0  0  0  0  0  0  0  0  0  0  0  0
    5.4641   -2.7671    0.0000 C   0  0  0  0  0  0  0  0  0  0  0  0
    2.8660    1.7329    0.0000 C   0  0  0  0  0  0  0  0  0  0  0  0
   10.7282    1.2604    0.0000 C   0  0  0  0  0  0  0  0  0  0  0  0
    9.8564    2.7571    0.0000 C   0  0  0  0  0  0  0  0  0  0  0  0
    4.5981   -3.2671    0.0000 C   0  0  0  0  0  0  0  0  0  0  0  0
    6.3301   -3.2671    0.0000 C   0  0  0  0  0  0  0  0  0  0  0  0
    2.0000    1.2329    0.0000 C   0  0  0  0  0  0  0  0  0  0  0  0
    2.8660    2.7329    0.0000 C   0  0  0  0  0  0  0  0  0  0  0  0
   11.5923    1.7638    0.0000 C   0  0  0  0  0  0  0  0  0  0  0  0
   10.7205    3.2604    0.0000 C   0  0  0  0  0  0  0  0  0  0  0  0
   11.5884    2.7637    0.0000 C   0  0  0  0  0  0  0  0  0  0  0  0
    6.5422   -1.8497    0.0000 H   0  0  0  0  0  0  0  0  0  0  0  0
    6.9407   -1.1594    0.0000 H   0  0  0  0  0  0  0  0  0  0  0  0
    4.9966    2.2079    0.0000 H   0  0  0  0  0  0  0  0  0  0  0  0
    4.1996    2.2079    0.0000 H   0  0  0  0  0  0  0  0  0  0  0  0
    4.9272   -1.4571    0.0000 H   0  0  0  0  0  0  0  0  0  0  0  0
    9.5319   -0.1000    0.0000 H   0  0  0  0  0  0  0  0  0  0  0  0
    3.7320    0.6129    0.0000 H   0  0  0  0  0  0  0  0  0  0  0  0
    4.5981   -0.8871    0.0000 H   0  0  0  0  0  0  0  0  0  0  0  0
    5.7932    3.0429    0.0000 H   0  0  0  0  0  0  0  0  0  0  0  0
   10.7306    0.6404    0.0000 H   0  0  0  0  0  0  0  0  0  0  0  0
    9.3183    3.0650    0.0000 H   0  0  0  0  0  0  0  0  0  0  0  0
    4.2881   -2.7301    0.0000 H   0  0  0  0  0  0  0  0  0  0  0  0
    4.0611   -3.5771    0.0000 H   0  0  0  0  0  0  0  0  0  0  0  0
    4.9081   -3.8040    0.0000 H   0  0  0  0  0  0  0  0  0  0  0  0
    6.0201   -3.8040    0.0000 H   0  0  0  0  0  0  0  0  0  0  0  0
    6.8671   -3.5771    0.0000 H   0  0  0  0  0  0  0  0  0  0  0  0
    6.6401   -2.7301    0.0000 H   0  0  0  0  0  0  0  0  0  0  0  0
    3.4860    2.7329    0.0000 H   0  0  0  0  0  0  0  0  0  0  0  0
    2.8660    3.3529    0.0000 H   0  0  0  0  0  0  0  0  0  0  0  0
    2.2460    2.7329    0.0000 H   0  0  0  0  0  0  0  0  0  0  0  0
    1.6900    1.7699    0.0000 H   0  0  0  0  0  0  0  0  0  0  0  0
    1.4631    0.9229    0.0000 H   0  0  0  0  0  0  0  0  0  0  0  0
    2.3100    0.6960    0.0000 H   0  0  0  0  0  0  0  0  0  0  0  0
   12.1304    1.4558    0.0000 H   0  0  0  0  0  0  0  0  0  0  0  0
   10.7181    3.8804    0.0000 H   0  0  0  0  0  0  0  0  0  0  0  0
   12.9907    2.9592    0.0000 H   0  0  0  0  0  0  0  0  0  0  0  0
  1  9  1  0  0  0  0
  1 17  1  0  0  0  0
  2 10  1  0  0  0  0
  2 38  1  0  0  0  0
  3 11  1  0  0  0  0
  3 39  1  0  0  0  0
  4 14  2  0  0  0  0
  5 30  1  0  0  0  0
  5 56  1  0  0  0  0
  6  9  1  0  0  0  0
  6 10  2  0  0  0  0
  6 12  1  0  0  0  0
  7 10  1  0  0  0  0
  7 11  2  0  0  0  0
  7 13  1  0  0  0  0
  8  9  2  0  0  0  0
  8 11  1  0  0  0  0
  8 14  1  0  0  0  0
 12 16  1  0  0  0  0
 12 31  1  0  0  0  0
 12 32  1  0  0  0  0
 13 18  1  0  0  0  0
 13 33  1  0  0  0  0
 13 34  1  0  0  0  0
 14 15  1  0  0  0  0
 15 17  2  0  0  0  0
 15 19  1  0  0  0  0
 16 20  2  0  0  0  0
 16 35  1  0  0  0  0
 17 36  1  0  0  0  0
 18 21  2  0  0  0  0
 18 37  1  0  0  0  0
 19 22  2  0  0  0  0
 19 23  1  0  0  0  0
 20 24  1  0  0  0  0
 20 25  1  0  0  0  0
 21 26  1  0  0  0  0
 21 27  1  0  0  0  0
 22 28  1  0  0  0  0
 22 40  1  0  0  0  0
 23 29  2  0  0  0  0
 23 41  1  0  0  0  0
 24 42  1  0  0  0  0
 24 43  1  0  0  0  0
 24 44  1  0  0  0  0
 25 45  1  0  0  0  0
 25 46  1  0  0  0  0
 25 47  1  0  0  0  0
 26 51  1  0  0  0  0
 26 52  1  0  0  0  0
 26 53  1  0  0  0  0
 27 48  1  0  0  0  0
 27 49  1  0  0  0  0
 27 50  1  0  0  0  0
 28 30  2  0  0  0  0
 28 54  1  0  0  0  0
 29 30  1  0  0  0  0
 29 55  1  0  0  0  0
M  END
>  <PUBCHEM_COMPOUND_CID>
480783

>  <PUBCHEM_COMPOUND_CANONICALIZED>
1

>  <PUBCHEM_CACTVS_COMPLEXITY>
705

>  <PUBCHEM_CACTVS_HBOND_ACCEPTOR>
5

>  <PUBCHEM_CACTVS_HBOND_DONOR>
3

>  <PUBCHEM_CACTVS_ROTATABLE_BOND>
5

>  <PUBCHEM_CACTVS_SUBSKEYS>
AAADceB4OAAAAAAAAAAAAAAAAAAAAAAAAAAwYIAAAAAAAACBQAAAGgAACAAADASgmAIyBoAABgCIAqBSAAACCAAkIAAIiAEGCMgMJzaGNRqAcWAl4BUIuYeI7PzOIAACCAAIAABAAAQQABAAAAAAAAAAAA==

>  <PUBCHEM_IUPAC_OPENEYE_NAME>
5,7-dihydroxy-3-(4-hydroxyphenyl)-6,8-bis(3-methylbut-2-enyl)chromen-4-one

>  <PUBCHEM_IUPAC_CAS_NAME>
5,7-dihydroxy-3-(4-hydroxyphenyl)-6,8-bis(3-methylbut-2-enyl)-1-benzopyran-4-one

>  <PUBCHEM_IUPAC_NAME>
5,7-dihydroxy-3-(4-hydroxyphenyl)-6,8-bis(3-methylbut-2-enyl)chromen-4-one

>  <PUBCHEM_IUPAC_SYSTEMATIC_NAME>
3-(4-hydroxyphenyl)-6,8-bis(3-methylbut-2-enyl)-5,7-bis(oxidanyl)chromen-4-one

>  <PUBCHEM_IUPAC_TRADITIONAL_NAME>
5,7-dihydroxy-3-(4-hydroxyphenyl)-6,8-bis(3-methylbut-2-enyl)chromone

>  <PUBCHEM_IUPAC_INCHI>
InChI=1S/C25H26O5/c1-14(2)5-11-18-22(27)19(12-6-15(3)4)25-21(23(18)28)24(29)20(13-30-25)16-7-9-17(26)10-8-16/h5-10,13,26-28H,11-12H2,1-4H3

>  <PUBCHEM_IUPAC_INCHIKEY>
UCHYSPNEUSDFQR-UHFFFAOYSA-N

>  <PUBCHEM_XLOGP3_AA>
6.5

>  <PUBCHEM_EXACT_MASS>
406.178

>  <PUBCHEM_MOLECULAR_FORMULA>
C25H26O5

>  <PUBCHEM_MOLECULAR_WEIGHT>
406.478

>  <PUBCHEM_OPENEYE_CAN_SMILES>
CC(=CCC1=C(C2=C(C(=C1O)CC=C(C)C)OC=C(C2=O)C3=CC=C(C=C3)O)O)C

>  <PUBCHEM_OPENEYE_ISO_SMILES>
CC(=CCC1=C(C2=C(C(=C1O)CC=C(C)C)OC=C(C2=O)C3=CC=C(C=C3)O)O)C

>  <PUBCHEM_CACTVS_TPSA>
87

>  <PUBCHEM_MONOISOTOPIC_WEIGHT>
406.178

>  <PUBCHEM_TOTAL_CHARGE>
0

>  <PUBCHEM_HEAVY_ATOM_COUNT>
30

>  <PUBCHEM_ATOM_DEF_STEREO_COUNT>
0

>  <PUBCHEM_ATOM_UDEF_STEREO_COUNT>
0

>  <PUBCHEM_BOND_DEF_STEREO_COUNT>
0

>  <PUBCHEM_BOND_UDEF_STEREO_COUNT>
0

>  <PUBCHEM_ISOTOPIC_ATOM_COUNT>
0

>  <PUBCHEM_COMPONENT_COUNT>
1

>  <PUBCHEM_CACTVS_TAUTO_COUNT>
24

>  <PUBCHEM_COORDINATE_TYPE>
1
5
255

>  <PUBCHEM_BONDANNOTATIONS>
1  17  8
1  9  8
14  15  8
15  17  8
19  22  8
19  23  8
22  28  8
23  29  8
28  30  8
29  30  8
6  10  8
6  9  8
7  10  8
7  11  8
8  11  8
8  14  8
8  9  8

$$$$
