480828
 OpenBabel06101807152D

 61 63  0  0  0  0  0  0  0  0999 V2000
    8.0901   -0.1897    0.0000 O   0  0  0  0  0  0  0  0  0  0  0  0
    4.5981   -0.1550    0.0000 O   0  0  0  0  0  0  0  0  0  0  0  0
    6.3301    2.8450    0.0000 O   0  0  0  0  0  0  0  0  0  0  0  0
    9.8602    1.8692    0.0000 O   0  0  0  0  0  0  0  0  0  0  0  0
    8.0785    2.8796    0.0000 O   0  0  0  0  0  0  0  0  0  0  0  0
   10.7166   -2.6825    0.0000 O   0  0  0  0  0  0  0  0  0  0  0  0
   12.4525   -1.6892    0.0000 O   0  0  0  0  0  0  0  0  0  0  0  0
    6.3301   -0.1550    0.0000 C   0  0  0  0  0  0  0  0  0  0  0  0
    7.1962    0.3450    0.0000 C   0  0  0  0  0  0  0  0  0  0  0  0
    7.1962    1.3450    0.0000 C   0  0  0  0  0  0  0  0  0  0  0  0
    5.4641    1.3450    0.0000 C   0  0  0  0  0  0  0  0  0  0  0  0
    5.4641    0.3450    0.0000 C   0  0  0  0  0  0  0  0  0  0  0  0
    6.3301    1.8450    0.0000 C   0  0  0  0  0  0  0  0  0  0  0  0
    6.3301   -1.1550    0.0000 C   0  0  0  0  0  0  0  0  0  0  0  0
    4.5981    1.8450    0.0000 C   0  0  0  0  0  0  0  0  0  0  0  0
    8.0901    1.8797    0.0000 C   0  0  0  0  0  0  0  0  0  0  0  0
    8.9962    0.3242    0.0000 C   0  0  0  0  0  0  0  0  0  0  0  0
    8.9962    1.3658    0.0000 C   0  0  0  0  0  0  0  0  0  0  0  0
    5.4641   -1.6550    0.0000 C   0  0  0  0  0  0  0  0  0  0  0  0
    3.7320    1.3450    0.0000 C   0  0  0  0  0  0  0  0  0  0  0  0
    9.8602   -0.1792    0.0000 C   0  0  0  0  0  0  0  0  0  0  0  0
    5.4641   -2.6550    0.0000 C   0  0  0  0  0  0  0  0  0  0  0  0
    2.8660    1.8450    0.0000 C   0  0  0  0  0  0  0  0  0  0  0  0
    9.8564   -1.1791    0.0000 C   0  0  0  0  0  0  0  0  0  0  0  0
   10.7282    0.3175    0.0000 C   0  0  0  0  0  0  0  0  0  0  0  0
    4.5981   -3.1550    0.0000 C   0  0  0  0  0  0  0  0  0  0  0  0
    6.3301   -3.1550    0.0000 C   0  0  0  0  0  0  0  0  0  0  0  0
   10.7205   -1.6825    0.0000 C   0  0  0  0  0  0  0  0  0  0  0  0
    2.0000    1.3450    0.0000 C   0  0  0  0  0  0  0  0  0  0  0  0
    2.8660    2.8450    0.0000 C   0  0  0  0  0  0  0  0  0  0  0  0
   11.5923   -0.1858    0.0000 C   0  0  0  0  0  0  0  0  0  0  0  0
   11.5884   -1.1858    0.0000 C   0  0  0  0  0  0  0  0  0  0  0  0
    9.8564    2.8691    0.0000 C   0  0  0  0  0  0  0  0  0  0  0  0
    6.5422   -1.7376    0.0000 H   0  0  0  0  0  0  0  0  0  0  0  0
    6.9407   -1.0473    0.0000 H   0  0  0  0  0  0  0  0  0  0  0  0
    4.9966    2.3200    0.0000 H   0  0  0  0  0  0  0  0  0  0  0  0
    4.1996    2.3200    0.0000 H   0  0  0  0  0  0  0  0  0  0  0  0
    4.9272   -1.3450    0.0000 H   0  0  0  0  0  0  0  0  0  0  0  0
    3.7320    0.7250    0.0000 H   0  0  0  0  0  0  0  0  0  0  0  0
    4.0611    0.1550    0.0000 H   0  0  0  0  0  0  0  0  0  0  0  0
    5.7932    3.1550    0.0000 H   0  0  0  0  0  0  0  0  0  0  0  0
    9.3183   -1.4871    0.0000 H   0  0  0  0  0  0  0  0  0  0  0  0
   10.7306    0.9375    0.0000 H   0  0  0  0  0  0  0  0  0  0  0  0
    4.2881   -2.6181    0.0000 H   0  0  0  0  0  0  0  0  0  0  0  0
    4.0611   -3.4650    0.0000 H   0  0  0  0  0  0  0  0  0  0  0  0
    4.9081   -3.6919    0.0000 H   0  0  0  0  0  0  0  0  0  0  0  0
    6.0201   -3.6919    0.0000 H   0  0  0  0  0  0  0  0  0  0  0  0
    6.8671   -3.4650    0.0000 H   0  0  0  0  0  0  0  0  0  0  0  0
    6.6401   -2.6181    0.0000 H   0  0  0  0  0  0  0  0  0  0  0  0
    3.4860    2.8450    0.0000 H   0  0  0  0  0  0  0  0  0  0  0  0
    2.8660    3.4650    0.0000 H   0  0  0  0  0  0  0  0  0  0  0  0
    2.2460    2.8450    0.0000 H   0  0  0  0  0  0  0  0  0  0  0  0
    1.6900    1.8819    0.0000 H   0  0  0  0  0  0  0  0  0  0  0  0
    1.4631    1.0350    0.0000 H   0  0  0  0  0  0  0  0  0  0  0  0
    2.3100    0.8081    0.0000 H   0  0  0  0  0  0  0  0  0  0  0  0
   12.1304    0.1221    0.0000 H   0  0  0  0  0  0  0  0  0  0  0  0
   10.4764    2.8715    0.0000 H   0  0  0  0  0  0  0  0  0  0  0  0
    9.8540    3.4891    0.0000 H   0  0  0  0  0  0  0  0  0  0  0  0
    9.2364    2.8668    0.0000 H   0  0  0  0  0  0  0  0  0  0  0  0
   11.2524   -2.9945    0.0000 H   0  0  0  0  0  0  0  0  0  0  0  0
   12.9907   -1.3812    0.0000 H   0  0  0  0  0  0  0  0  0  0  0  0
  1  9  1  0  0  0  0
  1 17  1  0  0  0  0
  2 12  1  0  0  0  0
  2 40  1  0  0  0  0
  3 13  1  0  0  0  0
  3 41  1  0  0  0  0
  4 18  1  0  0  0  0
  4 33  1  0  0  0  0
  5 16  2  0  0  0  0
  6 28  1  0  0  0  0
  6 60  1  0  0  0  0
  7 32  1  0  0  0  0
  7 61  1  0  0  0  0
  8  9  1  0  0  0  0
  8 12  2  0  0  0  0
  8 14  1  0  0  0  0
  9 10  2  0  0  0  0
 10 13  1  0  0  0  0
 10 16  1  0  0  0  0
 11 12  1  0  0  0  0
 11 13  2  0  0  0  0
 11 15  1  0  0  0  0
 14 19  1  0  0  0  0
 14 34  1  0  0  0  0
 14 35  1  0  0  0  0
 15 20  1  0  0  0  0
 15 36  1  0  0  0  0
 15 37  1  0  0  0  0
 16 18  1  0  0  0  0
 17 18  2  0  0  0  0
 17 21  1  0  0  0  0
 19 22  2  0  0  0  0
 19 38  1  0  0  0  0
 20 23  2  0  0  0  0
 20 39  1  0  0  0  0
 21 24  2  0  0  0  0
 21 25  1  0  0  0  0
 22 26  1  0  0  0  0
 22 27  1  0  0  0  0
 23 29  1  0  0  0  0
 23 30  1  0  0  0  0
 24 28  1  0  0  0  0
 24 42  1  0  0  0  0
 25 31  2  0  0  0  0
 25 43  1  0  0  0  0
 26 44  1  0  0  0  0
 26 45  1  0  0  0  0
 26 46  1  0  0  0  0
 27 47  1  0  0  0  0
 27 48  1  0  0  0  0
 27 49  1  0  0  0  0
 28 32  2  0  0  0  0
 29 53  1  0  0  0  0
 29 54  1  0  0  0  0
 29 55  1  0  0  0  0
 30 50  1  0  0  0  0
 30 51  1  0  0  0  0
 30 52  1  0  0  0  0
 31 32  1  0  0  0  0
 31 56  1  0  0  0  0
 33 57  1  0  0  0  0
 33 58  1  0  0  0  0
 33 59  1  0  0  0  0
M  END
>  <PUBCHEM_COMPOUND_CID>
480828

>  <PUBCHEM_COMPOUND_CANONICALIZED>
1

>  <PUBCHEM_CACTVS_COMPLEXITY>
806

>  <PUBCHEM_CACTVS_HBOND_ACCEPTOR>
7

>  <PUBCHEM_CACTVS_HBOND_DONOR>
4

>  <PUBCHEM_CACTVS_ROTATABLE_BOND>
6

>  <PUBCHEM_CACTVS_SUBSKEYS>
AAADceB4OAAAAAAAAAAAAAAAAAAAAAAAAAAwYIAAAAAAAACBQAAAGgAACAAADASAmAIyBoAABgCIAqBSAAICCAAkIAAIiAFGiMgNJzaGNR6CeWGl4BUJuQfI7PzOIAADCAAIQABAAAYQABCAAAAAAAAAAA==

>  <PUBCHEM_IUPAC_OPENEYE_NAME>
2-(3,4-dihydroxyphenyl)-5,7-dihydroxy-3-methoxy-6,8-bis(3-methylbut-2-enyl)chromen-4-one

>  <PUBCHEM_IUPAC_CAS_NAME>
2-(3,4-dihydroxyphenyl)-5,7-dihydroxy-3-methoxy-6,8-bis(3-methylbut-2-enyl)-1-benzopyran-4-one

>  <PUBCHEM_IUPAC_NAME>
2-(3,4-dihydroxyphenyl)-5,7-dihydroxy-3-methoxy-6,8-bis(3-methylbut-2-enyl)chromen-4-one

>  <PUBCHEM_IUPAC_SYSTEMATIC_NAME>
2-[3,4-bis(oxidanyl)phenyl]-3-methoxy-6,8-bis(3-methylbut-2-enyl)-5,7-bis(oxidanyl)chromen-4-one

>  <PUBCHEM_IUPAC_TRADITIONAL_NAME>
2-(3,4-dihydroxyphenyl)-5,7-dihydroxy-3-methoxy-6,8-bis(3-methylbut-2-enyl)chromone

>  <PUBCHEM_IUPAC_INCHI>
InChI=1S/C26H28O7/c1-13(2)6-9-16-21(29)17(10-7-14(3)4)25-20(22(16)30)23(31)26(32-5)24(33-25)15-8-11-18(27)19(28)12-15/h6-8,11-12,27-30H,9-10H2,1-5H3

>  <PUBCHEM_IUPAC_INCHIKEY>
WKVKAWWZXXTJEH-UHFFFAOYSA-N

>  <PUBCHEM_XLOGP3_AA>
6.3

>  <PUBCHEM_EXACT_MASS>
452.184

>  <PUBCHEM_MOLECULAR_FORMULA>
C26H28O7

>  <PUBCHEM_MOLECULAR_WEIGHT>
452.503

>  <PUBCHEM_OPENEYE_CAN_SMILES>
CC(=CCC1=C(C2=C(C(=C1O)CC=C(C)C)OC(=C(C2=O)OC)C3=CC(=C(C=C3)O)O)O)C

>  <PUBCHEM_OPENEYE_ISO_SMILES>
CC(=CCC1=C(C2=C(C(=C1O)CC=C(C)C)OC(=C(C2=O)OC)C3=CC(=C(C=C3)O)O)O)C

>  <PUBCHEM_CACTVS_TPSA>
116

>  <PUBCHEM_MONOISOTOPIC_WEIGHT>
452.184

>  <PUBCHEM_TOTAL_CHARGE>
0

>  <PUBCHEM_HEAVY_ATOM_COUNT>
33

>  <PUBCHEM_ATOM_DEF_STEREO_COUNT>
0

>  <PUBCHEM_ATOM_UDEF_STEREO_COUNT>
0

>  <PUBCHEM_BOND_DEF_STEREO_COUNT>
0

>  <PUBCHEM_BOND_UDEF_STEREO_COUNT>
0

>  <PUBCHEM_ISOTOPIC_ATOM_COUNT>
0

>  <PUBCHEM_COMPONENT_COUNT>
1

>  <PUBCHEM_CACTVS_TAUTO_COUNT>
162

>  <PUBCHEM_COORDINATE_TYPE>
1
5
255

>  <PUBCHEM_BONDANNOTATIONS>
1  17  8
1  9  8
10  13  8
10  16  8
11  12  8
11  13  8
16  18  8
17  18  8
21  24  8
21  25  8
24  28  8
25  31  8
28  32  8
31  32  8
8  12  8
8  9  8
9  10  8

$$$$
