480818
 OpenBabel06101807152D

 56 58  0  0  0  0  0  0  0  0999 V2000
    6.3817    2.1212    0.0000 O   0  0  0  0  0  0  0  0  0  0  0  0
    4.6000   -0.9376    0.0000 O   0  0  0  0  0  0  0  0  0  0  0  0
    9.0082    3.6558    0.0000 O   0  0  0  0  0  0  0  0  0  0  0  0
   10.7821    2.6317    0.0000 O   0  0  0  0  0  0  0  0  0  0  0  0
    7.2641   -0.4134    0.0000 C   0  0  0  0  0  0  0  0  0  0  0  0
    8.1301   -0.9134    0.0000 C   0  0  0  0  0  0  0  0  0  0  0  0
    7.2641    0.5866    0.0000 C   0  0  0  0  0  0  0  0  0  0  0  0
    8.9961   -0.4134    0.0000 C   0  0  0  0  0  0  0  0  0  0  0  0
    8.1301    1.0866    0.0000 C   0  0  0  0  0  0  0  0  0  0  0  0
    8.9961    0.5866    0.0000 C   0  0  0  0  0  0  0  0  0  0  0  0
    6.3701   -0.9481    0.0000 C   0  0  0  0  0  0  0  0  0  0  0  0
    6.3701    1.1212    0.0000 C   0  0  0  0  0  0  0  0  0  0  0  0
    5.4641    0.6074    0.0000 C   0  0  0  0  0  0  0  0  0  0  0  0
    5.4641   -0.4342    0.0000 C   0  0  0  0  0  0  0  0  0  0  0  0
    6.3817   -1.9480    0.0000 C   0  0  0  0  0  0  0  0  0  0  0  0
    8.1140    2.1281    0.0000 C   0  0  0  0  0  0  0  0  0  0  0  0
    9.9061    1.0934    0.0000 C   0  0  0  0  0  0  0  0  0  0  0  0
    4.6000    1.1107    0.0000 C   0  0  0  0  0  0  0  0  0  0  0  0
    9.0121    2.6558    0.0000 C   0  0  0  0  0  0  0  0  0  0  0  0
    9.9142    2.1350    0.0000 C   0  0  0  0  0  0  0  0  0  0  0  0
    5.5215   -2.4580    0.0000 C   0  0  0  0  0  0  0  0  0  0  0  0
    3.7320    0.6141    0.0000 C   0  0  0  0  0  0  0  0  0  0  0  0
    5.5331   -3.4579    0.0000 C   0  0  0  0  0  0  0  0  0  0  0  0
    2.8680    1.1174    0.0000 C   0  0  0  0  0  0  0  0  0  0  0  0
    4.6729   -3.9679    0.0000 C   0  0  0  0  0  0  0  0  0  0  0  0
    6.4048   -3.9479    0.0000 C   0  0  0  0  0  0  0  0  0  0  0  0
    2.0000    0.6208    0.0000 C   0  0  0  0  0  0  0  0  0  0  0  0
    2.8718    2.1174    0.0000 C   0  0  0  0  0  0  0  0  0  0  0  0
    7.7316   -1.3884    0.0000 H   0  0  0  0  0  0  0  0  0  0  0  0
    8.5286   -1.3884    0.0000 H   0  0  0  0  0  0  0  0  0  0  0  0
    9.2082   -0.9960    0.0000 H   0  0  0  0  0  0  0  0  0  0  0  0
    9.6067   -0.3058    0.0000 H   0  0  0  0  0  0  0  0  0  0  0  0
    6.6005   -2.5281    0.0000 H   0  0  0  0  0  0  0  0  0  0  0  0
    6.9910   -1.8333    0.0000 H   0  0  0  0  0  0  0  0  0  0  0  0
    7.5736    2.4319    0.0000 H   0  0  0  0  0  0  0  0  0  0  0  0
   10.4395    0.7772    0.0000 H   0  0  0  0  0  0  0  0  0  0  0  0
    5.0003    1.5841    0.0000 H   0  0  0  0  0  0  0  0  0  0  0  0
    4.2033    1.5872    0.0000 H   0  0  0  0  0  0  0  0  0  0  0  0
    4.9810   -2.1542    0.0000 H   0  0  0  0  0  0  0  0  0  0  0  0
    3.7296   -0.0059    0.0000 H   0  0  0  0  0  0  0  0  0  0  0  0
    5.8484    2.4374    0.0000 H   0  0  0  0  0  0  0  0  0  0  0  0
    4.6024   -1.5576    0.0000 H   0  0  0  0  0  0  0  0  0  0  0  0
    9.5440    3.9679    0.0000 H   0  0  0  0  0  0  0  0  0  0  0  0
   11.3179    2.3196    0.0000 H   0  0  0  0  0  0  0  0  0  0  0  0
    6.1011   -4.4884    0.0000 H   0  0  0  0  0  0  0  0  0  0  0  0
    6.9453   -4.2516    0.0000 H   0  0  0  0  0  0  0  0  0  0  0  0
    4.3567   -3.4346    0.0000 H   0  0  0  0  0  0  0  0  0  0  0  0
    4.1396   -4.2841    0.0000 H   0  0  0  0  0  0  0  0  0  0  0  0
    4.9891   -4.5012    0.0000 H   0  0  0  0  0  0  0  0  0  0  0  0
    6.7086   -3.4074    0.0000 H   0  0  0  0  0  0  0  0  0  0  0  0
    1.6921    1.1589    0.0000 H   0  0  0  0  0  0  0  0  0  0  0  0
    1.4619    0.3128    0.0000 H   0  0  0  0  0  0  0  0  0  0  0  0
    2.3079    0.0826    0.0000 H   0  0  0  0  0  0  0  0  0  0  0  0
    3.4918    2.1150    0.0000 H   0  0  0  0  0  0  0  0  0  0  0  0
    2.8742    2.7374    0.0000 H   0  0  0  0  0  0  0  0  0  0  0  0
    2.2518    2.1198    0.0000 H   0  0  0  0  0  0  0  0  0  0  0  0
  1 12  1  0  0  0  0
  1 41  1  0  0  0  0
  2 14  1  0  0  0  0
  2 42  1  0  0  0  0
  3 19  1  0  0  0  0
  3 43  1  0  0  0  0
  4 20  1  0  0  0  0
  4 44  1  0  0  0  0
  5  6  1  0  0  0  0
  5  7  1  0  0  0  0
  5 11  2  0  0  0  0
  6  8  1  0  0  0  0
  6 29  1  0  0  0  0
  6 30  1  0  0  0  0
  7  9  1  0  0  0  0
  7 12  2  0  0  0  0
  8 10  1  0  0  0  0
  8 31  1  0  0  0  0
  8 32  1  0  0  0  0
  9 10  1  0  0  0  0
  9 16  2  0  0  0  0
 10 17  2  0  0  0  0
 11 14  1  0  0  0  0
 11 15  1  0  0  0  0
 12 13  1  0  0  0  0
 13 14  2  0  0  0  0
 13 18  1  0  0  0  0
 15 21  1  0  0  0  0
 15 33  1  0  0  0  0
 15 34  1  0  0  0  0
 16 19  1  0  0  0  0
 16 35  1  0  0  0  0
 17 20  1  0  0  0  0
 17 36  1  0  0  0  0
 18 22  1  0  0  0  0
 18 37  1  0  0  0  0
 18 38  1  0  0  0  0
 19 20  2  0  0  0  0
 21 23  2  0  0  0  0
 21 39  1  0  0  0  0
 22 24  2  0  0  0  0
 22 40  1  0  0  0  0
 23 25  1  0  0  0  0
 23 26  1  0  0  0  0
 24 27  1  0  0  0  0
 24 28  1  0  0  0  0
 25 47  1  0  0  0  0
 25 48  1  0  0  0  0
 25 49  1  0  0  0  0
 26 45  1  0  0  0  0
 26 46  1  0  0  0  0
 26 50  1  0  0  0  0
 27 51  1  0  0  0  0
 27 52  1  0  0  0  0
 27 53  1  0  0  0  0
 28 54  1  0  0  0  0
 28 55  1  0  0  0  0
 28 56  1  0  0  0  0
M  END
>  <PUBCHEM_COMPOUND_CID>
480818

>  <PUBCHEM_COMPOUND_CANONICALIZED>
1

>  <PUBCHEM_CACTVS_COMPLEXITY>
589

>  <PUBCHEM_CACTVS_HBOND_ACCEPTOR>
4

>  <PUBCHEM_CACTVS_HBOND_DONOR>
4

>  <PUBCHEM_CACTVS_ROTATABLE_BOND>
4

>  <PUBCHEM_CACTVS_SUBSKEYS>
AAADceB4OAAAAAAAAAAAAAAAAAAAAAAAAAAwYMAAAAAAAADBQAAAGgAACAAADASAmAAyBoAAAgCAAiBCAAACAAAgIAAAiAAGiIgJJyKCERKAcAElwBUJmAeA4PQO4AADCAAYQADAAAYQADCAAAAAAAAAAA==

>  <PUBCHEM_IUPAC_OPENEYE_NAME>
6,8-bis(3-methylbut-2-enyl)-9,10-dihydrophenanthrene-2,3,5,7-tetrol

>  <PUBCHEM_IUPAC_CAS_NAME>
6,8-bis(3-methylbut-2-enyl)-9,10-dihydrophenanthrene-2,3,5,7-tetrol

>  <PUBCHEM_IUPAC_NAME>
6,8-bis(3-methylbut-2-enyl)-9,10-dihydrophenanthrene-2,3,5,7-tetrol

>  <PUBCHEM_IUPAC_SYSTEMATIC_NAME>
6,8-bis(3-methylbut-2-enyl)-9,10-dihydrophenanthrene-2,3,5,7-tetrol

>  <PUBCHEM_IUPAC_TRADITIONAL_NAME>
6,8-bis(3-methylbut-2-enyl)-9,10-dihydrophenanthrene-2,3,5,7-tetrol

>  <PUBCHEM_IUPAC_INCHI>
InChI=1S/C24H28O4/c1-13(2)5-8-17-16-10-7-15-11-20(25)21(26)12-19(15)22(16)24(28)18(23(17)27)9-6-14(3)4/h5-6,11-12,25-28H,7-10H2,1-4H3

>  <PUBCHEM_IUPAC_INCHIKEY>
YJJXCOSDPIJFJR-UHFFFAOYSA-N

>  <PUBCHEM_XLOGP3_AA>
6.3

>  <PUBCHEM_EXACT_MASS>
380.199

>  <PUBCHEM_MOLECULAR_FORMULA>
C24H28O4

>  <PUBCHEM_MOLECULAR_WEIGHT>
380.484

>  <PUBCHEM_OPENEYE_CAN_SMILES>
CC(=CCC1=C(C(=C(C2=C1CCC3=CC(=C(C=C32)O)O)O)CC=C(C)C)O)C

>  <PUBCHEM_OPENEYE_ISO_SMILES>
CC(=CCC1=C(C(=C(C2=C1CCC3=CC(=C(C=C32)O)O)O)CC=C(C)C)O)C

>  <PUBCHEM_CACTVS_TPSA>
80.9

>  <PUBCHEM_MONOISOTOPIC_WEIGHT>
380.199

>  <PUBCHEM_TOTAL_CHARGE>
0

>  <PUBCHEM_HEAVY_ATOM_COUNT>
28

>  <PUBCHEM_ATOM_DEF_STEREO_COUNT>
0

>  <PUBCHEM_ATOM_UDEF_STEREO_COUNT>
0

>  <PUBCHEM_BOND_DEF_STEREO_COUNT>
0

>  <PUBCHEM_BOND_UDEF_STEREO_COUNT>
0

>  <PUBCHEM_ISOTOPIC_ATOM_COUNT>
0

>  <PUBCHEM_COMPONENT_COUNT>
1

>  <PUBCHEM_CACTVS_TAUTO_COUNT>
727

>  <PUBCHEM_COORDINATE_TYPE>
1
5
255

>  <PUBCHEM_BONDANNOTATIONS>
10  17  8
11  14  8
12  13  8
13  14  8
16  19  8
17  20  8
19  20  8
5  11  8
5  7  8
7  12  8
9  10  8
9  16  8

$$$$
