483522
 OpenBabel06101807152D

 29 32  0  0  0  0  0  0  0  0999 V2000
    2.8583   -0.3844    0.0000 O   0  0  0  0  0  0  0  0  0  0  0  0
    7.9663   -0.1519    0.0000 O   0  0  0  0  0  0  0  0  0  0  0  0
    6.2062   -0.3401    0.0000 N   0  0  0  0  0  0  0  0  0  0  0  0
    4.5864   -2.4110    0.0000 N   0  0  0  0  0  0  0  0  0  0  0  0
    5.3972   -0.9279    0.0000 C   0  0  0  0  0  0  0  0  0  0  0  0
    4.5881   -0.3401    0.0000 C   0  0  0  0  0  0  0  0  0  0  0  0
    4.8972    0.6110    0.0000 C   0  0  0  0  0  0  0  0  0  0  0  0
    5.8972    0.6110    0.0000 C   0  0  0  0  0  0  0  0  0  0  0  0
    5.4900   -1.9653    0.0000 C   0  0  0  0  0  0  0  0  0  0  0  0
    3.7318   -0.8710    0.0000 C   0  0  0  0  0  0  0  0  0  0  0  0
    7.1642   -0.7490    0.0000 C   0  0  0  0  0  0  0  0  0  0  0  0
    4.3625    1.5049    0.0000 C   0  0  0  0  0  0  0  0  0  0  0  0
    6.4318    1.5049    0.0000 C   0  0  0  0  0  0  0  0  0  0  0  0
    6.4383   -2.3963    0.0000 C   0  0  0  0  0  0  0  0  0  0  0  0
    7.2810   -1.7841    0.0000 C   0  0  0  0  0  0  0  0  0  0  0  0
    3.7310   -1.8786    0.0000 C   0  0  0  0  0  0  0  0  0  0  0  0
    4.8763    2.4110    0.0000 C   0  0  0  0  0  0  0  0  0  0  0  0
    5.9180    2.4110    0.0000 C   0  0  0  0  0  0  0  0  0  0  0  0
    2.0000   -0.8976    0.0000 C   0  0  0  0  0  0  0  0  0  0  0  0
    3.7425    1.4978    0.0000 H   0  0  0  0  0  0  0  0  0  0  0  0
    7.0518    1.4978    0.0000 H   0  0  0  0  0  0  0  0  0  0  0  0
    6.5008   -3.0132    0.0000 H   0  0  0  0  0  0  0  0  0  0  0  0
    7.8484   -2.0341    0.0000 H   0  0  0  0  0  0  0  0  0  0  0  0
    3.1889   -2.1794    0.0000 H   0  0  0  0  0  0  0  0  0  0  0  0
    4.5643    2.9467    0.0000 H   0  0  0  0  0  0  0  0  0  0  0  0
    6.2300    2.9467    0.0000 H   0  0  0  0  0  0  0  0  0  0  0  0
    1.6818   -0.3654    0.0000 H   0  0  0  0  0  0  0  0  0  0  0  0
    1.4679   -1.2158    0.0000 H   0  0  0  0  0  0  0  0  0  0  0  0
    2.3182   -1.4297    0.0000 H   0  0  0  0  0  0  0  0  0  0  0  0
  1 10  1  0  0  0  0
  1 19  1  0  0  0  0
  2 11  2  0  0  0  0
  3  5  1  0  0  0  0
  3  8  1  0  0  0  0
  3 11  1  0  0  0  0
  4  9  2  0  0  0  0
  4 16  1  0  0  0  0
  5  6  2  0  0  0  0
  5  9  1  0  0  0  0
  6  7  1  0  0  0  0
  6 10  1  0  0  0  0
  7  8  1  0  0  0  0
  7 12  2  0  0  0  0
  8 13  2  0  0  0  0
  9 14  1  0  0  0  0
 10 16  2  0  0  0  0
 11 15  1  0  0  0  0
 12 17  1  0  0  0  0
 12 20  1  0  0  0  0
 13 18  1  0  0  0  0
 13 21  1  0  0  0  0
 14 15  2  0  0  0  0
 14 22  1  0  0  0  0
 15 23  1  0  0  0  0
 16 24  1  0  0  0  0
 17 18  2  0  0  0  0
 17 25  1  0  0  0  0
 18 26  1  0  0  0  0
 19 27  1  0  0  0  0
 19 28  1  0  0  0  0
 19 29  1  0  0  0  0
M  END
>  <PUBCHEM_COMPOUND_CID>
483522

>  <PUBCHEM_COMPOUND_CANONICALIZED>
1

>  <PUBCHEM_CACTVS_COMPLEXITY>
422

>  <PUBCHEM_CACTVS_HBOND_ACCEPTOR>
3

>  <PUBCHEM_CACTVS_HBOND_DONOR>
0

>  <PUBCHEM_CACTVS_ROTATABLE_BOND>
1

>  <PUBCHEM_CACTVS_SUBSKEYS>
AAADccBzMAAAAAAAAAAAAAAAAAAAAWAAAAA8QIAAAAAAAFiB/gAAHgAAAAAADAzBngY+xvMMFACoAzV3VASCiCQxciAI2CA/fNgOZuLEsZuVMChmxBnY6YewwOAOgAAAAAACAAAAAAAAAAQAAAAAAAAAAA==

>  <PUBCHEM_IUPAC_INCHI>
InChI=1S/C15H10N2O2/c1-19-12-8-16-10-6-7-13(18)17-11-5-3-2-4-9(11)14(12)15(10)17/h2-8H,1H3

>  <PUBCHEM_IUPAC_INCHIKEY>
LEPXKGXTXIACRO-UHFFFAOYSA-N

>  <PUBCHEM_XLOGP3_AA>
2.4

>  <PUBCHEM_EXACT_MASS>
250.074

>  <PUBCHEM_MOLECULAR_FORMULA>
C15H10N2O2

>  <PUBCHEM_MOLECULAR_WEIGHT>
250.257

>  <PUBCHEM_OPENEYE_CAN_SMILES>
COC1=CN=C2C=CC(=O)N3C2=C1C4=CC=CC=C43

>  <PUBCHEM_OPENEYE_ISO_SMILES>
COC1=CN=C2C=CC(=O)N3C2=C1C4=CC=CC=C43

>  <PUBCHEM_CACTVS_TPSA>
44.1

>  <PUBCHEM_MONOISOTOPIC_WEIGHT>
250.074

>  <PUBCHEM_TOTAL_CHARGE>
0

>  <PUBCHEM_HEAVY_ATOM_COUNT>
19

>  <PUBCHEM_ATOM_DEF_STEREO_COUNT>
0

>  <PUBCHEM_ATOM_UDEF_STEREO_COUNT>
0

>  <PUBCHEM_BOND_DEF_STEREO_COUNT>
0

>  <PUBCHEM_BOND_UDEF_STEREO_COUNT>
0

>  <PUBCHEM_ISOTOPIC_ATOM_COUNT>
0

>  <PUBCHEM_COMPONENT_COUNT>
1

>  <PUBCHEM_CACTVS_TAUTO_COUNT>
1

>  <PUBCHEM_COORDINATE_TYPE>
1
5
255

>  <PUBCHEM_BONDANNOTATIONS>
10  16  8
11  15  8
12  17  8
13  18  8
14  15  8
17  18  8
3  11  8
3  5  8
3  8  8
4  16  8
4  9  8
5  6  8
5  9  8
6  10  8
6  7  8
7  12  8
7  8  8
8  13  8
9  14  8

$$$$
