493164
 OpenBabel06101807152D

 39 44  0  0  0  0  0  0  0  0999 V2000
    5.7497    2.8819    0.0000 O   0  0  0  0  0  0  0  0  0  0  0  0
    3.4519   -2.7745    0.0000 O   0  0  0  0  0  0  0  0  0  0  0  0
    2.0000   -1.9363    0.0000 O   0  0  0  0  0  0  0  0  0  0  0  0
    2.8197    1.8070    0.0000 O   0  0  0  0  0  0  0  0  0  0  0  0
    8.9621    0.1117    0.0000 O   0  0  0  0  0  0  0  0  0  0  0  0
    8.9621   -1.4977    0.0000 O   0  0  0  0  0  0  0  0  0  0  0  0
    7.1333    1.7679    0.0000 O   0  0  0  0  0  0  0  0  0  0  0  0
    5.4178    0.3070    0.0000 C   0  0  0  0  0  0  0  0  0  0  0  0
    4.5518   -0.1930    0.0000 C   0  0  0  0  0  0  0  0  0  0  0  0
    5.4178    1.3070    0.0000 C   0  0  0  0  0  0  0  0  0  0  0  0
    4.5518    1.8070    0.0000 C   0  0  0  0  0  0  0  0  0  0  0  0
    3.6857    0.3070    0.0000 C   0  0  0  0  0  0  0  0  0  0  0  0
    3.6857    1.3070    0.0000 C   0  0  0  0  0  0  0  0  0  0  0  0
    6.2838   -0.1930    0.0000 C   0  0  0  0  0  0  0  0  0  0  0  0
    4.7610    2.7788    0.0000 C   0  0  0  0  0  0  0  0  0  0  0  0
    4.5678   -1.2345    0.0000 C   0  0  0  0  0  0  0  0  0  0  0  0
    2.7757   -0.1998    0.0000 C   0  0  0  0  0  0  0  0  0  0  0  0
    3.6698   -1.7623    0.0000 C   0  0  0  0  0  0  0  0  0  0  0  0
    6.1548    1.9741    0.0000 C   0  0  0  0  0  0  0  0  0  0  0  0
    2.7677   -1.2414    0.0000 C   0  0  0  0  0  0  0  0  0  0  0  0
    7.1498    0.3070    0.0000 C   0  0  0  0  0  0  0  0  0  0  0  0
    6.2838   -1.1930    0.0000 C   0  0  0  0  0  0  0  0  0  0  0  0
    8.0159   -0.1930    0.0000 C   0  0  0  0  0  0  0  0  0  0  0  0
    8.0159   -1.1930    0.0000 C   0  0  0  0  0  0  0  0  0  0  0  0
    7.1498   -1.6930    0.0000 C   0  0  0  0  0  0  0  0  0  0  0  0
    2.4220   -2.8819    0.0000 C   0  0  0  0  0  0  0  0  0  0  0  0
    9.5457   -0.6930    0.0000 C   0  0  0  0  0  0  0  0  0  0  0  0
    4.7618    3.3988    0.0000 H   0  0  0  0  0  0  0  0  0  0  0  0
    4.1445    2.8449    0.0000 H   0  0  0  0  0  0  0  0  0  0  0  0
    5.1083   -1.5383    0.0000 H   0  0  0  0  0  0  0  0  0  0  0  0
    2.2424    0.1163    0.0000 H   0  0  0  0  0  0  0  0  0  0  0  0
    7.1498    0.9270    0.0000 H   0  0  0  0  0  0  0  0  0  0  0  0
    5.7469   -1.5030    0.0000 H   0  0  0  0  0  0  0  0  0  0  0  0
    7.1498   -2.3130    0.0000 H   0  0  0  0  0  0  0  0  0  0  0  0
    1.8324   -3.0736    0.0000 H   0  0  0  0  0  0  0  0  0  0  0  0
    2.5507   -3.4884    0.0000 H   0  0  0  0  0  0  0  0  0  0  0  0
    2.8197    2.4270    0.0000 H   0  0  0  0  0  0  0  0  0  0  0  0
   10.0066   -1.1077    0.0000 H   0  0  0  0  0  0  0  0  0  0  0  0
   10.0066   -0.2783    0.0000 H   0  0  0  0  0  0  0  0  0  0  0  0
  1 15  1  0  0  0  0
  1 19  1  0  0  0  0
  2 18  1  0  0  0  0
  2 26  1  0  0  0  0
  3 20  1  0  0  0  0
  3 26  1  0  0  0  0
  4 13  1  0  0  0  0
  4 37  1  0  0  0  0
  5 23  1  0  0  0  0
  5 27  1  0  0  0  0
  6 24  1  0  0  0  0
  6 27  1  0  0  0  0
  7 19  2  0  0  0  0
  8  9  1  0  0  0  0
  8 10  2  0  0  0  0
  8 14  1  0  0  0  0
  9 12  1  0  0  0  0
  9 16  2  0  0  0  0
 10 11  1  0  0  0  0
 10 19  1  0  0  0  0
 11 13  2  0  0  0  0
 11 15  1  0  0  0  0
 12 13  1  0  0  0  0
 12 17  2  0  0  0  0
 14 21  2  0  0  0  0
 14 22  1  0  0  0  0
 15 28  1  0  0  0  0
 15 29  1  0  0  0  0
 16 18  1  0  0  0  0
 16 30  1  0  0  0  0
 17 20  1  0  0  0  0
 17 31  1  0  0  0  0
 18 20  2  0  0  0  0
 21 23  1  0  0  0  0
 21 32  1  0  0  0  0
 22 25  2  0  0  0  0
 22 33  1  0  0  0  0
 23 24  2  0  0  0  0
 24 25  1  0  0  0  0
 25 34  1  0  0  0  0
 26 35  1  0  0  0  0
 26 36  1  0  0  0  0
 27 38  1  0  0  0  0
 27 39  1  0  0  0  0
M  END
>  <PUBCHEM_COMPOUND_CID>
493164

>  <PUBCHEM_COMPOUND_CANONICALIZED>
1

>  <PUBCHEM_CACTVS_COMPLEXITY>
611

>  <PUBCHEM_CACTVS_HBOND_ACCEPTOR>
7

>  <PUBCHEM_CACTVS_HBOND_DONOR>
1

>  <PUBCHEM_CACTVS_ROTATABLE_BOND>
1

>  <PUBCHEM_CACTVS_SUBSKEYS>
AAADccB4OAAAAAAAAAAAAAAAAAAAASJEgAAwYMAAAAAAAEjBVAAAGgAACAAADASgmAMwDsAABgCIAiDSCAACCAAkIAAIiAEGiMgdJzKGNRqicSIlwBEOuQfK6PyO4AADAAAYQADAAAYAADCAAAAAAAAAAA==

>  <PUBCHEM_IUPAC_OPENEYE_NAME>
9-(1,3-benzodioxol-5-yl)-5-hydroxy-6H-isobenzofuro[5,6-f][1,3]benzodioxol-8-one

>  <PUBCHEM_IUPAC_CAS_NAME>
9-(1,3-benzodioxol-5-yl)-5-hydroxy-6H-isobenzofuro[5,6-f][1,3]benzodioxol-8-one

>  <PUBCHEM_IUPAC_NAME>
9-(1,3-benzodioxol-5-yl)-5-hydroxy-6H-[2]benzofuro[5,6-f][1,3]benzodioxol-8-one

>  <PUBCHEM_IUPAC_SYSTEMATIC_NAME>
9-(1,3-benzodioxol-5-yl)-5-oxidanyl-6H-[2]benzofuro[5,6-f][1,3]benzodioxol-8-one

>  <PUBCHEM_IUPAC_TRADITIONAL_NAME>
9-(1,3-benzodioxol-5-yl)-5-hydroxy-6H-isobenzofuro[5,6-f][1,3]benzodioxol-8-one

>  <PUBCHEM_IUPAC_INCHI>
InChI=1S/C20H12O7/c21-19-11-5-16-15(26-8-27-16)4-10(11)17(18-12(19)6-23-20(18)22)9-1-2-13-14(3-9)25-7-24-13/h1-5,21H,6-8H2

>  <PUBCHEM_IUPAC_INCHIKEY>
YYFMUDJSHVYJGD-UHFFFAOYSA-N

>  <PUBCHEM_XLOGP3_AA>
3.5

>  <PUBCHEM_EXACT_MASS>
364.058

>  <PUBCHEM_MOLECULAR_FORMULA>
C20H12O7

>  <PUBCHEM_MOLECULAR_WEIGHT>
364.309

>  <PUBCHEM_OPENEYE_CAN_SMILES>
C1C2=C(C3=CC4=C(C=C3C(=C2C(=O)O1)C5=CC6=C(C=C5)OCO6)OCO4)O

>  <PUBCHEM_OPENEYE_ISO_SMILES>
C1C2=C(C3=CC4=C(C=C3C(=C2C(=O)O1)C5=CC6=C(C=C5)OCO6)OCO4)O

>  <PUBCHEM_CACTVS_TPSA>
83.4

>  <PUBCHEM_MONOISOTOPIC_WEIGHT>
364.058

>  <PUBCHEM_TOTAL_CHARGE>
0

>  <PUBCHEM_HEAVY_ATOM_COUNT>
27

>  <PUBCHEM_ATOM_DEF_STEREO_COUNT>
0

>  <PUBCHEM_ATOM_UDEF_STEREO_COUNT>
0

>  <PUBCHEM_BOND_DEF_STEREO_COUNT>
0

>  <PUBCHEM_BOND_UDEF_STEREO_COUNT>
0

>  <PUBCHEM_ISOTOPIC_ATOM_COUNT>
0

>  <PUBCHEM_COMPONENT_COUNT>
1

>  <PUBCHEM_CACTVS_TAUTO_COUNT>
1

>  <PUBCHEM_COORDINATE_TYPE>
1
5
255

>  <PUBCHEM_BONDANNOTATIONS>
10  11  8
11  13  8
12  13  8
12  17  8
14  21  8
14  22  8
16  18  8
17  20  8
18  20  8
21  23  8
22  25  8
23  24  8
24  25  8
8  10  8
8  9  8
9  12  8
9  16  8

$$$$
