49766653
 OpenBabel06101807152D

 52 54  0  0  1  0  0  0  0  0999 V2000
    6.3981   -1.8314    0.0000 O   0  0  0  0  0  0  0  0  0  0  0  0
    7.3022   -0.3346    0.0000 O   0  0  0  0  0  0  0  0  0  0  0  0
    3.7782    1.7000    0.0000 O   0  0  0  0  0  0  0  0  0  0  0  0
    5.5442    2.7378    0.0000 O   0  0  0  0  0  0  0  0  0  0  0  0
    3.8000   -1.3314    0.0000 C   0  0  3  0  0  0  0  0  0  0  0  0
    3.8000   -0.3314    0.0000 C   0  0  2  0  0  0  0  0  0  0  0  0
    2.9061   -1.8661    0.0000 C   0  0  0  0  0  0  0  0  0  0  0  0
    2.9061    0.2032    0.0000 C   0  0  0  0  0  0  0  0  0  0  0  0
    4.6660   -1.8314    0.0000 C   0  0  0  0  0  0  0  0  0  0  0  0
    2.0000   -1.3522    0.0000 C   0  0  0  0  0  0  0  0  0  0  0  0
    2.0000   -0.3106    0.0000 C   0  0  0  0  0  0  0  0  0  0  0  0
    4.6660    0.1686    0.0000 C   0  0  0  0  0  0  0  0  0  0  0  0
    5.5321   -1.3314    0.0000 C   0  0  2  0  0  0  0  0  0  0  0  0
    3.8000    0.6686    0.0000 C   0  0  0  0  0  0  0  0  0  0  0  0
    5.5321   -0.3314    0.0000 C   0  0  0  0  0  0  0  0  0  0  0  0
    2.4161   -2.7378    0.0000 C   0  0  0  0  0  0  0  0  0  0  0  0
    3.4160   -2.7263    0.0000 C   0  0  0  0  0  0  0  0  0  0  0  0
    4.6500    1.2101    0.0000 C   0  0  0  0  0  0  0  0  0  0  0  0
    6.4421    0.1754    0.0000 C   0  0  0  0  0  0  0  0  0  0  0  0
    6.4501    1.2170    0.0000 C   0  0  0  0  0  0  0  0  0  0  0  0
    5.5480    1.7378    0.0000 C   0  0  0  0  0  0  0  0  0  0  0  0
    7.3180    1.7137    0.0000 C   0  0  0  0  0  0  0  0  0  0  0  0
    7.3219    2.7137    0.0000 C   0  0  0  0  0  0  0  0  0  0  0  0
    8.1821    1.2104    0.0000 C   0  0  0  0  0  0  0  0  0  0  0  0
    3.8048   -1.9514    0.0000 H   0  0  0  0  0  0  0  0  0  0  0  0
    3.3107    0.6730    0.0000 H   0  0  0  0  0  0  0  0  0  0  0  0
    2.5124    0.6823    0.0000 H   0  0  0  0  0  0  0  0  0  0  0  0
    4.2675   -2.3064    0.0000 H   0  0  0  0  0  0  0  0  0  0  0  0
    5.0646   -2.3064    0.0000 H   0  0  0  0  0  0  0  0  0  0  0  0
    1.3891   -1.2461    0.0000 H   0  0  0  0  0  0  0  0  0  0  0  0
    1.7909   -1.9359    0.0000 H   0  0  0  0  0  0  0  0  0  0  0  0
    1.7909    0.2731    0.0000 H   0  0  0  0  0  0  0  0  0  0  0  0
    1.3891   -0.4167    0.0000 H   0  0  0  0  0  0  0  0  0  0  0  0
    5.5321   -1.9514    0.0000 H   0  0  0  0  0  0  0  0  0  0  0  0
    4.4200    0.6686    0.0000 H   0  0  0  0  0  0  0  0  0  0  0  0
    3.8000    1.2886    0.0000 H   0  0  0  0  0  0  0  0  0  0  0  0
    3.1800    0.6686    0.0000 H   0  0  0  0  0  0  0  0  0  0  0  0
    1.8756   -2.4341    0.0000 H   0  0  0  0  0  0  0  0  0  0  0  0
    2.1123   -3.2783    0.0000 H   0  0  0  0  0  0  0  0  0  0  0  0
    2.9566   -3.0416    0.0000 H   0  0  0  0  0  0  0  0  0  0  0  0
    2.8827   -3.0425    0.0000 H   0  0  0  0  0  0  0  0  0  0  0  0
    3.7322   -3.2596    0.0000 H   0  0  0  0  0  0  0  0  0  0  0  0
    3.9494   -2.4101    0.0000 H   0  0  0  0  0  0  0  0  0  0  0  0
    6.3981   -2.4514    0.0000 H   0  0  0  0  0  0  0  0  0  0  0  0
    7.3156    1.0937    0.0000 H   0  0  0  0  0  0  0  0  0  0  0  0
    7.8427   -0.0308    0.0000 H   0  0  0  0  0  0  0  0  0  0  0  0
    7.9419    2.7113    0.0000 H   0  0  0  0  0  0  0  0  0  0  0  0
    7.3243    3.3337    0.0000 H   0  0  0  0  0  0  0  0  0  0  0  0
    6.7019    2.7161    0.0000 H   0  0  0  0  0  0  0  0  0  0  0  0
    7.8701    0.6746    0.0000 H   0  0  0  0  0  0  0  0  0  0  0  0
    8.7179    0.8983    0.0000 H   0  0  0  0  0  0  0  0  0  0  0  0
    8.4942    1.7461    0.0000 H   0  0  0  0  0  0  0  0  0  0  0  0
  1 44  1  0  0  0  0
  2 19  1  0  0  0  0
  2 46  1  0  0  0  0
  3 18  2  0  0  0  0
  4 21  2  0  0  0  0
  5  7  1  0  0  0  0
  5  9  1  0  0  0  0
  5 25  1  0  0  0  0
  6  5  1  1  0  0  0
  6  8  1  0  0  0  0
  6 12  1  0  0  0  0
  6 14  1  0  0  0  0
  7 10  1  0  0  0  0
  7 16  1  0  0  0  0
  7 17  1  0  0  0  0
  8 11  1  0  0  0  0
  8 26  1  0  0  0  0
  8 27  1  0  0  0  0
  9 13  1  0  0  0  0
  9 28  1  0  0  0  0
  9 29  1  0  0  0  0
 10 11  1  0  0  0  0
 10 30  1  0  0  0  0
 10 31  1  0  0  0  0
 11 32  1  0  0  0  0
 11 33  1  0  0  0  0
 12 15  2  0  0  0  0
 12 18  1  0  0  0  0
 13  1  1  0  0  0  0
 13 15  1  0  0  0  0
 13 34  1  1  0  0  0
 14 35  1  0  0  0  0
 14 36  1  0  0  0  0
 14 37  1  0  0  0  0
 15 19  1  0  0  0  0
 16 38  1  0  0  0  0
 16 39  1  0  0  0  0
 16 40  1  0  0  0  0
 17 41  1  0  0  0  0
 17 42  1  0  0  0  0
 17 43  1  0  0  0  0
 18 21  1  0  0  0  0
 19 20  2  0  0  0  0
 20 21  1  0  0  0  0
 20 22  1  0  0  0  0
 22 23  1  0  0  0  0
 22 24  1  0  0  0  0
 22 45  1  0  0  0  0
 23 47  1  0  0  0  0
 23 48  1  0  0  0  0
 23 49  1  0  0  0  0
 24 50  1  0  0  0  0
 24 51  1  0  0  0  0
 24 52  1  0  0  0  0
M  END
>  <PUBCHEM_COMPOUND_CID>
49766653

>  <PUBCHEM_COMPOUND_CANONICALIZED>
1

>  <PUBCHEM_CACTVS_COMPLEXITY>
680

>  <PUBCHEM_CACTVS_HBOND_ACCEPTOR>
4

>  <PUBCHEM_CACTVS_HBOND_DONOR>
2

>  <PUBCHEM_CACTVS_ROTATABLE_BOND>
1

>  <PUBCHEM_CACTVS_SUBSKEYS>
AAADceB4OAAAAAAAAAAAAAAAAAAAAAAAAAAwQIAAAAAAAACAAAAAGgAACAAADxSggAICAAAAAgCIAoBQAAAAAAAgIAAACAEAAEgIFBIAAAAAUAAFwAAIkQOIyPCPgAAAAAAAAAAAAAQAACAAAAAAAAAAAA==

>  <PUBCHEM_IUPAC_OPENEYE_NAME>
(4bS,10R)-1,10-dihydroxy-2-isopropyl-4b,8,8-trimethyl-5,6,7,8a,9,10-hexahydrophenanthrene-3,4-dione

>  <PUBCHEM_IUPAC_CAS_NAME>
(4bS,10R)-1,10-dihydroxy-4b,8,8-trimethyl-2-propan-2-yl-5,6,7,8a,9,10-hexahydrophenanthrene-3,4-dione

>  <PUBCHEM_IUPAC_NAME>
(4bS,10R)-1,10-dihydroxy-4b,8,8-trimethyl-2-propan-2-yl-5,6,7,8a,9,10-hexahydrophenanthrene-3,4-dione

>  <PUBCHEM_IUPAC_SYSTEMATIC_NAME>
(4bS,10R)-4b,8,8-trimethyl-1,10-bis(oxidanyl)-2-propan-2-yl-5,6,7,8a,9,10-hexahydrophenanthrene-3,4-dione

>  <PUBCHEM_IUPAC_TRADITIONAL_NAME>
(4bS,10R)-1,10-dihydroxy-2-isopropyl-4b,8,8-trimethyl-5,6,7,8a,9,10-hexahydrophenanthrene-3,4-quinone

>  <PUBCHEM_IUPAC_INCHI>
InChI=1S/C20H28O4/c1-10(2)13-16(22)14-11(21)9-12-19(3,4)7-6-8-20(12,5)15(14)18(24)17(13)23/h10-12,21-22H,6-9H2,1-5H3/t11-,12?,20+/m1/s1

>  <PUBCHEM_IUPAC_INCHIKEY>
WAZYPYJGZYLHHT-SEYFCWQZSA-N

>  <PUBCHEM_XLOGP3_AA>
3.1

>  <PUBCHEM_EXACT_MASS>
332.199

>  <PUBCHEM_MOLECULAR_FORMULA>
C20H28O4

>  <PUBCHEM_MOLECULAR_WEIGHT>
332.44

>  <PUBCHEM_OPENEYE_CAN_SMILES>
CC(C)C1=C(C2=C(C(=O)C1=O)C3(CCCC(C3CC2O)(C)C)C)O

>  <PUBCHEM_OPENEYE_ISO_SMILES>
CC(C)C1=C(C2=C(C(=O)C1=O)[C@]3(CCCC(C3C[C@H]2O)(C)C)C)O

>  <PUBCHEM_CACTVS_TPSA>
74.6

>  <PUBCHEM_MONOISOTOPIC_WEIGHT>
332.199

>  <PUBCHEM_TOTAL_CHARGE>
0

>  <PUBCHEM_HEAVY_ATOM_COUNT>
24

>  <PUBCHEM_ATOM_DEF_STEREO_COUNT>
2

>  <PUBCHEM_ATOM_UDEF_STEREO_COUNT>
1

>  <PUBCHEM_BOND_DEF_STEREO_COUNT>
0

>  <PUBCHEM_BOND_UDEF_STEREO_COUNT>
0

>  <PUBCHEM_ISOTOPIC_ATOM_COUNT>
0

>  <PUBCHEM_COMPONENT_COUNT>
1

>  <PUBCHEM_CACTVS_TAUTO_COUNT>
26

>  <PUBCHEM_COORDINATE_TYPE>
1
5
255

>  <PUBCHEM_BONDANNOTATIONS>
13  1  6
5  9  3
6  14  5

$$$$
