50909243
 OpenBabel06101807152D

 21 21  0  0  1  0  0  0  0  0999 V2000
    4.2690   -1.3450    0.0000 O   0  0  0  0  0  0  0  0  0  0  0  0
    4.2690    1.6550    0.0000 O   0  0  0  0  0  0  0  0  0  0  0  0
    2.5369    0.6550    0.0000 O   0  0  0  0  0  0  0  0  0  0  0  0
    6.0010    0.6550    0.0000 O   0  0  0  0  0  0  0  0  0  0  0  0
    2.5369   -1.3450    0.0000 O   0  0  0  0  0  0  0  0  0  0  0  0
    6.0010   -1.3450    0.0000 O   0  0  0  0  0  0  0  0  0  0  0  0
    4.2690    0.6550    0.0000 C   0  0  3  0  0  0  0  0  0  0  0  0
    5.1350    0.1550    0.0000 C   0  0  2  0  0  0  0  0  0  0  0  0
    3.4030    0.1550    0.0000 C   0  0  1  0  0  0  0  0  0  0  0  0
    5.1350   -0.8450    0.0000 C   0  0  1  0  0  0  0  0  0  0  0  0
    3.4030   -0.8450    0.0000 C   0  0  2  0  0  0  0  0  0  0  0  0
    4.8059    0.9650    0.0000 H   0  0  0  0  0  0  0  0  0  0  0  0
    3.4030    0.7750    0.0000 H   0  0  0  0  0  0  0  0  0  0  0  0
    5.6720   -0.1550    0.0000 H   0  0  0  0  0  0  0  0  0  0  0  0
    3.4030   -1.4650    0.0000 H   0  0  0  0  0  0  0  0  0  0  0  0
    5.1350   -1.4650    0.0000 H   0  0  0  0  0  0  0  0  0  0  0  0
    4.8059    1.9650    0.0000 H   0  0  0  0  0  0  0  0  0  0  0  0
    2.0000    0.3450    0.0000 H   0  0  0  0  0  0  0  0  0  0  0  0
    6.5380    0.3450    0.0000 H   0  0  0  0  0  0  0  0  0  0  0  0
    2.5369   -1.9650    0.0000 H   0  0  0  0  0  0  0  0  0  0  0  0
    6.0010   -1.9650    0.0000 H   0  0  0  0  0  0  0  0  0  0  0  0
  1 10  1  0  0  0  0
  1 11  1  0  0  0  0
  2  7  1  0  0  0  0
  2 17  1  0  0  0  0
  3 18  1  0  0  0  0
  4 19  1  0  0  0  0
  5 20  1  0  0  0  0
  6 21  1  0  0  0  0
  7 12  1  0  0  0  0
  8  4  1  0  0  0  0
  8  7  1  6  0  0  0
  8 14  1  0  0  0  0
  9  3  1  0  0  0  0
  9  7  1  1  0  0  0
  9 13  1  0  0  0  0
 10  6  1  0  0  0  0
 10  8  1  1  0  0  0
 10 16  1  0  0  0  0
 11  5  1  0  0  0  0
 11  9  1  1  0  0  0
 11 15  1  0  0  0  0
M  END
>  <PUBCHEM_COMPOUND_CID>
50909243

>  <PUBCHEM_COMPOUND_CANONICALIZED>
1

>  <PUBCHEM_CACTVS_COMPLEXITY>
125

>  <PUBCHEM_CACTVS_HBOND_ACCEPTOR>
6

>  <PUBCHEM_CACTVS_HBOND_DONOR>
5

>  <PUBCHEM_CACTVS_ROTATABLE_BOND>
0

>  <PUBCHEM_CACTVS_SUBSKEYS>
AAADccBgOAAAAAAAAAAAAAAAAAAAAAAAAAAkAAAAAAAAAAAAAAAAGgAACAAACBSwgAMACAAABgAAAAAAAAAAAAAAAAAAAAAAAAAREAIAAAACQAAFAAAHAADAIAAAAAAAAAAAAAAAAAAAAAAAAAAAAAAAAA==

>  <PUBCHEM_IUPAC_OPENEYE_NAME>
(2R,3R,5S,6S)-tetrahydropyran-2,3,4,5,6-pentol

>  <PUBCHEM_IUPAC_CAS_NAME>
(2R,3R,5S,6S)-oxane-2,3,4,5,6-pentol

>  <PUBCHEM_IUPAC_NAME>
(2R,3R,5S,6S)-oxane-2,3,4,5,6-pentol

>  <PUBCHEM_IUPAC_SYSTEMATIC_NAME>
(2R,3R,5S,6S)-oxane-2,3,4,5,6-pentol

>  <PUBCHEM_IUPAC_TRADITIONAL_NAME>
(2R,3R,5S,6S)-tetrahydropyran-2,3,4,5,6-pentol

>  <PUBCHEM_IUPAC_INCHI>
InChI=1S/C5H10O6/c6-1-2(7)4(9)11-5(10)3(1)8/h1-10H/t1?,2-,3+,4-,5+

>  <PUBCHEM_IUPAC_INCHIKEY>
HEHIOFQJTRFOKM-ASQQECOQSA-N

>  <PUBCHEM_XLOGP3_AA>
-3

>  <PUBCHEM_EXACT_MASS>
166.048

>  <PUBCHEM_MOLECULAR_FORMULA>
C5H10O6

>  <PUBCHEM_MOLECULAR_WEIGHT>
166.129

>  <PUBCHEM_OPENEYE_CAN_SMILES>
C1(C(C(OC(C1O)O)O)O)O

>  <PUBCHEM_OPENEYE_ISO_SMILES>
[C@H]1([C@H](O[C@H]([C@@H](C1O)O)O)O)O

>  <PUBCHEM_CACTVS_TPSA>
110

>  <PUBCHEM_MONOISOTOPIC_WEIGHT>
166.048

>  <PUBCHEM_TOTAL_CHARGE>
0

>  <PUBCHEM_HEAVY_ATOM_COUNT>
11

>  <PUBCHEM_ATOM_DEF_STEREO_COUNT>
4

>  <PUBCHEM_ATOM_UDEF_STEREO_COUNT>
0

>  <PUBCHEM_BOND_DEF_STEREO_COUNT>
0

>  <PUBCHEM_BOND_UDEF_STEREO_COUNT>
0

>  <PUBCHEM_ISOTOPIC_ATOM_COUNT>
0

>  <PUBCHEM_COMPONENT_COUNT>
1

>  <PUBCHEM_CACTVS_TAUTO_COUNT>
1

>  <PUBCHEM_COORDINATE_TYPE>
1
5
255

>  <PUBCHEM_BONDANNOTATIONS>
9  3  5
8  4  5
11  5  6
10  6  6

$$$$
