509270
 OpenBabel06101807152D

 50 53  0  0  0  0  0  0  0  0999 V2000
    9.6654   -2.3998    0.0000 O   0  0  0  0  0  0  0  0  0  0  0  0
    6.0682   -2.3220    0.0000 O   0  0  0  0  0  0  0  0  0  0  0  0
    7.8167    0.7126    0.0000 O   0  0  0  0  0  0  0  0  0  0  0  0
    6.0682    0.6780    0.0000 O   0  0  0  0  0  0  0  0  0  0  0  0
    2.5381   -0.2979    0.0000 O   0  0  0  0  0  0  0  0  0  0  0  0
   10.6092   -1.8645    0.0000 C   0  0  0  0  0  0  0  0  0  0  0  0
    8.7343   -0.8012    0.0000 C   0  0  0  0  0  0  0  0  0  0  0  0
    8.7343   -1.8428    0.0000 C   0  0  0  0  0  0  0  0  0  0  0  0
    6.9343   -0.8220    0.0000 C   0  0  0  0  0  0  0  0  0  0  0  0
    6.9343   -1.8220    0.0000 C   0  0  0  0  0  0  0  0  0  0  0  0
   10.6092   -0.7795    0.0000 C   0  0  0  0  0  0  0  0  0  0  0  0
    5.2022   -0.8220    0.0000 C   0  0  0  0  0  0  0  0  0  0  0  0
    7.8282   -0.2874    0.0000 C   0  0  0  0  0  0  0  0  0  0  0  0
    7.8282   -2.3567    0.0000 C   0  0  0  0  0  0  0  0  0  0  0  0
    9.6654   -0.2443    0.0000 C   0  0  0  0  0  0  0  0  0  0  0  0
    6.0682   -0.3220    0.0000 C   0  0  0  0  0  0  0  0  0  0  0  0
   11.6092   -1.8684    0.0000 C   0  0  0  0  0  0  0  0  0  0  0  0
   11.1059   -2.7325    0.0000 C   0  0  0  0  0  0  0  0  0  0  0  0
    4.3083   -0.2874    0.0000 C   0  0  0  0  0  0  0  0  0  0  0  0
    5.2022   -1.8220    0.0000 C   0  0  0  0  0  0  0  0  0  0  0  0
    4.3198    0.7126    0.0000 C   0  0  0  0  0  0  0  0  0  0  0  0
    3.4022   -0.8012    0.0000 C   0  0  0  0  0  0  0  0  0  0  0  0
    4.3083   -2.3567    0.0000 C   0  0  0  0  0  0  0  0  0  0  0  0
    3.4022   -1.8428    0.0000 C   0  0  0  0  0  0  0  0  0  0  0  0
    3.4597    1.2226    0.0000 C   0  0  0  0  0  0  0  0  0  0  0  0
    3.4712    2.2225    0.0000 C   0  0  0  0  0  0  0  0  0  0  0  0
    2.6110    2.7325    0.0000 C   0  0  0  0  0  0  0  0  0  0  0  0
    4.3430    2.7124    0.0000 C   0  0  0  0  0  0  0  0  0  0  0  0
   11.1450   -0.4675    0.0000 H   0  0  0  0  0  0  0  0  0  0  0  0
    7.8210   -2.9766    0.0000 H   0  0  0  0  0  0  0  0  0  0  0  0
    9.6583    0.3757    0.0000 H   0  0  0  0  0  0  0  0  0  0  0  0
   10.5678   -3.0404    0.0000 H   0  0  0  0  0  0  0  0  0  0  0  0
   11.6068   -2.4884    0.0000 H   0  0  0  0  0  0  0  0  0  0  0  0
   12.2292   -1.8708    0.0000 H   0  0  0  0  0  0  0  0  0  0  0  0
   11.6116   -1.2484    0.0000 H   0  0  0  0  0  0  0  0  0  0  0  0
   11.4138   -3.2706    0.0000 H   0  0  0  0  0  0  0  0  0  0  0  0
   11.6440   -2.4245    0.0000 H   0  0  0  0  0  0  0  0  0  0  0  0
    4.9291    0.5979    0.0000 H   0  0  0  0  0  0  0  0  0  0  0  0
    4.5386    1.2927    0.0000 H   0  0  0  0  0  0  0  0  0  0  0  0
    4.3154   -2.9766    0.0000 H   0  0  0  0  0  0  0  0  0  0  0  0
    2.8665   -2.1549    0.0000 H   0  0  0  0  0  0  0  0  0  0  0  0
    2.9192    0.9188    0.0000 H   0  0  0  0  0  0  0  0  0  0  0  0
    8.3500    1.0288    0.0000 H   0  0  0  0  0  0  0  0  0  0  0  0
    2.0000   -0.6058    0.0000 H   0  0  0  0  0  0  0  0  0  0  0  0
    2.9272    3.2658    0.0000 H   0  0  0  0  0  0  0  0  0  0  0  0
    4.6468    2.1720    0.0000 H   0  0  0  0  0  0  0  0  0  0  0  0
    4.8835    3.0162    0.0000 H   0  0  0  0  0  0  0  0  0  0  0  0
    4.0392    3.2529    0.0000 H   0  0  0  0  0  0  0  0  0  0  0  0
    2.0777    3.0486    0.0000 H   0  0  0  0  0  0  0  0  0  0  0  0
    2.2948    2.1992    0.0000 H   0  0  0  0  0  0  0  0  0  0  0  0
  1  6  1  0  0  0  0
  1  8  1  0  0  0  0
  2 10  1  0  0  0  0
  2 20  1  0  0  0  0
  3 13  1  0  0  0  0
  3 43  1  0  0  0  0
  4 16  2  0  0  0  0
  5 22  1  0  0  0  0
  5 44  1  0  0  0  0
  6 11  1  0  0  0  0
  6 17  1  0  0  0  0
  6 18  1  0  0  0  0
  7  8  2  0  0  0  0
  7 13  1  0  0  0  0
  7 15  1  0  0  0  0
  8 14  1  0  0  0  0
  9 10  1  0  0  0  0
  9 13  2  0  0  0  0
  9 16  1  0  0  0  0
 10 14  2  0  0  0  0
 11 15  2  0  0  0  0
 11 29  1  0  0  0  0
 12 16  1  0  0  0  0
 12 19  1  0  0  0  0
 12 20  2  0  0  0  0
 14 30  1  0  0  0  0
 15 31  1  0  0  0  0
 17 33  1  0  0  0  0
 17 34  1  0  0  0  0
 17 35  1  0  0  0  0
 18 32  1  0  0  0  0
 18 36  1  0  0  0  0
 18 37  1  0  0  0  0
 19 21  1  0  0  0  0
 19 22  2  0  0  0  0
 20 23  1  0  0  0  0
 21 25  1  0  0  0  0
 21 38  1  0  0  0  0
 21 39  1  0  0  0  0
 22 24  1  0  0  0  0
 23 24  2  0  0  0  0
 23 40  1  0  0  0  0
 24 41  1  0  0  0  0
 25 26  2  0  0  0  0
 25 42  1  0  0  0  0
 26 27  1  0  0  0  0
 26 28  1  0  0  0  0
 27 45  1  0  0  0  0
 27 49  1  0  0  0  0
 27 50  1  0  0  0  0
 28 46  1  0  0  0  0
 28 47  1  0  0  0  0
 28 48  1  0  0  0  0
M  END
>  <PUBCHEM_COMPOUND_CID>
509270

>  <PUBCHEM_COMPOUND_CANONICALIZED>
1

>  <PUBCHEM_CACTVS_COMPLEXITY>
677

>  <PUBCHEM_CACTVS_HBOND_ACCEPTOR>
5

>  <PUBCHEM_CACTVS_HBOND_DONOR>
2

>  <PUBCHEM_CACTVS_ROTATABLE_BOND>
2

>  <PUBCHEM_CACTVS_SUBSKEYS>
AAADceB4OAAAAAAAAAAAAAAAAAAAAAAAAAA0YIEAAAAAAACRQAAAGgAACAAADESAmAAyBoAABgCIAqBSAAACCAAkIAAIiAEGCMgMJzaGNRqCeWCl4BUIuQfK7PzOoQADCAAYAABCAAYQADAAAAAAAAAAAA==

>  <PUBCHEM_IUPAC_OPENEYE_NAME>
5,8-dihydroxy-2,2-dimethyl-7-(3-methylbut-2-enyl)pyrano[3,2-b]xanthen-6-one

>  <PUBCHEM_IUPAC_CAS_NAME>
5,8-dihydroxy-2,2-dimethyl-7-(3-methylbut-2-enyl)-6-pyrano[3,2-b]xanthenone

>  <PUBCHEM_IUPAC_NAME>
5,8-dihydroxy-2,2-dimethyl-7-(3-methylbut-2-enyl)pyrano[3,2-b]xanthen-6-one

>  <PUBCHEM_IUPAC_SYSTEMATIC_NAME>
2,2-dimethyl-7-(3-methylbut-2-enyl)-5,8-bis(oxidanyl)pyrano[3,2-b]xanthen-6-one

>  <PUBCHEM_IUPAC_TRADITIONAL_NAME>
5,8-dihydroxy-2,2-dimethyl-7-(3-methylbut-2-enyl)pyrano[3,2-b]xanthen-6-one

>  <PUBCHEM_IUPAC_INCHI>
InChI=1S/C23H22O5/c1-12(2)5-6-13-15(24)7-8-16-19(13)22(26)20-18(27-16)11-17-14(21(20)25)9-10-23(3,4)28-17/h5,7-11,24-25H,6H2,1-4H3

>  <PUBCHEM_IUPAC_INCHIKEY>
SDKLJUCURHMDBQ-UHFFFAOYSA-N

>  <PUBCHEM_XLOGP3_AA>
5.7

>  <PUBCHEM_EXACT_MASS>
378.147

>  <PUBCHEM_MOLECULAR_FORMULA>
C23H22O5

>  <PUBCHEM_MOLECULAR_WEIGHT>
378.424

>  <PUBCHEM_OPENEYE_CAN_SMILES>
CC(=CCC1=C(C=CC2=C1C(=O)C3=C(C4=C(C=C3O2)OC(C=C4)(C)C)O)O)C

>  <PUBCHEM_OPENEYE_ISO_SMILES>
CC(=CCC1=C(C=CC2=C1C(=O)C3=C(C4=C(C=C3O2)OC(C=C4)(C)C)O)O)C

>  <PUBCHEM_CACTVS_TPSA>
76

>  <PUBCHEM_MONOISOTOPIC_WEIGHT>
378.147

>  <PUBCHEM_TOTAL_CHARGE>
0

>  <PUBCHEM_HEAVY_ATOM_COUNT>
28

>  <PUBCHEM_ATOM_DEF_STEREO_COUNT>
0

>  <PUBCHEM_ATOM_UDEF_STEREO_COUNT>
0

>  <PUBCHEM_BOND_DEF_STEREO_COUNT>
0

>  <PUBCHEM_BOND_UDEF_STEREO_COUNT>
0

>  <PUBCHEM_ISOTOPIC_ATOM_COUNT>
0

>  <PUBCHEM_COMPONENT_COUNT>
1

>  <PUBCHEM_CACTVS_TAUTO_COUNT>
143

>  <PUBCHEM_COORDINATE_TYPE>
1
5
255

>  <PUBCHEM_BONDANNOTATIONS>
10  14  8
12  16  8
12  19  8
12  20  8
19  22  8
2  10  8
2  20  8
20  23  8
22  24  8
23  24  8
7  13  8
7  8  8
8  14  8
9  10  8
9  13  8
9  16  8

$$$$
