520069
 OpenBabel06101807152D

 39 38  0  0  0  0  0  0  0  0999 V2000
    2.5369    0.0000    0.0000 O   0  0  0  0  0  0  0  0  0  0  0  0
    4.2690    0.0000    0.0000 C   0  0  0  0  0  0  0  0  0  0  0  0
    5.1350    0.5000    0.0000 C   0  0  0  0  0  0  0  0  0  0  0  0
    6.0010    0.0000    0.0000 C   0  0  0  0  0  0  0  0  0  0  0  0
    6.8671    0.5000    0.0000 C   0  0  0  0  0  0  0  0  0  0  0  0
    7.7331    0.0000    0.0000 C   0  0  0  0  0  0  0  0  0  0  0  0
    3.4030   -0.5000    0.0000 C   0  0  0  0  0  0  0  0  0  0  0  0
    3.7690    0.8660    0.0000 C   0  0  0  0  0  0  0  0  0  0  0  0
    4.7690   -0.8660    0.0000 C   0  0  0  0  0  0  0  0  0  0  0  0
    8.5991    0.5000    0.0000 C   0  0  0  0  0  0  0  0  0  0  0  0
    9.4651    0.0000    0.0000 C   0  0  0  0  0  0  0  0  0  0  0  0
   10.3312    0.5000    0.0000 C   0  0  0  0  0  0  0  0  0  0  0  0
   11.1972    0.0000    0.0000 C   0  0  0  0  0  0  0  0  0  0  0  0
    5.5335    0.9749    0.0000 H   0  0  0  0  0  0  0  0  0  0  0  0
    4.7365    0.9749    0.0000 H   0  0  0  0  0  0  0  0  0  0  0  0
    5.6025   -0.4749    0.0000 H   0  0  0  0  0  0  0  0  0  0  0  0
    6.3996   -0.4749    0.0000 H   0  0  0  0  0  0  0  0  0  0  0  0
    7.2656    0.9749    0.0000 H   0  0  0  0  0  0  0  0  0  0  0  0
    6.4685    0.9749    0.0000 H   0  0  0  0  0  0  0  0  0  0  0  0
    7.3346   -0.4749    0.0000 H   0  0  0  0  0  0  0  0  0  0  0  0
    8.1316   -0.4749    0.0000 H   0  0  0  0  0  0  0  0  0  0  0  0
    3.0044   -0.9749    0.0000 H   0  0  0  0  0  0  0  0  0  0  0  0
    3.8015   -0.9749    0.0000 H   0  0  0  0  0  0  0  0  0  0  0  0
    4.3059    1.1760    0.0000 H   0  0  0  0  0  0  0  0  0  0  0  0
    3.4590    1.4030    0.0000 H   0  0  0  0  0  0  0  0  0  0  0  0
    3.2320    0.5560    0.0000 H   0  0  0  0  0  0  0  0  0  0  0  0
    4.2320   -1.1760    0.0000 H   0  0  0  0  0  0  0  0  0  0  0  0
    5.0790   -1.4030    0.0000 H   0  0  0  0  0  0  0  0  0  0  0  0
    5.3059   -0.5560    0.0000 H   0  0  0  0  0  0  0  0  0  0  0  0
    8.9976    0.9749    0.0000 H   0  0  0  0  0  0  0  0  0  0  0  0
    8.2006    0.9749    0.0000 H   0  0  0  0  0  0  0  0  0  0  0  0
    9.0666   -0.4749    0.0000 H   0  0  0  0  0  0  0  0  0  0  0  0
    9.8637   -0.4749    0.0000 H   0  0  0  0  0  0  0  0  0  0  0  0
   10.7297    0.9749    0.0000 H   0  0  0  0  0  0  0  0  0  0  0  0
    9.9326    0.9749    0.0000 H   0  0  0  0  0  0  0  0  0  0  0  0
    2.0000   -0.3100    0.0000 H   0  0  0  0  0  0  0  0  0  0  0  0
   10.8872   -0.5369    0.0000 H   0  0  0  0  0  0  0  0  0  0  0  0
   11.7341   -0.3100    0.0000 H   0  0  0  0  0  0  0  0  0  0  0  0
   11.5072    0.5369    0.0000 H   0  0  0  0  0  0  0  0  0  0  0  0
  1  7  1  0  0  0  0
  1 36  1  0  0  0  0
  2  3  1  0  0  0  0
  2  7  1  0  0  0  0
  2  8  1  0  0  0  0
  2  9  1  0  0  0  0
  3  4  1  0  0  0  0
  3 14  1  0  0  0  0
  3 15  1  0  0  0  0
  4  5  1  0  0  0  0
  4 16  1  0  0  0  0
  4 17  1  0  0  0  0
  5  6  1  0  0  0  0
  5 18  1  0  0  0  0
  5 19  1  0  0  0  0
  6 10  1  0  0  0  0
  6 20  1  0  0  0  0
  6 21  1  0  0  0  0
  7 22  1  0  0  0  0
  7 23  1  0  0  0  0
  8 24  1  0  0  0  0
  8 25  1  0  0  0  0
  8 26  1  0  0  0  0
  9 27  1  0  0  0  0
  9 28  1  0  0  0  0
  9 29  1  0  0  0  0
 10 11  1  0  0  0  0
 10 30  1  0  0  0  0
 10 31  1  0  0  0  0
 11 12  1  0  0  0  0
 11 32  1  0  0  0  0
 11 33  1  0  0  0  0
 12 13  1  0  0  0  0
 12 34  1  0  0  0  0
 12 35  1  0  0  0  0
 13 37  1  0  0  0  0
 13 38  1  0  0  0  0
 13 39  1  0  0  0  0
M  END
>  <PUBCHEM_COMPOUND_CID>
520069

>  <PUBCHEM_COMPOUND_CANONICALIZED>
1

>  <PUBCHEM_CACTVS_COMPLEXITY>
108

>  <PUBCHEM_CACTVS_HBOND_ACCEPTOR>
1

>  <PUBCHEM_CACTVS_HBOND_DONOR>
1

>  <PUBCHEM_CACTVS_ROTATABLE_BOND>
8

>  <PUBCHEM_CACTVS_SUBSKEYS>
AAADceBwIAAAAAAAAAAAAAAAAAAAAAAAAAAAAAAAAAAAAAAAAAAAGgAACAAADgCggAICAAAAAgAAAAAAAAAAAAAAAAAAAAAAAAAAEAIAAAAAQAAEAAAAAAGAwOANAAAAAAAAAAAAAAAAAAAAAAAAAAAAAA==

>  <PUBCHEM_IUPAC_OPENEYE_NAME>
2,2-dimethyldecan-1-ol

>  <PUBCHEM_IUPAC_CAS_NAME>
2,2-dimethyl-1-decanol

>  <PUBCHEM_IUPAC_NAME>
2,2-dimethyldecan-1-ol

>  <PUBCHEM_IUPAC_SYSTEMATIC_NAME>
2,2-dimethyldecan-1-ol

>  <PUBCHEM_IUPAC_TRADITIONAL_NAME>
2,2-dimethyldecan-1-ol

>  <PUBCHEM_IUPAC_INCHI>
InChI=1S/C12H26O/c1-4-5-6-7-8-9-10-12(2,3)11-13/h13H,4-11H2,1-3H3

>  <PUBCHEM_IUPAC_INCHIKEY>
OSJLCOMCKUOKDD-UHFFFAOYSA-N

>  <PUBCHEM_XLOGP3_AA>
4.9

>  <PUBCHEM_EXACT_MASS>
186.198

>  <PUBCHEM_MOLECULAR_FORMULA>
C12H26O

>  <PUBCHEM_MOLECULAR_WEIGHT>
186.339

>  <PUBCHEM_OPENEYE_CAN_SMILES>
CCCCCCCCC(C)(C)CO

>  <PUBCHEM_OPENEYE_ISO_SMILES>
CCCCCCCCC(C)(C)CO

>  <PUBCHEM_CACTVS_TPSA>
20.2

>  <PUBCHEM_MONOISOTOPIC_WEIGHT>
186.198

>  <PUBCHEM_TOTAL_CHARGE>
0

>  <PUBCHEM_HEAVY_ATOM_COUNT>
13

>  <PUBCHEM_ATOM_DEF_STEREO_COUNT>
0

>  <PUBCHEM_ATOM_UDEF_STEREO_COUNT>
0

>  <PUBCHEM_BOND_DEF_STEREO_COUNT>
0

>  <PUBCHEM_BOND_UDEF_STEREO_COUNT>
0

>  <PUBCHEM_ISOTOPIC_ATOM_COUNT>
0

>  <PUBCHEM_COMPONENT_COUNT>
1

>  <PUBCHEM_CACTVS_TAUTO_COUNT>
1

>  <PUBCHEM_COORDINATE_TYPE>
1
5
255

$$$$
