521240
 OpenBabel06101807152D

 26 26  0  0  0  0  0  0  0  0999 V2000
    4.5691   -1.3184    0.0000 O   0  0  0  0  0  0  0  0  0  0  0  0
    2.8940    0.7694    0.0000 O   0  0  0  0  0  0  0  0  0  0  0  0
    4.6261    1.7694    0.0000 C   0  0  0  0  0  0  0  0  0  0  0  0
    4.6261    0.7694    0.0000 C   0  0  0  0  0  0  0  0  0  0  0  0
    5.4921    2.2694    0.0000 C   0  0  0  0  0  0  0  0  0  0  0  0
    3.7601    2.2694    0.0000 C   0  0  0  0  0  0  0  0  0  0  0  0
    3.7601    0.2694    0.0000 C   0  0  0  0  0  0  0  0  0  0  0  0
    3.7601   -0.7306    0.0000 C   0  0  0  0  0  0  0  0  0  0  0  0
    2.9511   -1.3184    0.0000 C   0  0  0  0  0  0  0  0  0  0  0  0
    3.2601   -2.2694    0.0000 C   0  0  0  0  0  0  0  0  0  0  0  0
    2.0000   -1.0094    0.0000 C   0  0  0  0  0  0  0  0  0  0  0  0
    4.2601   -2.2694    0.0000 C   0  0  0  0  0  0  0  0  0  0  0  0
    5.1630    1.4594    0.0000 H   0  0  0  0  0  0  0  0  0  0  0  0
    4.8382    0.1868    0.0000 H   0  0  0  0  0  0  0  0  0  0  0  0
    5.2367    0.8771    0.0000 H   0  0  0  0  0  0  0  0  0  0  0  0
    5.8021    1.7325    0.0000 H   0  0  0  0  0  0  0  0  0  0  0  0
    6.0291    2.5794    0.0000 H   0  0  0  0  0  0  0  0  0  0  0  0
    5.1821    2.8064    0.0000 H   0  0  0  0  0  0  0  0  0  0  0  0
    4.0701    2.8064    0.0000 H   0  0  0  0  0  0  0  0  0  0  0  0
    3.2231    2.5794    0.0000 H   0  0  0  0  0  0  0  0  0  0  0  0
    3.4501    1.7325    0.0000 H   0  0  0  0  0  0  0  0  0  0  0  0
    2.8956   -2.7710    0.0000 H   0  0  0  0  0  0  0  0  0  0  0  0
    2.1916   -0.4197    0.0000 H   0  0  0  0  0  0  0  0  0  0  0  0
    1.4103   -0.8178    0.0000 H   0  0  0  0  0  0  0  0  0  0  0  0
    1.8084   -1.5990    0.0000 H   0  0  0  0  0  0  0  0  0  0  0  0
    4.6245   -2.7710    0.0000 H   0  0  0  0  0  0  0  0  0  0  0  0
  1  8  1  0  0  0  0
  1 12  1  0  0  0  0
  2  7  2  0  0  0  0
  3  4  1  0  0  0  0
  3  5  1  0  0  0  0
  3  6  1  0  0  0  0
  3 13  1  0  0  0  0
  4  7  1  0  0  0  0
  4 14  1  0  0  0  0
  4 15  1  0  0  0  0
  5 16  1  0  0  0  0
  5 17  1  0  0  0  0
  5 18  1  0  0  0  0
  6 19  1  0  0  0  0
  6 20  1  0  0  0  0
  6 21  1  0  0  0  0
  7  8  1  0  0  0  0
  8  9  2  0  0  0  0
  9 10  1  0  0  0  0
  9 11  1  0  0  0  0
 10 12  2  0  0  0  0
 10 22  1  0  0  0  0
 11 23  1  0  0  0  0
 11 24  1  0  0  0  0
 11 25  1  0  0  0  0
 12 26  1  0  0  0  0
M  END
>  <PUBCHEM_COMPOUND_CID>
521240

>  <PUBCHEM_COMPOUND_CANONICALIZED>
1

>  <PUBCHEM_CACTVS_COMPLEXITY>
163

>  <PUBCHEM_CACTVS_HBOND_ACCEPTOR>
2

>  <PUBCHEM_CACTVS_HBOND_DONOR>
0

>  <PUBCHEM_CACTVS_ROTATABLE_BOND>
3

>  <PUBCHEM_CACTVS_SUBSKEYS>
AAADccBwMAAAAAAAAAAAAAAAAAAAASAAAAAAAAAAAAAAAAABgAAAGgAAAAAADQSgmAIyBIAABECIAqhSgAICCAAkIAAIiAFGCMgMJjKENR6CGSCkwBEIqYeIzuCuAAAAAAAAAAAAAAAAAAAAAAAAAAAAAA==

>  <PUBCHEM_IUPAC_OPENEYE_NAME>
3-methyl-1-(3-methyl-2-furyl)butan-1-one

>  <PUBCHEM_IUPAC_CAS_NAME>
3-methyl-1-(3-methyl-2-furanyl)-1-butanone

>  <PUBCHEM_IUPAC_NAME>
3-methyl-1-(3-methylfuran-2-yl)butan-1-one

>  <PUBCHEM_IUPAC_SYSTEMATIC_NAME>
3-methyl-1-(3-methylfuran-2-yl)butan-1-one

>  <PUBCHEM_IUPAC_TRADITIONAL_NAME>
3-methyl-1-(3-methyl-2-furyl)butan-1-one

>  <PUBCHEM_IUPAC_INCHI>
InChI=1S/C10H14O2/c1-7(2)6-9(11)10-8(3)4-5-12-10/h4-5,7H,6H2,1-3H3

>  <PUBCHEM_IUPAC_INCHIKEY>
MYPGRLGQLDFZMK-UHFFFAOYSA-N

>  <PUBCHEM_XLOGP3_AA>
2.6

>  <PUBCHEM_EXACT_MASS>
166.099

>  <PUBCHEM_MOLECULAR_FORMULA>
C10H14O2

>  <PUBCHEM_MOLECULAR_WEIGHT>
166.22

>  <PUBCHEM_OPENEYE_CAN_SMILES>
CC1=C(OC=C1)C(=O)CC(C)C

>  <PUBCHEM_OPENEYE_ISO_SMILES>
CC1=C(OC=C1)C(=O)CC(C)C

>  <PUBCHEM_CACTVS_TPSA>
30.2

>  <PUBCHEM_MONOISOTOPIC_WEIGHT>
166.099

>  <PUBCHEM_TOTAL_CHARGE>
0

>  <PUBCHEM_HEAVY_ATOM_COUNT>
12

>  <PUBCHEM_ATOM_DEF_STEREO_COUNT>
0

>  <PUBCHEM_ATOM_UDEF_STEREO_COUNT>
0

>  <PUBCHEM_BOND_DEF_STEREO_COUNT>
0

>  <PUBCHEM_BOND_UDEF_STEREO_COUNT>
0

>  <PUBCHEM_ISOTOPIC_ATOM_COUNT>
0

>  <PUBCHEM_COMPONENT_COUNT>
1

>  <PUBCHEM_CACTVS_TAUTO_COUNT>
2

>  <PUBCHEM_COORDINATE_TYPE>
1
5
255

>  <PUBCHEM_BONDANNOTATIONS>
1  12  8
1  8  8
10  12  8
8  9  8
9  10  8

$$$$
