525779
 OpenBabel06101807152D

 32 32  0  0  0  0  0  0  0  0999 V2000
    5.4190    0.8691    0.0000 O   0  0  0  0  0  0  0  0  0  0  0  0
    4.9190   -0.6697    0.0000 N   0  0  0  0  0  0  0  0  0  0  0  0
    6.6791   -0.3910    0.0000 C   0  0  0  0  0  0  0  0  0  0  0  0
    7.4223    0.2782    0.0000 C   0  0  0  0  0  0  0  0  0  0  0  0
    4.1100   -0.0819    0.0000 C   0  0  0  0  0  0  0  0  0  0  0  0
    3.1590   -0.3910    0.0000 C   0  0  0  0  0  0  0  0  0  0  0  0
    5.7281   -0.0819    0.0000 C   0  0  0  0  0  0  0  0  0  0  0  0
    8.3733   -0.0308    0.0000 C   0  0  0  0  0  0  0  0  0  0  0  0
    4.4190    0.8691    0.0000 C   0  0  0  0  0  0  0  0  0  0  0  0
    2.9511   -1.3691    0.0000 C   0  0  0  0  0  0  0  0  0  0  0  0
    9.1165    0.6383    0.0000 C   0  0  0  0  0  0  0  0  0  0  0  0
    3.8313    1.6781    0.0000 C   0  0  0  0  0  0  0  0  0  0  0  0
    2.0000   -1.6781    0.0000 C   0  0  0  0  0  0  0  0  0  0  0  0
    6.3880   -0.9384    0.0000 H   0  0  0  0  0  0  0  0  0  0  0  0
    7.1677   -0.7727    0.0000 H   0  0  0  0  0  0  0  0  0  0  0  0
    7.7133    0.8256    0.0000 H   0  0  0  0  0  0  0  0  0  0  0  0
    6.9337    0.6599    0.0000 H   0  0  0  0  0  0  0  0  0  0  0  0
    3.0727    0.2230    0.0000 H   0  0  0  0  0  0  0  0  0  0  0  0
    2.5394   -0.3693    0.0000 H   0  0  0  0  0  0  0  0  0  0  0  0
    8.0822   -0.5783    0.0000 H   0  0  0  0  0  0  0  0  0  0  0  0
    8.8619   -0.4126    0.0000 H   0  0  0  0  0  0  0  0  0  0  0  0
    3.0373   -1.9831    0.0000 H   0  0  0  0  0  0  0  0  0  0  0  0
    3.5707   -1.3908    0.0000 H   0  0  0  0  0  0  0  0  0  0  0  0
    9.5313    0.1775    0.0000 H   0  0  0  0  0  0  0  0  0  0  0  0
    9.5772    1.0531    0.0000 H   0  0  0  0  0  0  0  0  0  0  0  0
    8.7016    1.0990    0.0000 H   0  0  0  0  0  0  0  0  0  0  0  0
    4.3328    2.0426    0.0000 H   0  0  0  0  0  0  0  0  0  0  0  0
    3.4668    2.1797    0.0000 H   0  0  0  0  0  0  0  0  0  0  0  0
    3.3297    1.3137    0.0000 H   0  0  0  0  0  0  0  0  0  0  0  0
    1.8084   -1.0885    0.0000 H   0  0  0  0  0  0  0  0  0  0  0  0
    1.4103   -1.8697    0.0000 H   0  0  0  0  0  0  0  0  0  0  0  0
    2.1916   -2.2678    0.0000 H   0  0  0  0  0  0  0  0  0  0  0  0
  1  7  1  0  0  0  0
  1  9  1  0  0  0  0
  2  5  1  0  0  0  0
  2  7  2  0  0  0  0
  3  4  1  0  0  0  0
  3  7  1  0  0  0  0
  3 14  1  0  0  0  0
  3 15  1  0  0  0  0
  4  8  1  0  0  0  0
  4 16  1  0  0  0  0
  4 17  1  0  0  0  0
  5  6  1  0  0  0  0
  5  9  2  0  0  0  0
  6 10  1  0  0  0  0
  6 18  1  0  0  0  0
  6 19  1  0  0  0  0
  8 11  1  0  0  0  0
  8 20  1  0  0  0  0
  8 21  1  0  0  0  0
  9 12  1  0  0  0  0
 10 13  1  0  0  0  0
 10 22  1  0  0  0  0
 10 23  1  0  0  0  0
 11 24  1  0  0  0  0
 11 25  1  0  0  0  0
 11 26  1  0  0  0  0
 12 27  1  0  0  0  0
 12 28  1  0  0  0  0
 12 29  1  0  0  0  0
 13 30  1  0  0  0  0
 13 31  1  0  0  0  0
 13 32  1  0  0  0  0
M  END
>  <PUBCHEM_COMPOUND_CID>
525779

>  <PUBCHEM_COMPOUND_CANONICALIZED>
1

>  <PUBCHEM_CACTVS_COMPLEXITY>
138

>  <PUBCHEM_CACTVS_HBOND_ACCEPTOR>
2

>  <PUBCHEM_CACTVS_HBOND_DONOR>
0

>  <PUBCHEM_CACTVS_ROTATABLE_BOND>
5

>  <PUBCHEM_CACTVS_SUBSKEYS>
AAADceByIAAAAAAAAAAAAAAAAAAAAWAAAAAAAAAAAAAAAAABgAAAHgAAAAAACAyBlgAChBIIFECoAYVwVAQAiCArYCAAGAG1QAgGIBJEkCKPCCCkhADYCAOYAAAAAAAAAAAAAAAAAAAAAAAAAAAAAAAAAA==

>  <PUBCHEM_IUPAC_OPENEYE_NAME>
2-butyl-5-methyl-4-propyl-oxazole

>  <PUBCHEM_IUPAC_CAS_NAME>
2-butyl-5-methyl-4-propyloxazole

>  <PUBCHEM_IUPAC_NAME>
2-butyl-5-methyl-4-propyl-1,3-oxazole

>  <PUBCHEM_IUPAC_SYSTEMATIC_NAME>
2-butyl-5-methyl-4-propyl-1,3-oxazole

>  <PUBCHEM_IUPAC_TRADITIONAL_NAME>
2-butyl-5-methyl-4-propyl-oxazole

>  <PUBCHEM_IUPAC_INCHI>
InChI=1S/C11H19NO/c1-4-6-8-11-12-10(7-5-2)9(3)13-11/h4-8H2,1-3H3

>  <PUBCHEM_IUPAC_INCHIKEY>
JIJACJIEHHDTAK-UHFFFAOYSA-N

>  <PUBCHEM_XLOGP3_AA>
3.7

>  <PUBCHEM_EXACT_MASS>
181.147

>  <PUBCHEM_MOLECULAR_FORMULA>
C11H19NO

>  <PUBCHEM_MOLECULAR_WEIGHT>
181.279

>  <PUBCHEM_OPENEYE_CAN_SMILES>
CCCCC1=NC(=C(O1)C)CCC

>  <PUBCHEM_OPENEYE_ISO_SMILES>
CCCCC1=NC(=C(O1)C)CCC

>  <PUBCHEM_CACTVS_TPSA>
26

>  <PUBCHEM_MONOISOTOPIC_WEIGHT>
181.147

>  <PUBCHEM_TOTAL_CHARGE>
0

>  <PUBCHEM_HEAVY_ATOM_COUNT>
13

>  <PUBCHEM_ATOM_DEF_STEREO_COUNT>
0

>  <PUBCHEM_ATOM_UDEF_STEREO_COUNT>
0

>  <PUBCHEM_BOND_DEF_STEREO_COUNT>
0

>  <PUBCHEM_BOND_UDEF_STEREO_COUNT>
0

>  <PUBCHEM_ISOTOPIC_ATOM_COUNT>
0

>  <PUBCHEM_COMPONENT_COUNT>
1

>  <PUBCHEM_CACTVS_TAUTO_COUNT>
2

>  <PUBCHEM_COORDINATE_TYPE>
1
5
255

>  <PUBCHEM_BONDANNOTATIONS>
1  7  8
1  9  8
2  5  8
2  7  8
5  9  8

$$$$
