525780
 OpenBabel06101807152D

 26 26  0  0  0  0  0  0  0  0999 V2000
    4.9190   -0.6697    0.0000 O   0  0  0  0  0  0  0  0  0  0  0  0
    5.4190    0.8691    0.0000 N   0  0  0  0  0  0  0  0  0  0  0  0
    3.1590   -0.3910    0.0000 C   0  0  0  0  0  0  0  0  0  0  0  0
    4.1100   -0.0819    0.0000 C   0  0  0  0  0  0  0  0  0  0  0  0
    2.9511   -1.3691    0.0000 C   0  0  0  0  0  0  0  0  0  0  0  0
    4.4190    0.8691    0.0000 C   0  0  0  0  0  0  0  0  0  0  0  0
    5.7281   -0.0819    0.0000 C   0  0  0  0  0  0  0  0  0  0  0  0
    6.6791   -0.3910    0.0000 C   0  0  0  0  0  0  0  0  0  0  0  0
    2.0000   -1.6781    0.0000 C   0  0  0  0  0  0  0  0  0  0  0  0
    3.8313    1.6781    0.0000 C   0  0  0  0  0  0  0  0  0  0  0  0
    7.4223    0.2782    0.0000 C   0  0  0  0  0  0  0  0  0  0  0  0
    3.0727    0.2230    0.0000 H   0  0  0  0  0  0  0  0  0  0  0  0
    2.5394   -0.3693    0.0000 H   0  0  0  0  0  0  0  0  0  0  0  0
    3.0373   -1.9831    0.0000 H   0  0  0  0  0  0  0  0  0  0  0  0
    3.5707   -1.3908    0.0000 H   0  0  0  0  0  0  0  0  0  0  0  0
    6.3880   -0.9384    0.0000 H   0  0  0  0  0  0  0  0  0  0  0  0
    7.1677   -0.7727    0.0000 H   0  0  0  0  0  0  0  0  0  0  0  0
    1.8084   -1.0885    0.0000 H   0  0  0  0  0  0  0  0  0  0  0  0
    1.4103   -1.8697    0.0000 H   0  0  0  0  0  0  0  0  0  0  0  0
    2.1916   -2.2678    0.0000 H   0  0  0  0  0  0  0  0  0  0  0  0
    4.3328    2.0426    0.0000 H   0  0  0  0  0  0  0  0  0  0  0  0
    3.4668    2.1797    0.0000 H   0  0  0  0  0  0  0  0  0  0  0  0
    3.3297    1.3137    0.0000 H   0  0  0  0  0  0  0  0  0  0  0  0
    7.8371   -0.1826    0.0000 H   0  0  0  0  0  0  0  0  0  0  0  0
    7.8830    0.6930    0.0000 H   0  0  0  0  0  0  0  0  0  0  0  0
    7.0074    0.7389    0.0000 H   0  0  0  0  0  0  0  0  0  0  0  0
  1  4  1  0  0  0  0
  1  7  1  0  0  0  0
  2  6  1  0  0  0  0
  2  7  2  0  0  0  0
  3  4  1  0  0  0  0
  3  5  1  0  0  0  0
  3 12  1  0  0  0  0
  3 13  1  0  0  0  0
  4  6  2  0  0  0  0
  5  9  1  0  0  0  0
  5 14  1  0  0  0  0
  5 15  1  0  0  0  0
  6 10  1  0  0  0  0
  7  8  1  0  0  0  0
  8 11  1  0  0  0  0
  8 16  1  0  0  0  0
  8 17  1  0  0  0  0
  9 18  1  0  0  0  0
  9 19  1  0  0  0  0
  9 20  1  0  0  0  0
 10 21  1  0  0  0  0
 10 22  1  0  0  0  0
 10 23  1  0  0  0  0
 11 24  1  0  0  0  0
 11 25  1  0  0  0  0
 11 26  1  0  0  0  0
M  END
>  <PUBCHEM_COMPOUND_CID>
525780

>  <PUBCHEM_COMPOUND_CANONICALIZED>
1

>  <PUBCHEM_CACTVS_COMPLEXITY>
116

>  <PUBCHEM_CACTVS_HBOND_ACCEPTOR>
2

>  <PUBCHEM_CACTVS_HBOND_DONOR>
0

>  <PUBCHEM_CACTVS_ROTATABLE_BOND>
3

>  <PUBCHEM_CACTVS_SUBSKEYS>
AAADccByIAAAAAAAAAAAAAAAAAAAAWAAAAAAAAAAAAAAAAABgAAAHgAAAAAACAyBlgAChBIIFECoAYVwVAQAiCArYCAAGAG1QAgGIBJEkCCPCCCkhADYSAMQAAAAAAAAAAAAAAAAAAAAAAAAAAAAAAAAAA==

>  <PUBCHEM_IUPAC_OPENEYE_NAME>
2-ethyl-4-methyl-5-propyl-oxazole

>  <PUBCHEM_IUPAC_CAS_NAME>
2-ethyl-4-methyl-5-propyloxazole

>  <PUBCHEM_IUPAC_NAME>
2-ethyl-4-methyl-5-propyl-1,3-oxazole

>  <PUBCHEM_IUPAC_SYSTEMATIC_NAME>
2-ethyl-4-methyl-5-propyl-1,3-oxazole

>  <PUBCHEM_IUPAC_TRADITIONAL_NAME>
2-ethyl-4-methyl-5-propyl-oxazole

>  <PUBCHEM_IUPAC_INCHI>
InChI=1S/C9H15NO/c1-4-6-8-7(3)10-9(5-2)11-8/h4-6H2,1-3H3

>  <PUBCHEM_IUPAC_INCHIKEY>
FDMDJAGBUGUESB-UHFFFAOYSA-N

>  <PUBCHEM_XLOGP3_AA>
2.8

>  <PUBCHEM_EXACT_MASS>
153.115

>  <PUBCHEM_MOLECULAR_FORMULA>
C9H15NO

>  <PUBCHEM_MOLECULAR_WEIGHT>
153.225

>  <PUBCHEM_OPENEYE_CAN_SMILES>
CCCC1=C(N=C(O1)CC)C

>  <PUBCHEM_OPENEYE_ISO_SMILES>
CCCC1=C(N=C(O1)CC)C

>  <PUBCHEM_CACTVS_TPSA>
26

>  <PUBCHEM_MONOISOTOPIC_WEIGHT>
153.115

>  <PUBCHEM_TOTAL_CHARGE>
0

>  <PUBCHEM_HEAVY_ATOM_COUNT>
11

>  <PUBCHEM_ATOM_DEF_STEREO_COUNT>
0

>  <PUBCHEM_ATOM_UDEF_STEREO_COUNT>
0

>  <PUBCHEM_BOND_DEF_STEREO_COUNT>
0

>  <PUBCHEM_BOND_UDEF_STEREO_COUNT>
0

>  <PUBCHEM_ISOTOPIC_ATOM_COUNT>
0

>  <PUBCHEM_COMPONENT_COUNT>
1

>  <PUBCHEM_CACTVS_TAUTO_COUNT>
2

>  <PUBCHEM_COORDINATE_TYPE>
1
5
255

>  <PUBCHEM_BONDANNOTATIONS>
1  4  8
1  7  8
2  6  8
2  7  8
4  6  8

$$$$
