525788
 OpenBabel06101807152D

 32 32  0  0  0  0  0  0  0  0999 V2000
    3.9680   -0.8242    0.0000 O   0  0  0  0  0  0  0  0  0  0  0  0
    4.4680    0.7146    0.0000 N   0  0  0  0  0  0  0  0  0  0  0  0
    6.4712    0.1237    0.0000 C   0  0  0  0  0  0  0  0  0  0  0  0
    7.4223   -0.1854    0.0000 C   0  0  0  0  0  0  0  0  0  0  0  0
    5.7281   -0.5455    0.0000 C   0  0  0  0  0  0  0  0  0  0  0  0
    8.1654    0.4838    0.0000 C   0  0  0  0  0  0  0  0  0  0  0  0
    4.7770   -0.2365    0.0000 C   0  0  0  0  0  0  0  0  0  0  0  0
    3.1590   -0.2365    0.0000 C   0  0  0  0  0  0  0  0  0  0  0  0
    3.4680    0.7146    0.0000 C   0  0  0  0  0  0  0  0  0  0  0  0
    2.2079   -0.5455    0.0000 C   0  0  0  0  0  0  0  0  0  0  0  0
    9.1165    0.1748    0.0000 C   0  0  0  0  0  0  0  0  0  0  0  0
    2.8802    1.5236    0.0000 C   0  0  0  0  0  0  0  0  0  0  0  0
    2.0000   -1.5236    0.0000 C   0  0  0  0  0  0  0  0  0  0  0  0
    6.7623    0.6711    0.0000 H   0  0  0  0  0  0  0  0  0  0  0  0
    5.9826    0.5054    0.0000 H   0  0  0  0  0  0  0  0  0  0  0  0
    7.1312   -0.7328    0.0000 H   0  0  0  0  0  0  0  0  0  0  0  0
    7.9108   -0.5671    0.0000 H   0  0  0  0  0  0  0  0  0  0  0  0
    5.4370   -1.0929    0.0000 H   0  0  0  0  0  0  0  0  0  0  0  0
    6.2166   -0.9272    0.0000 H   0  0  0  0  0  0  0  0  0  0  0  0
    8.4565    1.0312    0.0000 H   0  0  0  0  0  0  0  0  0  0  0  0
    7.6768    0.8655    0.0000 H   0  0  0  0  0  0  0  0  0  0  0  0
    2.1216    0.0685    0.0000 H   0  0  0  0  0  0  0  0  0  0  0  0
    1.5883   -0.5238    0.0000 H   0  0  0  0  0  0  0  0  0  0  0  0
    8.9249   -0.4149    0.0000 H   0  0  0  0  0  0  0  0  0  0  0  0
    9.7061   -0.0168    0.0000 H   0  0  0  0  0  0  0  0  0  0  0  0
    9.3080    0.7644    0.0000 H   0  0  0  0  0  0  0  0  0  0  0  0
    3.3818    1.8880    0.0000 H   0  0  0  0  0  0  0  0  0  0  0  0
    2.5158    2.0252    0.0000 H   0  0  0  0  0  0  0  0  0  0  0  0
    2.3786    1.1592    0.0000 H   0  0  0  0  0  0  0  0  0  0  0  0
    1.3936   -1.3947    0.0000 H   0  0  0  0  0  0  0  0  0  0  0  0
    1.8711   -2.1301    0.0000 H   0  0  0  0  0  0  0  0  0  0  0  0
    2.6064   -1.6525    0.0000 H   0  0  0  0  0  0  0  0  0  0  0  0
  1  7  1  0  0  0  0
  1  8  1  0  0  0  0
  2  7  2  0  0  0  0
  2  9  1  0  0  0  0
  3  4  1  0  0  0  0
  3  5  1  0  0  0  0
  3 14  1  0  0  0  0
  3 15  1  0  0  0  0
  4  6  1  0  0  0  0
  4 16  1  0  0  0  0
  4 17  1  0  0  0  0
  5  7  1  0  0  0  0
  5 18  1  0  0  0  0
  5 19  1  0  0  0  0
  6 11  1  0  0  0  0
  6 20  1  0  0  0  0
  6 21  1  0  0  0  0
  8  9  2  0  0  0  0
  8 10  1  0  0  0  0
  9 12  1  0  0  0  0
 10 13  1  0  0  0  0
 10 22  1  0  0  0  0
 10 23  1  0  0  0  0
 11 24  1  0  0  0  0
 11 25  1  0  0  0  0
 11 26  1  0  0  0  0
 12 27  1  0  0  0  0
 12 28  1  0  0  0  0
 12 29  1  0  0  0  0
 13 30  1  0  0  0  0
 13 31  1  0  0  0  0
 13 32  1  0  0  0  0
M  END
>  <PUBCHEM_COMPOUND_CID>
525788

>  <PUBCHEM_COMPOUND_CANONICALIZED>
1

>  <PUBCHEM_CACTVS_COMPLEXITY>
138

>  <PUBCHEM_CACTVS_HBOND_ACCEPTOR>
2

>  <PUBCHEM_CACTVS_HBOND_DONOR>
0

>  <PUBCHEM_CACTVS_ROTATABLE_BOND>
5

>  <PUBCHEM_CACTVS_SUBSKEYS>
AAADceByIAAAAAAAAAAAAAAAAAAAAWAAAAAAAAAAAAAAAAABgAAAHgAAAAAACAyBlgAChBIIFECoAYVwVAQAiCArYCAAGAG1QAgGIBJEgCAPCCCkBADYSAOYSAAAAAAAAAAAAAAAAAAAAAAAAAAAAAAAAA==

>  <PUBCHEM_IUPAC_OPENEYE_NAME>
5-ethyl-4-methyl-2-pentyl-oxazole

>  <PUBCHEM_IUPAC_CAS_NAME>
5-ethyl-4-methyl-2-pentyloxazole

>  <PUBCHEM_IUPAC_NAME>
5-ethyl-4-methyl-2-pentyl-1,3-oxazole

>  <PUBCHEM_IUPAC_SYSTEMATIC_NAME>
5-ethyl-4-methyl-2-pentyl-1,3-oxazole

>  <PUBCHEM_IUPAC_TRADITIONAL_NAME>
2-amyl-5-ethyl-4-methyl-oxazole

>  <PUBCHEM_IUPAC_INCHI>
InChI=1S/C11H19NO/c1-4-6-7-8-11-12-9(3)10(5-2)13-11/h4-8H2,1-3H3

>  <PUBCHEM_IUPAC_INCHIKEY>
CJVUTPBIHCDRQD-UHFFFAOYSA-N

>  <PUBCHEM_XLOGP3_AA>
3.8

>  <PUBCHEM_EXACT_MASS>
181.147

>  <PUBCHEM_MOLECULAR_FORMULA>
C11H19NO

>  <PUBCHEM_MOLECULAR_WEIGHT>
181.279

>  <PUBCHEM_OPENEYE_CAN_SMILES>
CCCCCC1=NC(=C(O1)CC)C

>  <PUBCHEM_OPENEYE_ISO_SMILES>
CCCCCC1=NC(=C(O1)CC)C

>  <PUBCHEM_CACTVS_TPSA>
26

>  <PUBCHEM_MONOISOTOPIC_WEIGHT>
181.147

>  <PUBCHEM_TOTAL_CHARGE>
0

>  <PUBCHEM_HEAVY_ATOM_COUNT>
13

>  <PUBCHEM_ATOM_DEF_STEREO_COUNT>
0

>  <PUBCHEM_ATOM_UDEF_STEREO_COUNT>
0

>  <PUBCHEM_BOND_DEF_STEREO_COUNT>
0

>  <PUBCHEM_BOND_UDEF_STEREO_COUNT>
0

>  <PUBCHEM_ISOTOPIC_ATOM_COUNT>
0

>  <PUBCHEM_COMPONENT_COUNT>
1

>  <PUBCHEM_CACTVS_TAUTO_COUNT>
2

>  <PUBCHEM_COORDINATE_TYPE>
1
5
255

>  <PUBCHEM_BONDANNOTATIONS>
1  7  8
1  8  8
2  7  8
2  9  8
8  9  8

$$$$
