5273570
 OpenBabel06101807152D

 51 53  0  0  1  0  0  0  0  0999 V2000
    5.9019    0.1634    0.0000 O   0  0  0  0  0  0  0  0  0  0  0  0
    3.6418    1.4234    0.0000 O   0  0  0  0  0  0  0  0  0  0  0  0
    2.5896    0.5235    0.0000 O   0  0  0  0  0  0  0  0  0  0  0  0
    3.3608   -3.4244    0.0000 O   0  0  0  0  0  0  0  0  0  0  0  0
    8.0570    2.1144    0.0000 O   0  0  0  0  0  0  0  0  0  0  0  0
    5.0929   -4.4244    0.0000 O   0  0  0  0  0  0  0  0  0  0  0  0
    8.0570    4.1144    0.0000 O   0  0  0  0  0  0  0  0  0  0  0  0
    4.5929    1.1144    0.0000 C   0  0  1  0  0  0  0  0  0  0  0  0
    4.2839    0.1634    0.0000 C   0  0  1  0  0  0  0  0  0  0  0  0
    5.0929   -0.4244    0.0000 C   0  0  1  0  0  0  0  0  0  0  0  0
    5.5929    1.1144    0.0000 C   0  0  0  0  0  0  0  0  0  0  0  0
    4.5929    2.1144    0.0000 C   0  0  0  0  0  0  0  0  0  0  0  0
    3.3328   -0.1457    0.0000 C   0  0  0  0  0  0  0  0  0  0  0  0
    5.0929   -1.4244    0.0000 C   0  0  0  0  0  0  0  0  0  0  0  0
    5.4589    2.6144    0.0000 C   0  0  0  0  0  0  0  0  0  0  0  0
    4.2268   -1.9244    0.0000 C   0  0  0  0  0  0  0  0  0  0  0  0
    5.9589   -1.9244    0.0000 C   0  0  0  0  0  0  0  0  0  0  0  0
    6.3249    2.1144    0.0000 C   0  0  0  0  0  0  0  0  0  0  0  0
    5.4589    3.6144    0.0000 C   0  0  0  0  0  0  0  0  0  0  0  0
    4.2268   -2.9244    0.0000 C   0  0  0  0  0  0  0  0  0  0  0  0
    5.9589   -2.9244    0.0000 C   0  0  0  0  0  0  0  0  0  0  0  0
    5.0929   -3.4244    0.0000 C   0  0  0  0  0  0  0  0  0  0  0  0
    7.1910    2.6144    0.0000 C   0  0  0  0  0  0  0  0  0  0  0  0
    6.3249    4.1144    0.0000 C   0  0  0  0  0  0  0  0  0  0  0  0
    7.1910    3.6144    0.0000 C   0  0  0  0  0  0  0  0  0  0  0  0
    3.3608   -4.4244    0.0000 C   0  0  0  0  0  0  0  0  0  0  0  0
    8.9230    2.6144    0.0000 C   0  0  0  0  0  0  0  0  0  0  0  0
    3.8454    0.6018    0.0000 H   0  0  0  0  0  0  0  0  0  0  0  0
    5.6453   -0.7059    0.0000 H   0  0  0  0  0  0  0  0  0  0  0  0
    6.1993    1.2433    0.0000 H   0  0  0  0  0  0  0  0  0  0  0  0
    5.5281    1.7310    0.0000 H   0  0  0  0  0  0  0  0  0  0  0  0
    4.3808    2.6970    0.0000 H   0  0  0  0  0  0  0  0  0  0  0  0
    3.9823    2.0068    0.0000 H   0  0  0  0  0  0  0  0  0  0  0  0
    2.8442   -0.5274    0.0000 H   0  0  0  0  0  0  0  0  0  0  0  0
    3.6239   -0.6931    0.0000 H   0  0  0  0  0  0  0  0  0  0  0  0
    3.5129    2.0299    0.0000 H   0  0  0  0  0  0  0  0  0  0  0  0
    3.6899   -1.6144    0.0000 H   0  0  0  0  0  0  0  0  0  0  0  0
    6.4958   -1.6144    0.0000 H   0  0  0  0  0  0  0  0  0  0  0  0
    2.0000    0.3319    0.0000 H   0  0  0  0  0  0  0  0  0  0  0  0
    6.3249    1.4944    0.0000 H   0  0  0  0  0  0  0  0  0  0  0  0
    4.9220    3.9244    0.0000 H   0  0  0  0  0  0  0  0  0  0  0  0
    6.4958   -3.2344    0.0000 H   0  0  0  0  0  0  0  0  0  0  0  0
    6.3249    4.7344    0.0000 H   0  0  0  0  0  0  0  0  0  0  0  0
    5.6298   -4.7344    0.0000 H   0  0  0  0  0  0  0  0  0  0  0  0
    8.0570    4.7344    0.0000 H   0  0  0  0  0  0  0  0  0  0  0  0
    2.7408   -4.4244    0.0000 H   0  0  0  0  0  0  0  0  0  0  0  0
    3.3608   -5.0444    0.0000 H   0  0  0  0  0  0  0  0  0  0  0  0
    3.9808   -4.4244    0.0000 H   0  0  0  0  0  0  0  0  0  0  0  0
    9.2330    2.0775    0.0000 H   0  0  0  0  0  0  0  0  0  0  0  0
    9.4599    2.9244    0.0000 H   0  0  0  0  0  0  0  0  0  0  0  0
    8.6130    3.1514    0.0000 H   0  0  0  0  0  0  0  0  0  0  0  0
  1 10  1  0  0  0  0
  1 11  1  0  0  0  0
  2 36  1  0  0  0  0
  3 13  1  0  0  0  0
  3 39  1  0  0  0  0
  4 20  1  0  0  0  0
  4 26  1  0  0  0  0
  5 23  1  0  0  0  0
  5 27  1  0  0  0  0
  6 22  1  0  0  0  0
  6 44  1  0  0  0  0
  7 25  1  0  0  0  0
  7 45  1  0  0  0  0
  8  2  1  0  0  0  0
  8  9  1  1  0  0  0
  8 11  1  0  0  0  0
  8 12  1  0  0  0  0
  9 10  1  6  0  0  0
  9 13  1  0  0  0  0
  9 28  1  0  0  0  0
 10 14  1  0  0  0  0
 10 29  1  1  0  0  0
 11 30  1  0  0  0  0
 11 31  1  0  0  0  0
 12 15  1  0  0  0  0
 12 32  1  0  0  0  0
 12 33  1  0  0  0  0
 13 34  1  0  0  0  0
 13 35  1  0  0  0  0
 14 16  2  0  0  0  0
 14 17  1  0  0  0  0
 15 18  2  0  0  0  0
 15 19  1  0  0  0  0
 16 20  1  0  0  0  0
 16 37  1  0  0  0  0
 17 21  2  0  0  0  0
 17 38  1  0  0  0  0
 18 23  1  0  0  0  0
 18 40  1  0  0  0  0
 19 24  2  0  0  0  0
 19 41  1  0  0  0  0
 20 22  2  0  0  0  0
 21 22  1  0  0  0  0
 21 42  1  0  0  0  0
 23 25  2  0  0  0  0
 24 25  1  0  0  0  0
 24 43  1  0  0  0  0
 26 46  1  0  0  0  0
 26 47  1  0  0  0  0
 26 48  1  0  0  0  0
 27 49  1  0  0  0  0
 27 50  1  0  0  0  0
 27 51  1  0  0  0  0
M  END
>  <PUBCHEM_COMPOUND_CID>
5273570

>  <PUBCHEM_COMPOUND_CANONICALIZED>
1

>  <PUBCHEM_CACTVS_COMPLEXITY>
475

>  <PUBCHEM_CACTVS_HBOND_ACCEPTOR>
7

>  <PUBCHEM_CACTVS_HBOND_DONOR>
4

>  <PUBCHEM_CACTVS_ROTATABLE_BOND>
6

>  <PUBCHEM_CACTVS_SUBSKEYS>
AAADceB4OAAAAAAAAAAAAAAAAAAAASAAAAAwYAAAAAAAAAABQAAAGgAACAAADVSgmAIyBoAABgCAAiBCAAACCAAgIAAIiAAGiIgNNiKGMRqCcCMlwBELuAfA4PwOoAABAAAAQABAAAIAAACAAAAAAAAAAA==

>  <PUBCHEM_IUPAC_OPENEYE_NAME>
(3S,4R,5S)-5-(4-hydroxy-3-methoxy-phenyl)-3-[(4-hydroxy-3-methoxy-phenyl)methyl]-4-(hydroxymethyl)tetrahydrofuran-3-ol

>  <PUBCHEM_IUPAC_CAS_NAME>
(3S,4R,5S)-5-(4-hydroxy-3-methoxyphenyl)-3-[(4-hydroxy-3-methoxyphenyl)methyl]-4-(hydroxymethyl)-3-oxolanol

>  <PUBCHEM_IUPAC_NAME>
(3S,4R,5S)-5-(4-hydroxy-3-methoxyphenyl)-3-[(4-hydroxy-3-methoxyphenyl)methyl]-4-(hydroxymethyl)oxolan-3-ol

>  <PUBCHEM_IUPAC_SYSTEMATIC_NAME>
(3S,4R,5S)-4-(hydroxymethyl)-5-(3-methoxy-4-oxidanyl-phenyl)-3-[(3-methoxy-4-oxidanyl-phenyl)methyl]oxolan-3-ol

>  <PUBCHEM_IUPAC_TRADITIONAL_NAME>
(3S,4R,5S)-5-(4-hydroxy-3-methoxy-phenyl)-4-methylol-3-vanillyl-tetrahydrofuran-3-ol

>  <PUBCHEM_IUPAC_INCHI>
InChI=1S/C20H24O7/c1-25-17-7-12(3-5-15(17)22)9-20(24)11-27-19(14(20)10-21)13-4-6-16(23)18(8-13)26-2/h3-8,14,19,21-24H,9-11H2,1-2H3/t14-,19-,20-/m1/s1

>  <PUBCHEM_IUPAC_INCHIKEY>
BVHIKUCXNBQDEM-JSNMRZPZSA-N

>  <PUBCHEM_XLOGP3_AA>
1.9

>  <PUBCHEM_EXACT_MASS>
376.152

>  <PUBCHEM_MOLECULAR_FORMULA>
C20H24O7

>  <PUBCHEM_MOLECULAR_WEIGHT>
376.405

>  <PUBCHEM_OPENEYE_CAN_SMILES>
COC1=C(C=CC(=C1)CC2(COC(C2CO)C3=CC(=C(C=C3)O)OC)O)O

>  <PUBCHEM_OPENEYE_ISO_SMILES>
COC1=C(C=CC(=C1)C[C@]2(CO[C@@H]([C@H]2CO)C3=CC(=C(C=C3)O)OC)O)O

>  <PUBCHEM_CACTVS_TPSA>
109

>  <PUBCHEM_MONOISOTOPIC_WEIGHT>
376.152

>  <PUBCHEM_TOTAL_CHARGE>
0

>  <PUBCHEM_HEAVY_ATOM_COUNT>
27

>  <PUBCHEM_ATOM_DEF_STEREO_COUNT>
3

>  <PUBCHEM_ATOM_UDEF_STEREO_COUNT>
0

>  <PUBCHEM_BOND_DEF_STEREO_COUNT>
0

>  <PUBCHEM_BOND_UDEF_STEREO_COUNT>
0

>  <PUBCHEM_ISOTOPIC_ATOM_COUNT>
0

>  <PUBCHEM_COMPONENT_COUNT>
1

>  <PUBCHEM_CACTVS_TAUTO_COUNT>
8

>  <PUBCHEM_COORDINATE_TYPE>
1
5
255

>  <PUBCHEM_BONDANNOTATIONS>
10  14  6
14  16  8
14  17  8
15  18  8
15  19  8
16  20  8
17  21  8
18  23  8
19  24  8
8  2  6
20  22  8
21  22  8
23  25  8
24  25  8
9  13  5

$$$$
