5276616
 OpenBabel06101807152D

 26 27  0  0  0  0  0  0  0  0999 V2000
    2.8660   -0.8246    0.0000 O   0  0  0  0  0  0  0  0  0  0  0  0
    6.3465   -1.8592    0.0000 O   0  0  0  0  0  0  0  0  0  0  0  0
    4.5981   -1.8246    0.0000 O   0  0  0  0  0  0  0  0  0  0  0  0
    4.5981    2.1754    0.0000 O   0  0  0  0  0  0  0  0  0  0  0  0
    5.4641   -0.3246    0.0000 C   0  0  0  0  0  0  0  0  0  0  0  0
    5.4641    0.6754    0.0000 C   0  0  0  0  0  0  0  0  0  0  0  0
    6.3580    1.2100    0.0000 C   0  0  0  0  0  0  0  0  0  0  0  0
    7.2641    0.6962    0.0000 C   0  0  0  0  0  0  0  0  0  0  0  0
    6.3580   -0.8593    0.0000 C   0  0  0  0  0  0  0  0  0  0  0  0
    4.5981   -0.8246    0.0000 C   0  0  0  0  0  0  0  0  0  0  0  0
    4.5981    1.1754    0.0000 C   0  0  0  0  0  0  0  0  0  0  0  0
    7.2641   -0.3454    0.0000 C   0  0  0  0  0  0  0  0  0  0  0  0
    3.7320   -0.3246    0.0000 C   0  0  0  0  0  0  0  0  0  0  0  0
    3.7320    0.6754    0.0000 C   0  0  0  0  0  0  0  0  0  0  0  0
    8.1282    1.1995    0.0000 C   0  0  0  0  0  0  0  0  0  0  0  0
    2.0000   -0.3246    0.0000 C   0  0  0  0  0  0  0  0  0  0  0  0
    6.3509    1.8300    0.0000 H   0  0  0  0  0  0  0  0  0  0  0  0
    7.7998   -0.6575    0.0000 H   0  0  0  0  0  0  0  0  0  0  0  0
    3.1951    0.9854    0.0000 H   0  0  0  0  0  0  0  0  0  0  0  0
    8.4403    0.6638    0.0000 H   0  0  0  0  0  0  0  0  0  0  0  0
    8.6639    1.5116    0.0000 H   0  0  0  0  0  0  0  0  0  0  0  0
    7.8161    1.7353    0.0000 H   0  0  0  0  0  0  0  0  0  0  0  0
    6.8798   -2.1754    0.0000 H   0  0  0  0  0  0  0  0  0  0  0  0
    2.3100    0.2123    0.0000 H   0  0  0  0  0  0  0  0  0  0  0  0
    1.4631   -0.0146    0.0000 H   0  0  0  0  0  0  0  0  0  0  0  0
    1.6900   -0.8615    0.0000 H   0  0  0  0  0  0  0  0  0  0  0  0
  1 13  1  0  0  0  0
  1 16  1  0  0  0  0
  2  9  1  0  0  0  0
  2 23  1  0  0  0  0
  3 10  2  0  0  0  0
  4 11  2  0  0  0  0
  5  6  2  0  0  0  0
  5  9  1  0  0  0  0
  5 10  1  0  0  0  0
  6  7  1  0  0  0  0
  6 11  1  0  0  0  0
  7  8  2  0  0  0  0
  7 17  1  0  0  0  0
  8 12  1  0  0  0  0
  8 15  1  0  0  0  0
  9 12  2  0  0  0  0
 10 13  1  0  0  0  0
 11 14  1  0  0  0  0
 12 18  1  0  0  0  0
 13 14  2  0  0  0  0
 14 19  1  0  0  0  0
 15 20  1  0  0  0  0
 15 21  1  0  0  0  0
 15 22  1  0  0  0  0
 16 24  1  0  0  0  0
 16 25  1  0  0  0  0
 16 26  1  0  0  0  0
M  END
>  <PUBCHEM_COMPOUND_CID>
5276616

>  <PUBCHEM_COMPOUND_CANONICALIZED>
1

>  <PUBCHEM_CACTVS_COMPLEXITY>
358

>  <PUBCHEM_CACTVS_HBOND_ACCEPTOR>
4

>  <PUBCHEM_CACTVS_HBOND_DONOR>
1

>  <PUBCHEM_CACTVS_ROTATABLE_BOND>
1

>  <PUBCHEM_CACTVS_SUBSKEYS>
AAADccBwOAAAAAAAAAAAAAAAAAAAAAAAAAAwQAAAAAAAAACBAAAAGgAACAAADASAmAIyBoAABgCIAqBSAAICCAAkIAAAiAFGCMgIJjaCFRaAcUAk4BEImYfLzPCOwAADAAAYAACAAAYAADAAAAAAAAAAAA==

>  <PUBCHEM_IUPAC_OPENEYE_NAME>
8-hydroxy-2-methoxy-6-methyl-naphthalene-1,4-dione

>  <PUBCHEM_IUPAC_CAS_NAME>
8-hydroxy-2-methoxy-6-methylnaphthalene-1,4-dione

>  <PUBCHEM_IUPAC_NAME>
8-hydroxy-2-methoxy-6-methylnaphthalene-1,4-dione

>  <PUBCHEM_IUPAC_SYSTEMATIC_NAME>
2-methoxy-6-methyl-8-oxidanyl-naphthalene-1,4-dione

>  <PUBCHEM_IUPAC_TRADITIONAL_NAME>
8-hydroxy-2-methoxy-6-methyl-1,4-naphthoquinone

>  <PUBCHEM_IUPAC_INCHI>
InChI=1S/C12H10O4/c1-6-3-7-8(13)5-10(16-2)12(15)11(7)9(14)4-6/h3-5,14H,1-2H3

>  <PUBCHEM_IUPAC_INCHIKEY>
KDBWUCIHUALFON-UHFFFAOYSA-N

>  <PUBCHEM_XLOGP3_AA>
2.2

>  <PUBCHEM_EXACT_MASS>
218.058

>  <PUBCHEM_MOLECULAR_FORMULA>
C12H10O4

>  <PUBCHEM_MOLECULAR_WEIGHT>
218.208

>  <PUBCHEM_OPENEYE_CAN_SMILES>
CC1=CC(=C2C(=C1)C(=O)C=C(C2=O)OC)O

>  <PUBCHEM_OPENEYE_ISO_SMILES>
CC1=CC(=C2C(=C1)C(=O)C=C(C2=O)OC)O

>  <PUBCHEM_CACTVS_TPSA>
63.6

>  <PUBCHEM_MONOISOTOPIC_WEIGHT>
218.058

>  <PUBCHEM_TOTAL_CHARGE>
0

>  <PUBCHEM_HEAVY_ATOM_COUNT>
16

>  <PUBCHEM_ATOM_DEF_STEREO_COUNT>
0

>  <PUBCHEM_ATOM_UDEF_STEREO_COUNT>
0

>  <PUBCHEM_BOND_DEF_STEREO_COUNT>
0

>  <PUBCHEM_BOND_UDEF_STEREO_COUNT>
0

>  <PUBCHEM_ISOTOPIC_ATOM_COUNT>
0

>  <PUBCHEM_COMPONENT_COUNT>
1

>  <PUBCHEM_CACTVS_TAUTO_COUNT>
12

>  <PUBCHEM_COORDINATE_TYPE>
1
5
255

>  <PUBCHEM_BONDANNOTATIONS>
5  6  8
5  9  8
6  7  8
7  8  8
8  12  8
9  12  8

$$$$
