5280356
 OpenBabel06101807152D

100103  0  0  1  0  0  0  0  0999 V2000
    5.8555    5.9542    0.0000 S   0  0  0  0  0  0  0  0  0  0  0  0
   19.0796   -3.2261    0.0000 P   0  0  0  0  0  0  0  0  0  0  0  0
   15.8294   -2.3837    0.0000 P   0  0  3  0  0  0  0  0  0  0  0  0
   14.5442   -1.2225    0.0000 P   0  0  3  0  0  0  0  0  0  0  0  0
   16.8327   -5.3045    0.0000 O   0  0  0  0  0  0  0  0  0  0  0  0
   19.1824   -4.2208    0.0000 O   0  0  0  0  0  0  0  0  0  0  0  0
   19.1787   -6.3964    0.0000 O   0  0  0  0  0  0  0  0  0  0  0  0
   16.1367   -3.3353    0.0000 O   0  0  0  0  0  0  0  0  0  0  0  0
   18.9768   -2.2314    0.0000 O   0  0  0  0  0  0  0  0  0  0  0  0
   20.0743   -3.1233    0.0000 O   0  0  0  0  0  0  0  0  0  0  0  0
   15.5220   -1.4321    0.0000 O   0  0  0  0  0  0  0  0  0  0  0  0
   18.0849   -3.3289    0.0000 O   0  0  0  0  0  0  0  0  0  0  0  0
   13.5664   -1.0129    0.0000 O   0  0  0  0  0  0  0  0  0  0  0  0
   14.8778   -2.6911    0.0000 O   0  0  0  0  0  0  0  0  0  0  0  0
   10.6331   -0.3841    0.0000 O   0  0  0  0  0  0  0  0  0  0  0  0
   16.7809   -2.0764    0.0000 O   0  0  0  0  0  0  0  0  0  0  0  0
   14.7538   -0.2448    0.0000 O   0  0  0  0  0  0  0  0  0  0  0  0
   14.3346   -2.2003    0.0000 O   0  0  0  0  0  0  0  0  0  0  0  0
   11.6665    2.0514    0.0000 O   0  0  0  0  0  0  0  0  0  0  0  0
    9.0962    4.3738    0.0000 O   0  0  0  0  0  0  0  0  0  0  0  0
    4.2073    5.4218    0.0000 O   0  0  0  0  0  0  0  0  0  0  0  0
   17.1084   -7.0651    0.0000 N   0  0  0  0  0  0  0  0  0  0  0  0
   17.1084   -8.6745    0.0000 N   0  0  0  0  0  0  0  0  0  0  0  0
   15.2962   -6.8698    0.0000 N   0  0  0  0  0  0  0  0  0  0  0  0
   14.4302   -8.3698    0.0000 N   0  0  0  0  0  0  0  0  0  0  0  0
   15.2962   -9.8698    0.0000 N   0  0  0  0  0  0  0  0  0  0  0  0
   10.0183    1.5191    0.0000 N   0  0  0  0  0  0  0  0  0  0  0  0
    7.4480    3.8414    0.0000 N   0  0  0  0  0  0  0  0  0  0  0  0
   18.3724   -4.8072    0.0000 C   0  0  1  0  0  0  0  0  0  0  0  0
   18.3707   -5.8072    0.0000 C   0  0  2  0  0  0  0  0  0  0  0  0
   17.4219   -4.4965    0.0000 C   0  0  1  0  0  0  0  0  0  0  0  0
   17.4191   -6.1146    0.0000 C   0  0  1  0  0  0  0  0  0  0  0  0
   17.1145   -3.5449    0.0000 C   0  0  0  0  0  0  0  0  0  0  0  0
   16.1622   -7.3698    0.0000 C   0  0  0  0  0  0  0  0  0  0  0  0
   17.6920   -7.8698    0.0000 C   0  0  0  0  0  0  0  0  0  0  0  0
   16.1622   -8.3698    0.0000 C   0  0  0  0  0  0  0  0  0  0  0  0
   12.2813    0.1483    0.0000 C   0  0  0  0  0  0  0  0  0  0  0  0
   11.3035    0.3579    0.0000 C   0  0  3  0  0  0  0  0  0  0  0  0
   13.2590   -0.0613    0.0000 C   0  0  0  0  0  0  0  0  0  0  0  0
   15.2962   -8.8698    0.0000 C   0  0  0  0  0  0  0  0  0  0  0  0
   12.4909    1.1260    0.0000 C   0  0  0  0  0  0  0  0  0  0  0  0
   12.0717   -0.8295    0.0000 C   0  0  0  0  0  0  0  0  0  0  0  0
   14.4302   -7.3698    0.0000 C   0  0  0  0  0  0  0  0  0  0  0  0
   10.9961    1.3095    0.0000 C   0  0  0  0  0  0  0  0  0  0  0  0
    9.7109    2.4706    0.0000 C   0  0  0  0  0  0  0  0  0  0  0  0
    8.7332    2.6802    0.0000 C   0  0  0  0  0  0  0  0  0  0  0  0
    8.4258    3.6318    0.0000 C   0  0  0  0  0  0  0  0  0  0  0  0
    7.1406    4.7930    0.0000 C   0  0  0  0  0  0  0  0  0  0  0  0
    6.1628    5.0026    0.0000 C   0  0  0  0  0  0  0  0  0  0  0  0
    4.8777    6.1638    0.0000 C   0  0  0  0  0  0  0  0  0  0  0  0
    4.5703    7.1154    0.0000 C   0  0  0  0  0  0  0  0  0  0  0  0
    3.5925    7.3250    0.0000 C   0  0  0  0  0  0  0  0  0  0  0  0
    3.2852    8.2766    0.0000 C   0  0  0  0  0  0  0  0  0  0  0  0
    3.9556    9.0186    0.0000 C   0  0  0  0  0  0  0  0  0  0  0  0
    2.3074    8.4862    0.0000 C   0  0  0  0  0  0  0  0  0  0  0  0
    3.6482    9.9702    0.0000 C   0  0  0  0  0  0  0  0  0  0  0  0
    2.0000    9.4378    0.0000 C   0  0  0  0  0  0  0  0  0  0  0  0
    2.6704   10.1798    0.0000 C   0  0  0  0  0  0  0  0  0  0  0  0
   18.9243   -5.0896    0.0000 H   0  0  0  0  0  0  0  0  0  0  0  0
   18.9236   -5.5267    0.0000 H   0  0  0  0  0  0  0  0  0  0  0  0
   16.8097   -4.3985    0.0000 H   0  0  0  0  0  0  0  0  0  0  0  0
   16.8066   -6.2105    0.0000 H   0  0  0  0  0  0  0  0  0  0  0  0
   17.7286   -3.4597    0.0000 H   0  0  0  0  0  0  0  0  0  0  0  0
   17.1372   -2.9253    0.0000 H   0  0  0  0  0  0  0  0  0  0  0  0
   19.7455   -6.1452    0.0000 H   0  0  0  0  0  0  0  0  0  0  0  0
   18.3120   -7.8698    0.0000 H   0  0  0  0  0  0  0  0  0  0  0  0
   11.5647   -0.4510    0.0000 H   0  0  0  0  0  0  0  0  0  0  0  0
   13.8732    0.0239    0.0000 H   0  0  0  0  0  0  0  0  0  0  0  0
   13.2818    0.5582    0.0000 H   0  0  0  0  0  0  0  0  0  0  0  0
   11.4654   -0.6996    0.0000 H   0  0  0  0  0  0  0  0  0  0  0  0
   11.9417   -1.4358    0.0000 H   0  0  0  0  0  0  0  0  0  0  0  0
   12.6779   -0.9595    0.0000 H   0  0  0  0  0  0  0  0  0  0  0  0
   13.0971    0.9961    0.0000 H   0  0  0  0  0  0  0  0  0  0  0  0
   12.6208    1.7323    0.0000 H   0  0  0  0  0  0  0  0  0  0  0  0
   11.8846    1.2560    0.0000 H   0  0  0  0  0  0  0  0  0  0  0  0
   19.4790   -1.8678    0.0000 H   0  0  0  0  0  0  0  0  0  0  0  0
   20.4379   -3.6255    0.0000 H   0  0  0  0  0  0  0  0  0  0  0  0
   13.8932   -7.0598    0.0000 H   0  0  0  0  0  0  0  0  0  0  0  0
   14.7478   -3.2973    0.0000 H   0  0  0  0  0  0  0  0  0  0  0  0
   14.7592  -10.1798    0.0000 H   0  0  0  0  0  0  0  0  0  0  0  0
   15.8331  -10.1798    0.0000 H   0  0  0  0  0  0  0  0  0  0  0  0
   10.0268   -0.2542    0.0000 H   0  0  0  0  0  0  0  0  0  0  0  0
    9.6027    1.0590    0.0000 H   0  0  0  0  0  0  0  0  0  0  0  0
   10.3251    2.5559    0.0000 H   0  0  0  0  0  0  0  0  0  0  0  0
    9.7337    3.0902    0.0000 H   0  0  0  0  0  0  0  0  0  0  0  0
   15.3438   -0.0542    0.0000 H   0  0  0  0  0  0  0  0  0  0  0  0
    8.1190    2.5950    0.0000 H   0  0  0  0  0  0  0  0  0  0  0  0
    8.7104    2.0607    0.0000 H   0  0  0  0  0  0  0  0  0  0  0  0
    7.0323    3.3814    0.0000 H   0  0  0  0  0  0  0  0  0  0  0  0
    7.7547    4.8783    0.0000 H   0  0  0  0  0  0  0  0  0  0  0  0
    7.1633    5.4126    0.0000 H   0  0  0  0  0  0  0  0  0  0  0  0
    5.5487    4.9174    0.0000 H   0  0  0  0  0  0  0  0  0  0  0  0
    6.1401    4.3831    0.0000 H   0  0  0  0  0  0  0  0  0  0  0  0
    4.9860    7.5755    0.0000 H   0  0  0  0  0  0  0  0  0  0  0  0
    3.1769    6.8650    0.0000 H   0  0  0  0  0  0  0  0  0  0  0  0
    4.5618    8.8886    0.0000 H   0  0  0  0  0  0  0  0  0  0  0  0
    1.8917    8.0262    0.0000 H   0  0  0  0  0  0  0  0  0  0  0  0
    4.0639   10.4302    0.0000 H   0  0  0  0  0  0  0  0  0  0  0  0
    1.3938    9.5678    0.0000 H   0  0  0  0  0  0  0  0  0  0  0  0
    2.4798   10.7698    0.0000 H   0  0  0  0  0  0  0  0  0  0  0  0
  1 49  1  0  0  0  0
  1 50  1  0  0  0  0
  2  6  1  0  0  0  0
  2  9  1  0  0  0  0
  2 10  1  0  0  0  0
  2 12  2  0  0  0  0
  3  8  1  0  0  0  0
  3 11  1  0  0  0  0
  3 14  1  0  0  0  0
  3 16  2  0  0  0  0
  4 11  1  0  0  0  0
  4 13  1  0  0  0  0
  4 17  1  0  0  0  0
  4 18  2  0  0  0  0
  5 31  1  0  0  0  0
  5 32  1  0  0  0  0
  7 65  1  0  0  0  0
  8 33  1  0  0  0  0
  9 76  1  0  0  0  0
 10 77  1  0  0  0  0
 13 39  1  0  0  0  0
 14 79  1  0  0  0  0
 15 38  1  0  0  0  0
 15 82  1  0  0  0  0
 17 86  1  0  0  0  0
 19 44  2  0  0  0  0
 20 47  2  0  0  0  0
 21 50  2  0  0  0  0
 22 34  1  0  0  0  0
 22 35  1  0  0  0  0
 23 35  2  0  0  0  0
 23 36  1  0  0  0  0
 24 34  1  0  0  0  0
 24 43  2  0  0  0  0
 25 40  2  0  0  0  0
 25 43  1  0  0  0  0
 26 40  1  0  0  0  0
 26 80  1  0  0  0  0
 26 81  1  0  0  0  0
 27 44  1  0  0  0  0
 27 45  1  0  0  0  0
 27 83  1  0  0  0  0
 28 47  1  0  0  0  0
 28 48  1  0  0  0  0
 28 89  1  0  0  0  0
 29  6  1  0  0  0  0
 29 30  1  1  0  0  0
 29 59  1  0  0  0  0
 30  7  1  0  0  0  0
 30 32  1  6  0  0  0
 30 60  1  0  0  0  0
 31 29  1  1  0  0  0
 31 33  1  0  0  0  0
 31 61  1  0  0  0  0
 32 22  1  0  0  0  0
 32 62  1  1  0  0  0
 33 63  1  0  0  0  0
 33 64  1  0  0  0  0
 34 36  2  0  0  0  0
 35 66  1  0  0  0  0
 36 40  1  0  0  0  0
 37 38  1  0  0  0  0
 37 39  1  0  0  0  0
 37 41  1  0  0  0  0
 37 42  1  0  0  0  0
 38 44  1  0  0  0  0
 38 67  1  0  0  0  0
 39 68  1  0  0  0  0
 39 69  1  0  0  0  0
 41 73  1  0  0  0  0
 41 74  1  0  0  0  0
 41 75  1  0  0  0  0
 42 70  1  0  0  0  0
 42 71  1  0  0  0  0
 42 72  1  0  0  0  0
 43 78  1  0  0  0  0
 45 46  1  0  0  0  0
 45 84  1  0  0  0  0
 45 85  1  0  0  0  0
 46 47  1  0  0  0  0
 46 87  1  0  0  0  0
 46 88  1  0  0  0  0
 48 49  1  0  0  0  0
 48 90  1  0  0  0  0
 48 91  1  0  0  0  0
 49 92  1  0  0  0  0
 49 93  1  0  0  0  0
 50 51  1  0  0  0  0
 51 52  2  0  0  0  0
 51 94  1  0  0  0  0
 52 53  1  0  0  0  0
 52 95  1  0  0  0  0
 53 54  2  0  0  0  0
 53 55  1  0  0  0  0
 54 56  1  0  0  0  0
 54 96  1  0  0  0  0
 55 57  2  0  0  0  0
 55 97  1  0  0  0  0
 56 58  2  0  0  0  0
 56 98  1  0  0  0  0
 57 58  1  0  0  0  0
 57 99  1  0  0  0  0
 58100  1  0  0  0  0
M  END
>  <PUBCHEM_COMPOUND_CID>
5280356

>  <PUBCHEM_COMPOUND_CANONICALIZED>
1

>  <PUBCHEM_CACTVS_COMPLEXITY>
1590

>  <PUBCHEM_CACTVS_HBOND_ACCEPTOR>
22

>  <PUBCHEM_CACTVS_HBOND_DONOR>
9

>  <PUBCHEM_CACTVS_ROTATABLE_BOND>
22

>  <PUBCHEM_CACTVS_SUBSKEYS>
AAADcfB7vgNAAAAAAAAAAAAAAAAAAWJAAAA8QAAAAAAAAFgB/AAAHgQQCCAADhzl3wa38L/MFxioQydzdIKCgC0xELAJ2KFoVNiLeDrA2VCeZAgvlgL7iafysAIPAAAAAAAAAAAAAAAAAAAAAAAAAAAAAA==

>  <PUBCHEM_IUPAC_OPENEYE_NAME>
S-[2-[3-[[4-[[[(2R,3S,4R,5R)-5-(6-aminopurin-9-yl)-4-hydroxy-3-phosphonooxy-tetrahydrofuran-2-yl]methoxy-hydroxy-phosphoryl]oxy-hydroxy-phosphoryl]oxy-2-hydroxy-3,3-dimethyl-butanoyl]amino]propanoylamino]ethyl] (E)-3-phenylprop-2-enethioate

>  <PUBCHEM_IUPAC_CAS_NAME>
(E)-3-phenyl-2-propenethioic acid S-[2-[[3-[[4-[[[(2R,3S,4R,5R)-5-(6-aminopurin-9-yl)-4-hydroxy-3-phosphonooxy-2-oxolanyl]methoxy-hydroxyphosphoryl]oxy-hydroxyphosphoryl]oxy-2-hydroxy-3,3-dimethyl-1-oxobutyl]amino]-1-oxopropyl]amino]ethyl] ester

>  <PUBCHEM_IUPAC_NAME>
S-[2-[3-[[4-[[[(2R,3S,4R,5R)-5-(6-aminopurin-9-yl)-4-hydroxy-3-phosphonooxyoxolan-2-yl]methoxy-hydroxyphosphoryl]oxy-hydroxyphosphoryl]oxy-2-hydroxy-3,3-dimethylbutanoyl]amino]propanoylamino]ethyl] (E)-3-phenylprop-2-enethioate

>  <PUBCHEM_IUPAC_SYSTEMATIC_NAME>
S-[2-[3-[[4-[[[(2R,3S,4R,5R)-5-(6-aminopurin-9-yl)-4-oxidanyl-3-phosphonooxy-oxolan-2-yl]methoxy-oxidanyl-phosphoryl]oxy-oxidanyl-phosphoryl]oxy-3,3-dimethyl-2-oxidanyl-butanoyl]amino]propanoylamino]ethyl] (E)-3-phenylprop-2-enethioate

>  <PUBCHEM_IUPAC_TRADITIONAL_NAME>
(E)-3-phenylprop-2-enethioic acid S-[2-[3-[[4-[[[(2R,3S,4R,5R)-5-adenin-9-yl-4-hydroxy-3-phosphonooxy-tetrahydrofuran-2-yl]methoxy-hydroxy-phosphoryl]oxy-hydroxy-phosphoryl]oxy-2-hydroxy-3,3-dimethyl-butanoyl]amino]propanoylamino]ethyl] ester

>  <PUBCHEM_IUPAC_INCHI>
InChI=1S/C30H42N7O17P3S/c1-30(2,25(41)28(42)33-11-10-20(38)32-12-13-58-21(39)9-8-18-6-4-3-5-7-18)15-51-57(48,49)54-56(46,47)50-14-19-24(53-55(43,44)45)23(40)29(52-19)37-17-36-22-26(31)34-16-35-27(22)37/h3-9,16-17,19,23-25,29,40-41H,10-15H2,1-2H3,(H,32,38)(H,33,42)(H,46,47)(H,48,49)(H2,31,34,35)(H2,43,44,45)/b9-8+/t19-,23-,24-,25?,29-/m1/s1

>  <PUBCHEM_IUPAC_INCHIKEY>
JVNVHNHITFVWIX-WAFZYBDGSA-N

>  <PUBCHEM_XLOGP3_AA>
-3.6

>  <PUBCHEM_EXACT_MASS>
897.157

>  <PUBCHEM_MOLECULAR_FORMULA>
C30H42N7O17P3S

>  <PUBCHEM_MOLECULAR_WEIGHT>
897.679

>  <PUBCHEM_OPENEYE_CAN_SMILES>
CC(C)(COP(=O)(O)OP(=O)(O)OCC1C(C(C(O1)N2C=NC3=C2N=CN=C3N)O)OP(=O)(O)O)C(C(=O)NCCC(=O)NCCSC(=O)C=CC4=CC=CC=C4)O

>  <PUBCHEM_OPENEYE_ISO_SMILES>
CC(C)(COP(=O)(O)OP(=O)(O)OC[C@@H]1[C@H]([C@H]([C@@H](O1)N2C=NC3=C2N=CN=C3N)O)OP(=O)(O)O)C(C(=O)NCCC(=O)NCCSC(=O)/C=C/C4=CC=CC=C4)O

>  <PUBCHEM_CACTVS_TPSA>
389

>  <PUBCHEM_MONOISOTOPIC_WEIGHT>
897.157

>  <PUBCHEM_TOTAL_CHARGE>
0

>  <PUBCHEM_HEAVY_ATOM_COUNT>
58

>  <PUBCHEM_ATOM_DEF_STEREO_COUNT>
4

>  <PUBCHEM_ATOM_UDEF_STEREO_COUNT>
1

>  <PUBCHEM_BOND_DEF_STEREO_COUNT>
1

>  <PUBCHEM_BOND_UDEF_STEREO_COUNT>
0

>  <PUBCHEM_ISOTOPIC_ATOM_COUNT>
0

>  <PUBCHEM_COMPONENT_COUNT>
1

>  <PUBCHEM_CACTVS_TAUTO_COUNT>
12

>  <PUBCHEM_COORDINATE_TYPE>
1
5
255

>  <PUBCHEM_BONDANNOTATIONS>
32  22  6
22  34  8
22  35  8
23  35  8
23  36  8
24  34  8
24  43  8
25  40  8
25  43  8
31  33  6
34  36  8
36  40  8
38  67  3
53  54  8
53  55  8
54  56  8
55  57  8
56  58  8
57  58  8
29  6  5
30  7  5

$$$$
