5280809
 OpenBabel06101807152D

 22 23  0  0  0  0  0  0  0  0999 V2000
    6.0682    1.8450    0.0000 O   0  0  0  0  0  0  0  0  0  0  0  0
    2.5381    0.8692    0.0000 O   0  0  0  0  0  0  0  0  0  0  0  0
    8.6663   -0.6550    0.0000 O   0  0  0  0  0  0  0  0  0  0  0  0
    7.8003   -2.1550    0.0000 O   0  0  0  0  0  0  0  0  0  0  0  0
    6.0682   -1.1550    0.0000 N   0  0  0  0  0  0  0  0  0  0  0  0
    5.2022    0.3450    0.0000 C   0  0  0  0  0  0  0  0  0  0  0  0
    5.2022   -0.6550    0.0000 C   0  0  0  0  0  0  0  0  0  0  0  0
    6.0682    0.8450    0.0000 C   0  0  0  0  0  0  0  0  0  0  0  0
    4.3083    0.8797    0.0000 C   0  0  0  0  0  0  0  0  0  0  0  0
    4.3083   -1.1897    0.0000 C   0  0  0  0  0  0  0  0  0  0  0  0
    6.9343    0.3450    0.0000 C   0  0  0  0  0  0  0  0  0  0  0  0
    6.9343   -0.6550    0.0000 C   0  0  0  0  0  0  0  0  0  0  0  0
    3.4022    0.3658    0.0000 C   0  0  0  0  0  0  0  0  0  0  0  0
    3.4022   -0.6758    0.0000 C   0  0  0  0  0  0  0  0  0  0  0  0
    7.8003   -1.1550    0.0000 C   0  0  0  0  0  0  0  0  0  0  0  0
    4.3154    1.4996    0.0000 H   0  0  0  0  0  0  0  0  0  0  0  0
    4.3154   -1.8096    0.0000 H   0  0  0  0  0  0  0  0  0  0  0  0
    7.4712    0.6550    0.0000 H   0  0  0  0  0  0  0  0  0  0  0  0
    2.8665   -0.9879    0.0000 H   0  0  0  0  0  0  0  0  0  0  0  0
    6.6052    2.1550    0.0000 H   0  0  0  0  0  0  0  0  0  0  0  0
    2.0000    0.5612    0.0000 H   0  0  0  0  0  0  0  0  0  0  0  0
    9.2033   -0.9650    0.0000 H   0  0  0  0  0  0  0  0  0  0  0  0
  1  8  1  0  0  0  0
  1 20  1  0  0  0  0
  2 13  1  0  0  0  0
  2 21  1  0  0  0  0
  3 15  1  0  0  0  0
  3 22  1  0  0  0  0
  4 15  2  0  0  0  0
  5  7  1  0  0  0  0
  5 12  2  0  0  0  0
  6  7  2  0  0  0  0
  6  8  1  0  0  0  0
  6  9  1  0  0  0  0
  7 10  1  0  0  0  0
  8 11  2  0  0  0  0
  9 13  2  0  0  0  0
  9 16  1  0  0  0  0
 10 14  2  0  0  0  0
 10 17  1  0  0  0  0
 11 12  1  0  0  0  0
 11 18  1  0  0  0  0
 12 15  1  0  0  0  0
 13 14  1  0  0  0  0
 14 19  1  0  0  0  0
M  END
>  <PUBCHEM_COMPOUND_CID>
5280809

>  <PUBCHEM_COMPOUND_CANONICALIZED>
1

>  <PUBCHEM_CACTVS_COMPLEXITY>
258

>  <PUBCHEM_CACTVS_HBOND_ACCEPTOR>
5

>  <PUBCHEM_CACTVS_HBOND_DONOR>
3

>  <PUBCHEM_CACTVS_ROTATABLE_BOND>
1

>  <PUBCHEM_CACTVS_SUBSKEYS>
AAADcYByOAAAAAAAAAAAAAAAAAAAAAAAAAA8QAAAAAAAAACx8AAAHgAACAAADAyBngAwzvIIEgCoAyTyTASCgCAnIiAImCG2bNgKJvLClbOEcQhmwBnY2Yf6yLCOAEABAAACAAAAgAIAAAQAAAAAAAAAAA==

>  <PUBCHEM_IUPAC_OPENEYE_NAME>
4,6-dihydroxyquinoline-2-carboxylic acid

>  <PUBCHEM_IUPAC_CAS_NAME>
4,6-dihydroxy-2-quinolinecarboxylic acid

>  <PUBCHEM_IUPAC_NAME>
4,6-dihydroxyquinoline-2-carboxylic acid

>  <PUBCHEM_IUPAC_SYSTEMATIC_NAME>
4,6-bis(oxidanyl)quinoline-2-carboxylic acid

>  <PUBCHEM_IUPAC_TRADITIONAL_NAME>
4,6-dihydroxyquinaldic acid

>  <PUBCHEM_IUPAC_INCHI>
InChI=1S/C10H7NO4/c12-5-1-2-7-6(3-5)9(13)4-8(11-7)10(14)15/h1-4,12H,(H,11,13)(H,14,15)

>  <PUBCHEM_IUPAC_INCHIKEY>
CQUUHDQRJWXDPY-UHFFFAOYSA-N

>  <PUBCHEM_XLOGP3_AA>
1.3

>  <PUBCHEM_EXACT_MASS>
205.038

>  <PUBCHEM_MOLECULAR_FORMULA>
C10H7NO4

>  <PUBCHEM_MOLECULAR_WEIGHT>
205.169

>  <PUBCHEM_OPENEYE_CAN_SMILES>
C1=CC2=C(C=C1O)C(=CC(=N2)C(=O)O)O

>  <PUBCHEM_OPENEYE_ISO_SMILES>
C1=CC2=C(C=C1O)C(=CC(=N2)C(=O)O)O

>  <PUBCHEM_CACTVS_TPSA>
90.6

>  <PUBCHEM_MONOISOTOPIC_WEIGHT>
205.038

>  <PUBCHEM_TOTAL_CHARGE>
0

>  <PUBCHEM_HEAVY_ATOM_COUNT>
15

>  <PUBCHEM_ATOM_DEF_STEREO_COUNT>
0

>  <PUBCHEM_ATOM_UDEF_STEREO_COUNT>
0

>  <PUBCHEM_BOND_DEF_STEREO_COUNT>
0

>  <PUBCHEM_BOND_UDEF_STEREO_COUNT>
0

>  <PUBCHEM_ISOTOPIC_ATOM_COUNT>
0

>  <PUBCHEM_COMPONENT_COUNT>
1

>  <PUBCHEM_CACTVS_TAUTO_COUNT>
13

>  <PUBCHEM_COORDINATE_TYPE>
1
5
255

>  <PUBCHEM_BONDANNOTATIONS>
10  14  8
11  12  8
13  14  8
5  12  8
5  7  8
6  7  8
6  8  8
6  9  8
7  10  8
8  11  8
9  13  8

$$$$
