5281846
 OpenBabel06101807152D

 29 31  0  0  0  0  0  0  0  0999 V2000
    7.8805   -0.7824    0.0000 O   0  0  0  0  0  0  0  0  0  0  0  0
    6.0683    2.0223    0.0000 O   0  0  0  0  0  0  0  0  0  0  0  0
    4.3198   -2.0123    0.0000 O   0  0  0  0  0  0  0  0  0  0  0  0
    2.5381   -1.0019    0.0000 O   0  0  0  0  0  0  0  0  0  0  0  0
    6.0683   -0.9777    0.0000 N   0  0  0  0  0  0  0  0  0  0  0  0
    5.2022    0.5223    0.0000 C   0  0  0  0  0  0  0  0  0  0  0  0
    5.2022   -0.4777    0.0000 C   0  0  0  0  0  0  0  0  0  0  0  0
    6.0683    1.0223    0.0000 C   0  0  0  0  0  0  0  0  0  0  0  0
    6.9343    0.5223    0.0000 C   0  0  0  0  0  0  0  0  0  0  0  0
    6.9343   -0.4777    0.0000 C   0  0  0  0  0  0  0  0  0  0  0  0
    4.3083   -1.0124    0.0000 C   0  0  0  0  0  0  0  0  0  0  0  0
    4.3083    1.0569    0.0000 C   0  0  0  0  0  0  0  0  0  0  0  0
    3.4022   -0.4985    0.0000 C   0  0  0  0  0  0  0  0  0  0  0  0
    7.8805    0.8270    0.0000 C   0  0  0  0  0  0  0  0  0  0  0  0
    3.4022    0.5431    0.0000 C   0  0  0  0  0  0  0  0  0  0  0  0
    8.4641    0.0223    0.0000 C   0  0  0  0  0  0  0  0  0  0  0  0
    6.9343    2.5223    0.0000 C   0  0  0  0  0  0  0  0  0  0  0  0
    3.4597   -2.5223    0.0000 C   0  0  0  0  0  0  0  0  0  0  0  0
    4.3155    1.6769    0.0000 H   0  0  0  0  0  0  0  0  0  0  0  0
    8.0731    1.4163    0.0000 H   0  0  0  0  0  0  0  0  0  0  0  0
    2.8665    0.8552    0.0000 H   0  0  0  0  0  0  0  0  0  0  0  0
    9.0841    0.0223    0.0000 H   0  0  0  0  0  0  0  0  0  0  0  0
    7.2443    1.9854    0.0000 H   0  0  0  0  0  0  0  0  0  0  0  0
    7.4712    2.8323    0.0000 H   0  0  0  0  0  0  0  0  0  0  0  0
    6.6243    3.0592    0.0000 H   0  0  0  0  0  0  0  0  0  0  0  0
    2.0000   -0.6939    0.0000 H   0  0  0  0  0  0  0  0  0  0  0  0
    3.1435   -1.9890    0.0000 H   0  0  0  0  0  0  0  0  0  0  0  0
    2.9263   -2.8385    0.0000 H   0  0  0  0  0  0  0  0  0  0  0  0
    3.7759   -3.0556    0.0000 H   0  0  0  0  0  0  0  0  0  0  0  0
  1 10  1  0  0  0  0
  1 16  1  0  0  0  0
  2  8  1  0  0  0  0
  2 17  1  0  0  0  0
  3 11  1  0  0  0  0
  3 18  1  0  0  0  0
  4 13  1  0  0  0  0
  4 26  1  0  0  0  0
  5  7  1  0  0  0  0
  5 10  2  0  0  0  0
  6  7  2  0  0  0  0
  6  8  1  0  0  0  0
  6 12  1  0  0  0  0
  7 11  1  0  0  0  0
  8  9  2  0  0  0  0
  9 10  1  0  0  0  0
  9 14  1  0  0  0  0
 11 13  2  0  0  0  0
 12 15  2  0  0  0  0
 12 19  1  0  0  0  0
 13 15  1  0  0  0  0
 14 16  2  0  0  0  0
 14 20  1  0  0  0  0
 15 21  1  0  0  0  0
 16 22  1  0  0  0  0
 17 23  1  0  0  0  0
 17 24  1  0  0  0  0
 17 25  1  0  0  0  0
 18 27  1  0  0  0  0
 18 28  1  0  0  0  0
 18 29  1  0  0  0  0
M  END
>  <PUBCHEM_COMPOUND_CID>
5281846

>  <PUBCHEM_COMPOUND_CANONICALIZED>
1

>  <PUBCHEM_CACTVS_COMPLEXITY>
301

>  <PUBCHEM_CACTVS_HBOND_ACCEPTOR>
5

>  <PUBCHEM_CACTVS_HBOND_DONOR>
1

>  <PUBCHEM_CACTVS_ROTATABLE_BOND>
2

>  <PUBCHEM_CACTVS_SUBSKEYS>
AAADccByOAAAAAAAAAAAAAAAAAAAASAAAAA8QAAAAAAAAFix/gAAHgAACAAADAyhngIyxvIIFkCoAy1y1ASCiCAtYCAImCEnzNgPJ/bGtJuPeWvn5B3b+Yf++f+eIAABAgACUABAAAIEAASgAAAAAAAAAA==

>  <PUBCHEM_IUPAC_OPENEYE_NAME>
4,8-dimethoxyfuro[2,3-b]quinolin-7-ol

>  <PUBCHEM_IUPAC_CAS_NAME>
4,8-dimethoxy-7-furo[2,3-b]quinolinol

>  <PUBCHEM_IUPAC_NAME>
4,8-dimethoxyfuro[2,3-b]quinolin-7-ol

>  <PUBCHEM_IUPAC_SYSTEMATIC_NAME>
4,8-dimethoxyfuro[2,3-b]quinolin-7-ol

>  <PUBCHEM_IUPAC_TRADITIONAL_NAME>
4,8-dimethoxyfuro[2,3-b]quinolin-7-ol

>  <PUBCHEM_IUPAC_INCHI>
InChI=1S/C13H11NO4/c1-16-11-7-3-4-9(15)12(17-2)10(7)14-13-8(11)5-6-18-13/h3-6,15H,1-2H3

>  <PUBCHEM_IUPAC_INCHIKEY>
LJKPBWHZRNQEMO-UHFFFAOYSA-N

>  <PUBCHEM_XLOGP3_AA>
2.5

>  <PUBCHEM_EXACT_MASS>
245.069

>  <PUBCHEM_MOLECULAR_FORMULA>
C13H11NO4

>  <PUBCHEM_MOLECULAR_WEIGHT>
245.234

>  <PUBCHEM_OPENEYE_CAN_SMILES>
COC1=C2C=COC2=NC3=C1C=CC(=C3OC)O

>  <PUBCHEM_OPENEYE_ISO_SMILES>
COC1=C2C=COC2=NC3=C1C=CC(=C3OC)O

>  <PUBCHEM_CACTVS_TPSA>
64.7

>  <PUBCHEM_MONOISOTOPIC_WEIGHT>
245.069

>  <PUBCHEM_TOTAL_CHARGE>
0

>  <PUBCHEM_HEAVY_ATOM_COUNT>
18

>  <PUBCHEM_ATOM_DEF_STEREO_COUNT>
0

>  <PUBCHEM_ATOM_UDEF_STEREO_COUNT>
0

>  <PUBCHEM_BOND_DEF_STEREO_COUNT>
0

>  <PUBCHEM_BOND_UDEF_STEREO_COUNT>
0

>  <PUBCHEM_ISOTOPIC_ATOM_COUNT>
0

>  <PUBCHEM_COMPONENT_COUNT>
1

>  <PUBCHEM_CACTVS_TAUTO_COUNT>
5

>  <PUBCHEM_COORDINATE_TYPE>
1
5
255

>  <PUBCHEM_BONDANNOTATIONS>
1  10  8
1  16  8
11  13  8
12  15  8
13  15  8
14  16  8
5  10  8
5  7  8
6  12  8
6  7  8
6  8  8
7  11  8
8  9  8
9  10  8
9  14  8

$$$$
