5282757
 OpenBabel06101807152D

 54 53  0  0  0  0  0  0  0  0999 V2000
    2.5369    3.4400    0.0000 O   0  0  0  0  0  0  0  0  0  0  0  0
    3.4030    1.9400    0.0000 O   0  0  0  0  0  0  0  0  0  0  0  0
   12.0632   -0.0600    0.0000 C   0  0  0  0  0  0  0  0  0  0  0  0
   12.0632   -1.0600    0.0000 C   0  0  0  0  0  0  0  0  0  0  0  0
   11.1972    0.4400    0.0000 C   0  0  0  0  0  0  0  0  0  0  0  0
   12.9292   -1.5600    0.0000 C   0  0  0  0  0  0  0  0  0  0  0  0
   11.1972    1.4400    0.0000 C   0  0  0  0  0  0  0  0  0  0  0  0
   12.9292   -2.5600    0.0000 C   0  0  0  0  0  0  0  0  0  0  0  0
   10.3312    1.9400    0.0000 C   0  0  0  0  0  0  0  0  0  0  0  0
    6.8671    2.9400    0.0000 C   0  0  0  0  0  0  0  0  0  0  0  0
    7.7331    3.4400    0.0000 C   0  0  0  0  0  0  0  0  0  0  0  0
    6.0010    3.4400    0.0000 C   0  0  0  0  0  0  0  0  0  0  0  0
    8.5991    2.9400    0.0000 C   0  0  0  0  0  0  0  0  0  0  0  0
   13.7953   -3.0600    0.0000 C   0  0  0  0  0  0  0  0  0  0  0  0
    5.1350    2.9400    0.0000 C   0  0  0  0  0  0  0  0  0  0  0  0
   10.3312    2.9400    0.0000 C   0  0  0  0  0  0  0  0  0  0  0  0
    9.4651    3.4400    0.0000 C   0  0  0  0  0  0  0  0  0  0  0  0
    4.2690    3.4400    0.0000 C   0  0  0  0  0  0  0  0  0  0  0  0
   13.7953   -4.0600    0.0000 C   0  0  0  0  0  0  0  0  0  0  0  0
    3.4030    2.9400    0.0000 C   0  0  0  0  0  0  0  0  0  0  0  0
   12.6738   -0.1677    0.0000 H   0  0  0  0  0  0  0  0  0  0  0  0
   12.2753    0.5226    0.0000 H   0  0  0  0  0  0  0  0  0  0  0  0
   11.4526   -0.9523    0.0000 H   0  0  0  0  0  0  0  0  0  0  0  0
   11.8512   -1.6426    0.0000 H   0  0  0  0  0  0  0  0  0  0  0  0
   10.5866    0.5477    0.0000 H   0  0  0  0  0  0  0  0  0  0  0  0
   10.9851   -0.1426    0.0000 H   0  0  0  0  0  0  0  0  0  0  0  0
   13.5398   -1.6677    0.0000 H   0  0  0  0  0  0  0  0  0  0  0  0
   13.1413   -0.9774    0.0000 H   0  0  0  0  0  0  0  0  0  0  0  0
   11.8078    1.3323    0.0000 H   0  0  0  0  0  0  0  0  0  0  0  0
   11.4092    2.0226    0.0000 H   0  0  0  0  0  0  0  0  0  0  0  0
   12.3187   -2.4523    0.0000 H   0  0  0  0  0  0  0  0  0  0  0  0
   12.7172   -3.1426    0.0000 H   0  0  0  0  0  0  0  0  0  0  0  0
    9.7206    2.0477    0.0000 H   0  0  0  0  0  0  0  0  0  0  0  0
   10.1191    1.3574    0.0000 H   0  0  0  0  0  0  0  0  0  0  0  0
    6.4685    2.4651    0.0000 H   0  0  0  0  0  0  0  0  0  0  0  0
    7.2656    2.4651    0.0000 H   0  0  0  0  0  0  0  0  0  0  0  0
    8.1316    3.9150    0.0000 H   0  0  0  0  0  0  0  0  0  0  0  0
    7.3346    3.9150    0.0000 H   0  0  0  0  0  0  0  0  0  0  0  0
    6.3996    3.9150    0.0000 H   0  0  0  0  0  0  0  0  0  0  0  0
    5.6025    3.9150    0.0000 H   0  0  0  0  0  0  0  0  0  0  0  0
    8.2006    2.4651    0.0000 H   0  0  0  0  0  0  0  0  0  0  0  0
    8.9976    2.4651    0.0000 H   0  0  0  0  0  0  0  0  0  0  0  0
   14.4058   -3.1677    0.0000 H   0  0  0  0  0  0  0  0  0  0  0  0
   14.0073   -2.4774    0.0000 H   0  0  0  0  0  0  0  0  0  0  0  0
    4.7365    2.4651    0.0000 H   0  0  0  0  0  0  0  0  0  0  0  0
    5.5335    2.4651    0.0000 H   0  0  0  0  0  0  0  0  0  0  0  0
   10.8681    3.2500    0.0000 H   0  0  0  0  0  0  0  0  0  0  0  0
    9.4651    4.0600    0.0000 H   0  0  0  0  0  0  0  0  0  0  0  0
    4.6675    3.9150    0.0000 H   0  0  0  0  0  0  0  0  0  0  0  0
    3.8705    3.9150    0.0000 H   0  0  0  0  0  0  0  0  0  0  0  0
   13.1753   -4.0600    0.0000 H   0  0  0  0  0  0  0  0  0  0  0  0
   13.7953   -4.6800    0.0000 H   0  0  0  0  0  0  0  0  0  0  0  0
   14.4153   -4.0600    0.0000 H   0  0  0  0  0  0  0  0  0  0  0  0
    2.0000    3.1300    0.0000 H   0  0  0  0  0  0  0  0  0  0  0  0
  1 20  1  0  0  0  0
  1 54  1  0  0  0  0
  2 20  2  0  0  0  0
  3  4  1  0  0  0  0
  3  5  1  0  0  0  0
  3 21  1  0  0  0  0
  3 22  1  0  0  0  0
  4  6  1  0  0  0  0
  4 23  1  0  0  0  0
  4 24  1  0  0  0  0
  5  7  1  0  0  0  0
  5 25  1  0  0  0  0
  5 26  1  0  0  0  0
  6  8  1  0  0  0  0
  6 27  1  0  0  0  0
  6 28  1  0  0  0  0
  7  9  1  0  0  0  0
  7 29  1  0  0  0  0
  7 30  1  0  0  0  0
  8 14  1  0  0  0  0
  8 31  1  0  0  0  0
  8 32  1  0  0  0  0
  9 16  1  0  0  0  0
  9 33  1  0  0  0  0
  9 34  1  0  0  0  0
 10 11  1  0  0  0  0
 10 12  1  0  0  0  0
 10 35  1  0  0  0  0
 10 36  1  0  0  0  0
 11 13  1  0  0  0  0
 11 37  1  0  0  0  0
 11 38  1  0  0  0  0
 12 15  1  0  0  0  0
 12 39  1  0  0  0  0
 12 40  1  0  0  0  0
 13 17  1  0  0  0  0
 13 41  1  0  0  0  0
 13 42  1  0  0  0  0
 14 19  1  0  0  0  0
 14 43  1  0  0  0  0
 14 44  1  0  0  0  0
 15 18  1  0  0  0  0
 15 45  1  0  0  0  0
 15 46  1  0  0  0  0
 16 17  2  0  0  0  0
 16 47  1  0  0  0  0
 17 48  1  0  0  0  0
 18 20  1  0  0  0  0
 18 49  1  0  0  0  0
 18 50  1  0  0  0  0
 19 51  1  0  0  0  0
 19 52  1  0  0  0  0
 19 53  1  0  0  0  0
M  END
>  <PUBCHEM_COMPOUND_CID>
5282757

>  <PUBCHEM_COMPOUND_CANONICALIZED>
1

>  <PUBCHEM_CACTVS_COMPLEXITY>
234

>  <PUBCHEM_CACTVS_HBOND_ACCEPTOR>
2

>  <PUBCHEM_CACTVS_HBOND_DONOR>
1

>  <PUBCHEM_CACTVS_ROTATABLE_BOND>
15

>  <PUBCHEM_CACTVS_SUBSKEYS>
AAADcfB4MAAAAAAAAAAAAAAAAAAAAAAAAAAAAAAAAAAAAAAAAAAAGgAACAAACACAgAACCAAAAgCIACDSCAAAAAAgAAAICAEAAAgAABIAAQAAQAAEgAAIAAOIyKCAAAAAAAAAAAAAAAAAAAAAAAAAAAAAAA==

>  <PUBCHEM_IUPAC_OPENEYE_NAME>
(Z)-octadec-8-enoic acid

>  <PUBCHEM_IUPAC_CAS_NAME>
(Z)-8-octadecenoic acid

>  <PUBCHEM_IUPAC_NAME>
(Z)-octadec-8-enoic acid

>  <PUBCHEM_IUPAC_SYSTEMATIC_NAME>
(Z)-octadec-8-enoic acid

>  <PUBCHEM_IUPAC_TRADITIONAL_NAME>
(Z)-octadec-8-enoic acid

>  <PUBCHEM_IUPAC_INCHI>
InChI=1S/C18H34O2/c1-2-3-4-5-6-7-8-9-10-11-12-13-14-15-16-17-18(19)20/h10-11H,2-9,12-17H2,1H3,(H,19,20)/b11-10-

>  <PUBCHEM_IUPAC_INCHIKEY>
WRIDQFICGBMAFQ-KHPPLWFESA-N

>  <PUBCHEM_XLOGP3>
6.5

>  <PUBCHEM_EXACT_MASS>
282.256

>  <PUBCHEM_MOLECULAR_FORMULA>
C18H34O2

>  <PUBCHEM_MOLECULAR_WEIGHT>
282.468

>  <PUBCHEM_OPENEYE_CAN_SMILES>
CCCCCCCCCC=CCCCCCCC(=O)O

>  <PUBCHEM_OPENEYE_ISO_SMILES>
CCCCCCCCC/C=C\CCCCCCC(=O)O

>  <PUBCHEM_CACTVS_TPSA>
37.3

>  <PUBCHEM_MONOISOTOPIC_WEIGHT>
282.256

>  <PUBCHEM_TOTAL_CHARGE>
0

>  <PUBCHEM_HEAVY_ATOM_COUNT>
20

>  <PUBCHEM_ATOM_DEF_STEREO_COUNT>
0

>  <PUBCHEM_ATOM_UDEF_STEREO_COUNT>
0

>  <PUBCHEM_BOND_DEF_STEREO_COUNT>
1

>  <PUBCHEM_BOND_UDEF_STEREO_COUNT>
0

>  <PUBCHEM_ISOTOPIC_ATOM_COUNT>
0

>  <PUBCHEM_COMPONENT_COUNT>
1

>  <PUBCHEM_CACTVS_TAUTO_COUNT>
1

>  <PUBCHEM_COORDINATE_TYPE>
1
5
255

$$$$
