529304
 OpenBabel06101807152D

 30 30  0  0  1  0  0  0  0  0999 V2000
    3.3660   -0.9330    0.0000 O   0  0  0  0  0  0  0  0  0  0  0  0
    7.3301    0.9330    0.0000 O   0  0  0  0  0  0  0  0  0  0  0  0
    2.8660   -0.0670    0.0000 C   0  0  0  0  0  0  0  0  0  0  0  0
    3.8660   -0.0670    0.0000 C   0  0  3  0  0  0  0  0  0  0  0  0
    4.7320    0.4330    0.0000 C   0  0  0  0  0  0  0  0  0  0  0  0
    5.5981   -0.0670    0.0000 C   0  0  0  0  0  0  0  0  0  0  0  0
    2.8660    0.9330    0.0000 C   0  0  0  0  0  0  0  0  0  0  0  0
    2.0000   -0.5670    0.0000 C   0  0  0  0  0  0  0  0  0  0  0  0
    6.4641    0.4330    0.0000 C   0  0  3  0  0  0  0  0  0  0  0  0
    5.9641    1.2990    0.0000 C   0  0  0  0  0  0  0  0  0  0  0  0
    6.9641   -0.4330    0.0000 C   0  0  0  0  0  0  0  0  0  0  0  0
    6.4641   -1.2990    0.0000 C   0  0  0  0  0  0  0  0  0  0  0  0
    4.4671   -0.6680    0.0000 H   0  0  0  0  0  0  0  0  0  0  0  0
    5.1306    0.9080    0.0000 H   0  0  0  0  0  0  0  0  0  0  0  0
    4.3335    0.9080    0.0000 H   0  0  0  0  0  0  0  0  0  0  0  0
    5.1996   -0.5419    0.0000 H   0  0  0  0  0  0  0  0  0  0  0  0
    5.9966   -0.5419    0.0000 H   0  0  0  0  0  0  0  0  0  0  0  0
    3.4860    0.9330    0.0000 H   0  0  0  0  0  0  0  0  0  0  0  0
    2.8660    1.5530    0.0000 H   0  0  0  0  0  0  0  0  0  0  0  0
    2.2460    0.9330    0.0000 H   0  0  0  0  0  0  0  0  0  0  0  0
    1.6900   -0.0301    0.0000 H   0  0  0  0  0  0  0  0  0  0  0  0
    1.4631   -0.8770    0.0000 H   0  0  0  0  0  0  0  0  0  0  0  0
    2.3100   -1.1039    0.0000 H   0  0  0  0  0  0  0  0  0  0  0  0
    6.5010    1.6090    0.0000 H   0  0  0  0  0  0  0  0  0  0  0  0
    5.6541    1.8360    0.0000 H   0  0  0  0  0  0  0  0  0  0  0  0
    5.4272    0.9890    0.0000 H   0  0  0  0  0  0  0  0  0  0  0  0
    7.5841   -0.4330    0.0000 H   0  0  0  0  0  0  0  0  0  0  0  0
    7.8671    0.6230    0.0000 H   0  0  0  0  0  0  0  0  0  0  0  0
    5.8441   -1.2990    0.0000 H   0  0  0  0  0  0  0  0  0  0  0  0
    6.7741   -1.8360    0.0000 H   0  0  0  0  0  0  0  0  0  0  0  0
  1  3  1  0  0  0  0
  1  4  1  0  0  0  0
  2  9  1  0  0  0  0
  2 28  1  0  0  0  0
  3  4  1  0  0  0  0
  3  7  1  0  0  0  0
  3  8  1  0  0  0  0
  4  5  1  0  0  0  0
  4 13  1  0  0  0  0
  5  6  1  0  0  0  0
  5 14  1  0  0  0  0
  5 15  1  0  0  0  0
  6  9  1  0  0  0  0
  6 16  1  0  0  0  0
  6 17  1  0  0  0  0
  7 18  1  0  0  0  0
  7 19  1  0  0  0  0
  7 20  1  0  0  0  0
  8 21  1  0  0  0  0
  8 22  1  0  0  0  0
  8 23  1  0  0  0  0
  9 10  1  0  0  0  0
  9 11  1  0  0  0  0
 10 24  1  0  0  0  0
 10 25  1  0  0  0  0
 10 26  1  0  0  0  0
 11 12  2  0  0  0  0
 11 27  1  0  0  0  0
 12 29  1  0  0  0  0
 12 30  1  0  0  0  0
M  END
>  <PUBCHEM_COMPOUND_CID>
529304

>  <PUBCHEM_COMPOUND_CANONICALIZED>
1

>  <PUBCHEM_CACTVS_COMPLEXITY>
186

>  <PUBCHEM_CACTVS_HBOND_ACCEPTOR>
2

>  <PUBCHEM_CACTVS_HBOND_DONOR>
1

>  <PUBCHEM_CACTVS_ROTATABLE_BOND>
4

>  <PUBCHEM_CACTVS_SUBSKEYS>
AAADceBwMAAAAAAAAAAAAAAAEgAAAAAAAAAAAAAAAAAAAAAAAAAAGgAACAAADFSggAICAAAABgCAACBCAAAAAAAgAAAIAAAAAAgABAIAAAACQAAEgAAAEAHA4FQMAAAAAAAAAAAAAAAAAAAAAAAAAAAAAA==

>  <PUBCHEM_IUPAC_OPENEYE_NAME>
5-(3,3-dimethyloxiran-2-yl)-3-methyl-pent-1-en-3-ol

>  <PUBCHEM_IUPAC_CAS_NAME>
5-(3,3-dimethyl-2-oxiranyl)-3-methyl-1-penten-3-ol

>  <PUBCHEM_IUPAC_NAME>
5-(3,3-dimethyloxiran-2-yl)-3-methylpent-1-en-3-ol

>  <PUBCHEM_IUPAC_SYSTEMATIC_NAME>
5-(3,3-dimethyloxiran-2-yl)-3-methyl-pent-1-en-3-ol

>  <PUBCHEM_IUPAC_TRADITIONAL_NAME>
5-(3,3-dimethyloxiran-2-yl)-3-methyl-pent-1-en-3-ol

>  <PUBCHEM_IUPAC_INCHI>
InChI=1S/C10H18O2/c1-5-10(4,11)7-6-8-9(2,3)12-8/h5,8,11H,1,6-7H2,2-4H3

>  <PUBCHEM_IUPAC_INCHIKEY>
SATQWIIUJKWZNO-UHFFFAOYSA-N

>  <PUBCHEM_XLOGP3_AA>
1.4

>  <PUBCHEM_EXACT_MASS>
170.131

>  <PUBCHEM_MOLECULAR_FORMULA>
C10H18O2

>  <PUBCHEM_MOLECULAR_WEIGHT>
170.252

>  <PUBCHEM_OPENEYE_CAN_SMILES>
CC1(C(O1)CCC(C)(C=C)O)C

>  <PUBCHEM_OPENEYE_ISO_SMILES>
CC1(C(O1)CCC(C)(C=C)O)C

>  <PUBCHEM_CACTVS_TPSA>
32.8

>  <PUBCHEM_MONOISOTOPIC_WEIGHT>
170.131

>  <PUBCHEM_TOTAL_CHARGE>
0

>  <PUBCHEM_HEAVY_ATOM_COUNT>
12

>  <PUBCHEM_ATOM_DEF_STEREO_COUNT>
0

>  <PUBCHEM_ATOM_UDEF_STEREO_COUNT>
2

>  <PUBCHEM_BOND_DEF_STEREO_COUNT>
0

>  <PUBCHEM_BOND_UDEF_STEREO_COUNT>
0

>  <PUBCHEM_ISOTOPIC_ATOM_COUNT>
0

>  <PUBCHEM_COMPONENT_COUNT>
1

>  <PUBCHEM_CACTVS_TAUTO_COUNT>
1

>  <PUBCHEM_COORDINATE_TYPE>
1
5
255

>  <PUBCHEM_BONDANNOTATIONS>
9  2  3
4  13  3

$$$$
