5302365
 OpenBabel06101807152D

 18 18  0  0  0  0  0  0  0  0999 V2000
    2.0000    0.5000    0.0000 Cl  0  0  0  0  0  0  0  0  0  0  0  0
    5.4641    0.5000    0.0000 Cl  0  0  0  0  0  0  0  0  0  0  0  0
    3.7320   -2.5000    0.0000 Cl  0  0  0  0  0  0  0  0  0  0  0  0
    3.7320    1.5000    0.0000 S   0  0  0  0  0  0  0  0  0  0  0  0
    4.7320    1.5000    0.0000 O   0  0  0  0  0  0  0  0  0  0  0  0
    2.7320    1.5000    0.0000 O   0  0  0  0  0  0  0  0  0  0  0  0
    3.7320    0.5000    0.0000 C   0  0  0  0  0  0  0  0  0  0  0  0
    2.8660    0.0000    0.0000 C   0  0  0  0  0  0  0  0  0  0  0  0
    4.5981    0.0000    0.0000 C   0  0  0  0  0  0  0  0  0  0  0  0
    3.7320    2.5000    0.0000 C   0  0  0  0  0  0  0  0  0  0  0  0
    2.8660   -1.0000    0.0000 C   0  0  0  0  0  0  0  0  0  0  0  0
    4.5981   -1.0000    0.0000 C   0  0  0  0  0  0  0  0  0  0  0  0
    3.7320   -1.5000    0.0000 C   0  0  0  0  0  0  0  0  0  0  0  0
    4.3520    2.5000    0.0000 H   0  0  0  0  0  0  0  0  0  0  0  0
    3.7320    3.1200    0.0000 H   0  0  0  0  0  0  0  0  0  0  0  0
    3.1120    2.5000    0.0000 H   0  0  0  0  0  0  0  0  0  0  0  0
    2.3291   -1.3100    0.0000 H   0  0  0  0  0  0  0  0  0  0  0  0
    5.1350   -1.3100    0.0000 H   0  0  0  0  0  0  0  0  0  0  0  0
  1  8  1  0  0  0  0
  2  9  1  0  0  0  0
  3 13  1  0  0  0  0
  4  5  2  0  0  0  0
  4  6  2  0  0  0  0
  4  7  1  0  0  0  0
  4 10  1  0  0  0  0
  7  8  2  0  0  0  0
  7  9  1  0  0  0  0
  8 11  1  0  0  0  0
  9 12  2  0  0  0  0
 10 14  1  0  0  0  0
 10 15  1  0  0  0  0
 10 16  1  0  0  0  0
 11 13  2  0  0  0  0
 11 17  1  0  0  0  0
 12 13  1  0  0  0  0
 12 18  1  0  0  0  0
M  END
>  <PUBCHEM_COMPOUND_CID>
5302365

>  <PUBCHEM_COMPOUND_CANONICALIZED>
1

>  <PUBCHEM_CACTVS_COMPLEXITY>
260

>  <PUBCHEM_CACTVS_HBOND_ACCEPTOR>
2

>  <PUBCHEM_CACTVS_HBOND_DONOR>
0

>  <PUBCHEM_CACTVS_ROTATABLE_BOND>
1

>  <PUBCHEM_CACTVS_SUBSKEYS>
AAADcYBgMABGAAAAAAAAAAAAAAAAAAAAAAAwAAAAAAAAAAABAAAAGAYAAAAACAKAUCCyAYAAAAqAACBCAHBCAAAgDRAAiBAAAogIICKhExCAIAAggAAIiAcAAAAAAAIAAACAAIAABAAAAQABAAAAAAAAAA==

>  <PUBCHEM_IUPAC_OPENEYE_NAME>
1,3,5-trichloro-2-methylsulfonyl-benzene

>  <PUBCHEM_IUPAC_CAS_NAME>
1,3,5-trichloro-2-methylsulfonylbenzene

>  <PUBCHEM_IUPAC_NAME>
1,3,5-trichloro-2-methylsulfonylbenzene

>  <PUBCHEM_IUPAC_SYSTEMATIC_NAME>
1,3,5-tris(chloranyl)-2-methylsulfonyl-benzene

>  <PUBCHEM_IUPAC_TRADITIONAL_NAME>
1,3,5-trichloro-2-mesyl-benzene

>  <PUBCHEM_IUPAC_INCHI>
InChI=1S/C7H5Cl3O2S/c1-13(11,12)7-5(9)2-4(8)3-6(7)10/h2-3H,1H3

>  <PUBCHEM_IUPAC_INCHIKEY>
NOSWATRCDIPOON-UHFFFAOYSA-N

>  <PUBCHEM_XLOGP3_AA>
3

>  <PUBCHEM_EXACT_MASS>
257.908

>  <PUBCHEM_MOLECULAR_FORMULA>
C7H5Cl3O2S

>  <PUBCHEM_MOLECULAR_WEIGHT>
259.525

>  <PUBCHEM_OPENEYE_CAN_SMILES>
CS(=O)(=O)C1=C(C=C(C=C1Cl)Cl)Cl

>  <PUBCHEM_OPENEYE_ISO_SMILES>
CS(=O)(=O)C1=C(C=C(C=C1Cl)Cl)Cl

>  <PUBCHEM_CACTVS_TPSA>
42.5

>  <PUBCHEM_MONOISOTOPIC_WEIGHT>
257.908

>  <PUBCHEM_TOTAL_CHARGE>
0

>  <PUBCHEM_HEAVY_ATOM_COUNT>
13

>  <PUBCHEM_ATOM_DEF_STEREO_COUNT>
0

>  <PUBCHEM_ATOM_UDEF_STEREO_COUNT>
0

>  <PUBCHEM_BOND_DEF_STEREO_COUNT>
0

>  <PUBCHEM_BOND_UDEF_STEREO_COUNT>
0

>  <PUBCHEM_ISOTOPIC_ATOM_COUNT>
0

>  <PUBCHEM_COMPONENT_COUNT>
1

>  <PUBCHEM_CACTVS_TAUTO_COUNT>
1

>  <PUBCHEM_COORDINATE_TYPE>
1
5
255

>  <PUBCHEM_BONDANNOTATIONS>
11  13  8
12  13  8
7  8  8
7  9  8
8  11  8
9  12  8

$$$$
