5316952
 OpenBabel06101807152D

 87 87  0  0  0  0  0  0  0  0999 V2000
    6.0010   -5.0950    0.0000 O   0  0  0  0  0  0  0  0  0  0  0  0
    4.2690   -5.0950    0.0000 O   0  0  0  0  0  0  0  0  0  0  0  0
    2.5369  -10.0950    0.0000 O   0  0  0  0  0  0  0  0  0  0  0  0
    4.2690  -11.0950    0.0000 O   0  0  0  0  0  0  0  0  0  0  0  0
   10.3312    3.4050    0.0000 C   0  0  0  0  0  0  0  0  0  0  0  0
   11.1972    3.9050    0.0000 C   0  0  0  0  0  0  0  0  0  0  0  0
   10.3312    2.4050    0.0000 C   0  0  0  0  0  0  0  0  0  0  0  0
   11.1972    4.9050    0.0000 C   0  0  0  0  0  0  0  0  0  0  0  0
    9.4651    1.9050    0.0000 C   0  0  0  0  0  0  0  0  0  0  0  0
   12.0632    5.4050    0.0000 C   0  0  0  0  0  0  0  0  0  0  0  0
    9.4651    0.9050    0.0000 C   0  0  0  0  0  0  0  0  0  0  0  0
   12.0632    6.4050    0.0000 C   0  0  0  0  0  0  0  0  0  0  0  0
    8.5991    0.4050    0.0000 C   0  0  0  0  0  0  0  0  0  0  0  0
   12.9292    6.9050    0.0000 C   0  0  0  0  0  0  0  0  0  0  0  0
    8.5991   -0.5950    0.0000 C   0  0  0  0  0  0  0  0  0  0  0  0
   12.9292    7.9050    0.0000 C   0  0  0  0  0  0  0  0  0  0  0  0
    7.7331   -1.0950    0.0000 C   0  0  0  0  0  0  0  0  0  0  0  0
   13.7953    8.4050    0.0000 C   0  0  0  0  0  0  0  0  0  0  0  0
    7.7331   -2.0950    0.0000 C   0  0  0  0  0  0  0  0  0  0  0  0
   13.7953    9.4050    0.0000 C   0  0  0  0  0  0  0  0  0  0  0  0
    6.8671   -2.5950    0.0000 C   0  0  0  0  0  0  0  0  0  0  0  0
   14.6613    9.9050    0.0000 C   0  0  0  0  0  0  0  0  0  0  0  0
    6.8671   -3.5950    0.0000 C   0  0  0  0  0  0  0  0  0  0  0  0
   14.6613   10.9050    0.0000 C   0  0  0  0  0  0  0  0  0  0  0  0
    6.0010   -4.0950    0.0000 C   0  0  0  0  0  0  0  0  0  0  0  0
   15.5273   11.4050    0.0000 C   0  0  0  0  0  0  0  0  0  0  0  0
    5.1350   -5.5950    0.0000 C   0  0  0  0  0  0  0  0  0  0  0  0
    5.1350   -6.5950    0.0000 C   0  0  0  0  0  0  0  0  0  0  0  0
    4.2690   -7.0950    0.0000 C   0  0  0  0  0  0  0  0  0  0  0  0
    4.2690   -8.0950    0.0000 C   0  0  0  0  0  0  0  0  0  0  0  0
    3.4030   -8.5950    0.0000 C   0  0  0  0  0  0  0  0  0  0  0  0
    5.1350   -8.5950    0.0000 C   0  0  0  0  0  0  0  0  0  0  0  0
    3.4030   -9.5950    0.0000 C   0  0  0  0  0  0  0  0  0  0  0  0
    5.1350   -9.5950    0.0000 C   0  0  0  0  0  0  0  0  0  0  0  0
    4.2690  -10.0950    0.0000 C   0  0  0  0  0  0  0  0  0  0  0  0
   10.1191    3.9876    0.0000 H   0  0  0  0  0  0  0  0  0  0  0  0
    9.7206    3.2973    0.0000 H   0  0  0  0  0  0  0  0  0  0  0  0
   11.4092    3.3224    0.0000 H   0  0  0  0  0  0  0  0  0  0  0  0
   11.8078    4.0127    0.0000 H   0  0  0  0  0  0  0  0  0  0  0  0
   10.5432    1.8224    0.0000 H   0  0  0  0  0  0  0  0  0  0  0  0
   10.9417    2.5127    0.0000 H   0  0  0  0  0  0  0  0  0  0  0  0
   10.9851    5.4876    0.0000 H   0  0  0  0  0  0  0  0  0  0  0  0
   10.5866    4.7973    0.0000 H   0  0  0  0  0  0  0  0  0  0  0  0
    9.2531    2.4876    0.0000 H   0  0  0  0  0  0  0  0  0  0  0  0
    8.8546    1.7973    0.0000 H   0  0  0  0  0  0  0  0  0  0  0  0
   12.2753    4.8224    0.0000 H   0  0  0  0  0  0  0  0  0  0  0  0
   12.6738    5.5127    0.0000 H   0  0  0  0  0  0  0  0  0  0  0  0
    9.6772    0.3224    0.0000 H   0  0  0  0  0  0  0  0  0  0  0  0
   10.0757    1.0127    0.0000 H   0  0  0  0  0  0  0  0  0  0  0  0
   11.8512    6.9876    0.0000 H   0  0  0  0  0  0  0  0  0  0  0  0
   11.4526    6.2973    0.0000 H   0  0  0  0  0  0  0  0  0  0  0  0
    8.3871    0.9876    0.0000 H   0  0  0  0  0  0  0  0  0  0  0  0
    7.9885    0.2973    0.0000 H   0  0  0  0  0  0  0  0  0  0  0  0
   13.1413    6.3224    0.0000 H   0  0  0  0  0  0  0  0  0  0  0  0
   13.5398    7.0127    0.0000 H   0  0  0  0  0  0  0  0  0  0  0  0
    8.8112   -1.1776    0.0000 H   0  0  0  0  0  0  0  0  0  0  0  0
    9.2097   -0.4873    0.0000 H   0  0  0  0  0  0  0  0  0  0  0  0
   12.7172    8.4876    0.0000 H   0  0  0  0  0  0  0  0  0  0  0  0
   12.3187    7.7973    0.0000 H   0  0  0  0  0  0  0  0  0  0  0  0
    7.5210   -0.5124    0.0000 H   0  0  0  0  0  0  0  0  0  0  0  0
    7.1225   -1.2027    0.0000 H   0  0  0  0  0  0  0  0  0  0  0  0
   14.0073    7.8224    0.0000 H   0  0  0  0  0  0  0  0  0  0  0  0
   14.4058    8.5127    0.0000 H   0  0  0  0  0  0  0  0  0  0  0  0
    7.9451   -2.6776    0.0000 H   0  0  0  0  0  0  0  0  0  0  0  0
    8.3437   -1.9873    0.0000 H   0  0  0  0  0  0  0  0  0  0  0  0
   13.5832    9.9876    0.0000 H   0  0  0  0  0  0  0  0  0  0  0  0
   13.1847    9.2973    0.0000 H   0  0  0  0  0  0  0  0  0  0  0  0
    6.6550   -2.0124    0.0000 H   0  0  0  0  0  0  0  0  0  0  0  0
    6.2565   -2.7027    0.0000 H   0  0  0  0  0  0  0  0  0  0  0  0
   14.8733    9.3224    0.0000 H   0  0  0  0  0  0  0  0  0  0  0  0
   15.2719   10.0127    0.0000 H   0  0  0  0  0  0  0  0  0  0  0  0
    7.0791   -4.1776    0.0000 H   0  0  0  0  0  0  0  0  0  0  0  0
    7.4776   -3.4873    0.0000 H   0  0  0  0  0  0  0  0  0  0  0  0
   14.4492   11.4876    0.0000 H   0  0  0  0  0  0  0  0  0  0  0  0
   14.0507   10.7973    0.0000 H   0  0  0  0  0  0  0  0  0  0  0  0
    5.7890   -3.5124    0.0000 H   0  0  0  0  0  0  0  0  0  0  0  0
    5.3905   -4.2027    0.0000 H   0  0  0  0  0  0  0  0  0  0  0  0
   15.8373   10.8681    0.0000 H   0  0  0  0  0  0  0  0  0  0  0  0
   16.0643   11.7150    0.0000 H   0  0  0  0  0  0  0  0  0  0  0  0
   15.2173   11.9419    0.0000 H   0  0  0  0  0  0  0  0  0  0  0  0
    5.6720   -6.9050    0.0000 H   0  0  0  0  0  0  0  0  0  0  0  0
    3.7320   -6.7850    0.0000 H   0  0  0  0  0  0  0  0  0  0  0  0
    2.8660   -8.2850    0.0000 H   0  0  0  0  0  0  0  0  0  0  0  0
    5.6720   -8.2850    0.0000 H   0  0  0  0  0  0  0  0  0  0  0  0
    5.6720   -9.9050    0.0000 H   0  0  0  0  0  0  0  0  0  0  0  0
    2.0000   -9.7850    0.0000 H   0  0  0  0  0  0  0  0  0  0  0  0
    4.8059  -11.4050    0.0000 H   0  0  0  0  0  0  0  0  0  0  0  0
  1 25  1  0  0  0  0
  1 27  1  0  0  0  0
  2 27  2  0  0  0  0
  3 33  1  0  0  0  0
  3 86  1  0  0  0  0
  4 35  1  0  0  0  0
  4 87  1  0  0  0  0
  5  6  1  0  0  0  0
  5  7  1  0  0  0  0
  5 36  1  0  0  0  0
  5 37  1  0  0  0  0
  6  8  1  0  0  0  0
  6 38  1  0  0  0  0
  6 39  1  0  0  0  0
  7  9  1  0  0  0  0
  7 40  1  0  0  0  0
  7 41  1  0  0  0  0
  8 10  1  0  0  0  0
  8 42  1  0  0  0  0
  8 43  1  0  0  0  0
  9 11  1  0  0  0  0
  9 44  1  0  0  0  0
  9 45  1  0  0  0  0
 10 12  1  0  0  0  0
 10 46  1  0  0  0  0
 10 47  1  0  0  0  0
 11 13  1  0  0  0  0
 11 48  1  0  0  0  0
 11 49  1  0  0  0  0
 12 14  1  0  0  0  0
 12 50  1  0  0  0  0
 12 51  1  0  0  0  0
 13 15  1  0  0  0  0
 13 52  1  0  0  0  0
 13 53  1  0  0  0  0
 14 16  1  0  0  0  0
 14 54  1  0  0  0  0
 14 55  1  0  0  0  0
 15 17  1  0  0  0  0
 15 56  1  0  0  0  0
 15 57  1  0  0  0  0
 16 18  1  0  0  0  0
 16 58  1  0  0  0  0
 16 59  1  0  0  0  0
 17 19  1  0  0  0  0
 17 60  1  0  0  0  0
 17 61  1  0  0  0  0
 18 20  1  0  0  0  0
 18 62  1  0  0  0  0
 18 63  1  0  0  0  0
 19 21  1  0  0  0  0
 19 64  1  0  0  0  0
 19 65  1  0  0  0  0
 20 22  1  0  0  0  0
 20 66  1  0  0  0  0
 20 67  1  0  0  0  0
 21 23  1  0  0  0  0
 21 68  1  0  0  0  0
 21 69  1  0  0  0  0
 22 24  1  0  0  0  0
 22 70  1  0  0  0  0
 22 71  1  0  0  0  0
 23 25  1  0  0  0  0
 23 72  1  0  0  0  0
 23 73  1  0  0  0  0
 24 26  1  0  0  0  0
 24 74  1  0  0  0  0
 24 75  1  0  0  0  0
 25 76  1  0  0  0  0
 25 77  1  0  0  0  0
 26 78  1  0  0  0  0
 26 79  1  0  0  0  0
 26 80  1  0  0  0  0
 27 28  1  0  0  0  0
 28 29  2  0  0  0  0
 28 81  1  0  0  0  0
 29 30  1  0  0  0  0
 29 82  1  0  0  0  0
 30 31  2  0  0  0  0
 30 32  1  0  0  0  0
 31 33  1  0  0  0  0
 31 83  1  0  0  0  0
 32 34  2  0  0  0  0
 32 84  1  0  0  0  0
 33 35  2  0  0  0  0
 34 35  1  0  0  0  0
 34 85  1  0  0  0  0
M  END
>  <PUBCHEM_COMPOUND_CID>
5316952

>  <PUBCHEM_COMPOUND_CANONICALIZED>
1

>  <PUBCHEM_CACTVS_COMPLEXITY>
504

>  <PUBCHEM_CACTVS_HBOND_ACCEPTOR>
4

>  <PUBCHEM_CACTVS_HBOND_DONOR>
2

>  <PUBCHEM_CACTVS_ROTATABLE_BOND>
24

>  <PUBCHEM_CACTVS_SUBSKEYS>
AAADcfB4OAAAAAAAAAAAAAAAAAAAAAAAAAAwAAAAAAAAAAABAAAAGgAACAAADASgmAIyDoAABgCIAiDSCAACAAAgIAAIiAAGiMgJJiKCMRKCcAEkwBEJuYeAwLAOIAABAAAAQABAAAIAAACAAAAAAAAAAA==

>  <PUBCHEM_IUPAC_OPENEYE_NAME>
docosyl (E)-3-(3,4-dihydroxyphenyl)prop-2-enoate

>  <PUBCHEM_IUPAC_CAS_NAME>
(E)-3-(3,4-dihydroxyphenyl)-2-propenoic acid docosyl ester

>  <PUBCHEM_IUPAC_NAME>
docosyl (E)-3-(3,4-dihydroxyphenyl)prop-2-enoate

>  <PUBCHEM_IUPAC_SYSTEMATIC_NAME>
docosyl (E)-3-[3,4-bis(oxidanyl)phenyl]prop-2-enoate

>  <PUBCHEM_IUPAC_TRADITIONAL_NAME>
(E)-3-(3,4-dihydroxyphenyl)acrylic acid behenyl ester

>  <PUBCHEM_IUPAC_INCHI>
InChI=1S/C31H52O4/c1-2-3-4-5-6-7-8-9-10-11-12-13-14-15-16-17-18-19-20-21-26-35-31(34)25-23-28-22-24-29(32)30(33)27-28/h22-25,27,32-33H,2-21,26H2,1H3/b25-23+

>  <PUBCHEM_IUPAC_INCHIKEY>
GUWHMEMJBCLEBP-WJTDDFOZSA-N

>  <PUBCHEM_XLOGP3>
13.3

>  <PUBCHEM_EXACT_MASS>
488.387

>  <PUBCHEM_MOLECULAR_FORMULA>
C31H52O4

>  <PUBCHEM_MOLECULAR_WEIGHT>
488.753

>  <PUBCHEM_OPENEYE_CAN_SMILES>
CCCCCCCCCCCCCCCCCCCCCCOC(=O)C=CC1=CC(=C(C=C1)O)O

>  <PUBCHEM_OPENEYE_ISO_SMILES>
CCCCCCCCCCCCCCCCCCCCCCOC(=O)/C=C/C1=CC(=C(C=C1)O)O

>  <PUBCHEM_CACTVS_TPSA>
66.8

>  <PUBCHEM_MONOISOTOPIC_WEIGHT>
488.387

>  <PUBCHEM_TOTAL_CHARGE>
0

>  <PUBCHEM_HEAVY_ATOM_COUNT>
35

>  <PUBCHEM_ATOM_DEF_STEREO_COUNT>
0

>  <PUBCHEM_ATOM_UDEF_STEREO_COUNT>
0

>  <PUBCHEM_BOND_DEF_STEREO_COUNT>
1

>  <PUBCHEM_BOND_UDEF_STEREO_COUNT>
0

>  <PUBCHEM_ISOTOPIC_ATOM_COUNT>
0

>  <PUBCHEM_COMPONENT_COUNT>
1

>  <PUBCHEM_CACTVS_TAUTO_COUNT>
16

>  <PUBCHEM_COORDINATE_TYPE>
1
5
255

>  <PUBCHEM_BONDANNOTATIONS>
30  31  8
30  32  8
31  33  8
32  34  8
33  35  8
34  35  8

$$$$
