5316810
 OpenBabel06101807152D

 33 35  0  0  0  0  0  0  0  0999 V2000
    8.1821    1.7846    0.0000 O   0  0  0  0  0  0  0  0  0  0  0  0
    2.0000   -1.7846    0.0000 O   0  0  0  0  0  0  0  0  0  0  0  0
    5.5301    0.2395    0.0000 C   0  0  0  0  0  0  0  0  0  0  0  0
    4.6641   -0.2605    0.0000 C   0  0  0  0  0  0  0  0  0  0  0  0
    6.3961   -0.2605    0.0000 C   0  0  0  0  0  0  0  0  0  0  0  0
    4.6641   -1.2605    0.0000 C   0  0  0  0  0  0  0  0  0  0  0  0
    7.3062    0.2464    0.0000 C   0  0  0  0  0  0  0  0  0  0  0  0
    3.7702    0.2742    0.0000 C   0  0  0  0  0  0  0  0  0  0  0  0
    6.3961   -1.2605    0.0000 C   0  0  0  0  0  0  0  0  0  0  0  0
    5.5301   -1.7605    0.0000 C   0  0  0  0  0  0  0  0  0  0  0  0
    5.5141    1.2810    0.0000 C   0  0  0  0  0  0  0  0  0  0  0  0
    3.7702   -1.7951    0.0000 C   0  0  0  0  0  0  0  0  0  0  0  0
    7.3142    1.2880    0.0000 C   0  0  0  0  0  0  0  0  0  0  0  0
    6.4121    1.8088    0.0000 C   0  0  0  0  0  0  0  0  0  0  0  0
    2.8641   -0.2397    0.0000 C   0  0  0  0  0  0  0  0  0  0  0  0
    2.8641   -1.2813    0.0000 C   0  0  0  0  0  0  0  0  0  0  0  0
    8.1663   -0.2636    0.0000 C   0  0  0  0  0  0  0  0  0  0  0  0
    3.7817    1.2741    0.0000 C   0  0  0  0  0  0  0  0  0  0  0  0
    2.9215    1.7841    0.0000 C   0  0  0  0  0  0  0  0  0  0  0  0
    6.9331   -1.5705    0.0000 H   0  0  0  0  0  0  0  0  0  0  0  0
    5.5301   -2.3805    0.0000 H   0  0  0  0  0  0  0  0  0  0  0  0
    4.9736    1.5848    0.0000 H   0  0  0  0  0  0  0  0  0  0  0  0
    3.7773   -2.4151    0.0000 H   0  0  0  0  0  0  0  0  0  0  0  0
    6.4097    2.4288    0.0000 H   0  0  0  0  0  0  0  0  0  0  0  0
    2.3284    0.0724    0.0000 H   0  0  0  0  0  0  0  0  0  0  0  0
    7.8502   -0.7969    0.0000 H   0  0  0  0  0  0  0  0  0  0  0  0
    8.6996   -0.5798    0.0000 H   0  0  0  0  0  0  0  0  0  0  0  0
    8.4825    0.2697    0.0000 H   0  0  0  0  0  0  0  0  0  0  0  0
    4.3222    1.5779    0.0000 H   0  0  0  0  0  0  0  0  0  0  0  0
    8.1845    2.4046    0.0000 H   0  0  0  0  0  0  0  0  0  0  0  0
    2.0024   -2.4046    0.0000 H   0  0  0  0  0  0  0  0  0  0  0  0
    2.9287    2.4041    0.0000 H   0  0  0  0  0  0  0  0  0  0  0  0
    2.3810    1.4803    0.0000 H   0  0  0  0  0  0  0  0  0  0  0  0
  1 13  1  0  0  0  0
  1 30  1  0  0  0  0
  2 16  1  0  0  0  0
  2 31  1  0  0  0  0
  3  4  1  0  0  0  0
  3  5  2  0  0  0  0
  3 11  1  0  0  0  0
  4  6  1  0  0  0  0
  4  8  2  0  0  0  0
  5  7  1  0  0  0  0
  5  9  1  0  0  0  0
  6 10  1  0  0  0  0
  6 12  2  0  0  0  0
  7 13  2  0  0  0  0
  7 17  1  0  0  0  0
  8 15  1  0  0  0  0
  8 18  1  0  0  0  0
  9 10  2  0  0  0  0
  9 20  1  0  0  0  0
 10 21  1  0  0  0  0
 11 14  2  0  0  0  0
 11 22  1  0  0  0  0
 12 16  1  0  0  0  0
 12 23  1  0  0  0  0
 13 14  1  0  0  0  0
 14 24  1  0  0  0  0
 15 16  2  0  0  0  0
 15 25  1  0  0  0  0
 17 26  1  0  0  0  0
 17 27  1  0  0  0  0
 17 28  1  0  0  0  0
 18 19  2  0  0  0  0
 18 29  1  0  0  0  0
 19 32  1  0  0  0  0
 19 33  1  0  0  0  0
M  END
>  <PUBCHEM_COMPOUND_CID>
5316810

>  <PUBCHEM_COMPOUND_CANONICALIZED>
1

>  <PUBCHEM_CACTVS_COMPLEXITY>
340

>  <PUBCHEM_CACTVS_HBOND_ACCEPTOR>
2

>  <PUBCHEM_CACTVS_HBOND_DONOR>
2

>  <PUBCHEM_CACTVS_ROTATABLE_BOND>
1

>  <PUBCHEM_CACTVS_SUBSKEYS>
AAADccB4MAAAAAAAAAAAAAAAAAAAAAAAAAAwYMAAAAAAAADBVAAAGgAACAAADASAmAAyBsAAAgCAAiBCAAACAAAgIAAIiAAGCIgIJiKCERKAcAAkwBEImAeAwPAO4AADAAAYAADAAAYAADAAAAAAAAAAAA==

>  <PUBCHEM_IUPAC_OPENEYE_NAME>
1-methyl-5-vinyl-phenanthrene-2,7-diol

>  <PUBCHEM_IUPAC_CAS_NAME>
5-ethenyl-1-methylphenanthrene-2,7-diol

>  <PUBCHEM_IUPAC_NAME>
5-ethenyl-1-methylphenanthrene-2,7-diol

>  <PUBCHEM_IUPAC_SYSTEMATIC_NAME>
5-ethenyl-1-methyl-phenanthrene-2,7-diol

>  <PUBCHEM_IUPAC_TRADITIONAL_NAME>
1-methyl-5-vinyl-phenanthrene-2,7-diol

>  <PUBCHEM_IUPAC_INCHI>
InChI=1S/C17H14O2/c1-3-11-8-13(18)9-12-4-5-14-10(2)16(19)7-6-15(14)17(11)12/h3-9,18-19H,1H2,2H3

>  <PUBCHEM_IUPAC_INCHIKEY>
GSSPKCPIRDPBQE-UHFFFAOYSA-N

>  <PUBCHEM_XLOGP3_AA>
4.9

>  <PUBCHEM_EXACT_MASS>
250.099

>  <PUBCHEM_MOLECULAR_FORMULA>
C17H14O2

>  <PUBCHEM_MOLECULAR_WEIGHT>
250.297

>  <PUBCHEM_OPENEYE_CAN_SMILES>
CC1=C(C=CC2=C1C=CC3=CC(=CC(=C32)C=C)O)O

>  <PUBCHEM_OPENEYE_ISO_SMILES>
CC1=C(C=CC2=C1C=CC3=CC(=CC(=C32)C=C)O)O

>  <PUBCHEM_CACTVS_TPSA>
40.5

>  <PUBCHEM_MONOISOTOPIC_WEIGHT>
250.099

>  <PUBCHEM_TOTAL_CHARGE>
0

>  <PUBCHEM_HEAVY_ATOM_COUNT>
19

>  <PUBCHEM_ATOM_DEF_STEREO_COUNT>
0

>  <PUBCHEM_ATOM_UDEF_STEREO_COUNT>
0

>  <PUBCHEM_BOND_DEF_STEREO_COUNT>
0

>  <PUBCHEM_BOND_UDEF_STEREO_COUNT>
0

>  <PUBCHEM_ISOTOPIC_ATOM_COUNT>
0

>  <PUBCHEM_COMPONENT_COUNT>
1

>  <PUBCHEM_CACTVS_TAUTO_COUNT>
12

>  <PUBCHEM_COORDINATE_TYPE>
1
5
255

>  <PUBCHEM_BONDANNOTATIONS>
11  14  8
12  16  8
13  14  8
15  16  8
3  11  8
3  4  8
3  5  8
4  6  8
4  8  8
5  7  8
5  9  8
6  10  8
6  12  8
7  13  8
8  15  8
9  10  8

$$$$
