5316250
 OpenBabel06101807152D

 67 71  0  0  1  0  0  0  0  0999 V2000
    9.1001    3.0681    0.0000 O   0  0  0  0  0  0  0  0  0  0  0  0
    7.2342   -0.0083    0.0000 O   0  0  0  0  0  0  0  0  0  0  0  0
    4.5841   -1.5568    0.0000 O   0  0  0  0  0  0  0  0  0  0  0  0
    5.4803    3.0231    0.0000 O   0  0  0  0  0  0  0  0  0  0  0  0
    4.6361    1.4917    0.0000 O   0  0  0  0  0  0  0  0  0  0  0  0
    8.2246   -3.6453    0.0000 O   0  0  0  0  0  0  0  0  0  0  0  0
    6.4213   -4.7050    0.0000 O   0  0  0  0  0  0  0  0  0  0  0  0
    9.1084    4.1530    0.0000 C   0  0  0  0  0  0  0  0  0  0  0  0
    8.1442    1.4985    0.0000 C   0  0  0  0  0  0  0  0  0  0  0  0
    8.1522    2.5401    0.0000 C   0  0  0  0  0  0  0  0  0  0  0  0
    7.2342    0.9917    0.0000 C   0  0  0  0  0  0  0  0  0  0  0  0
    6.3682    1.4917    0.0000 C   0  0  0  0  0  0  0  0  0  0  0  0
    5.5021   -0.0083    0.0000 C   0  0  0  0  0  0  0  0  0  0  0  0
    7.2501    3.0609    0.0000 C   0  0  0  0  0  0  0  0  0  0  0  0
    6.3682   -0.5083    0.0000 C   0  0  0  0  0  0  0  0  0  0  0  0
    4.5921   -0.5152    0.0000 C   0  0  3  0  0  0  0  0  0  0  0  0
    6.3521    2.5332    0.0000 C   0  0  0  0  0  0  0  0  0  0  0  0
    5.5021    0.9917    0.0000 C   0  0  0  0  0  0  0  0  0  0  0  0
    8.1688    4.6955    0.0000 C   0  0  0  0  0  0  0  0  0  0  0  0
    9.0044    0.9885    0.0000 C   0  0  0  0  0  0  0  0  0  0  0  0
    6.3842   -1.5498    0.0000 C   0  0  0  0  0  0  0  0  0  0  0  0
    7.2334    4.1458    0.0000 C   0  0  0  0  0  0  0  0  0  0  0  0
    9.6118    5.0171    0.0000 C   0  0  0  0  0  0  0  0  0  0  0  0
   10.1084    4.1492    0.0000 C   0  0  0  0  0  0  0  0  0  0  0  0
    5.4862   -2.0776    0.0000 C   0  0  0  0  0  0  0  0  0  0  0  0
    3.7319   -0.0052    0.0000 C   0  0  0  0  0  0  0  0  0  0  0  0
    7.3361   -2.0705    0.0000 C   0  0  0  0  0  0  0  0  0  0  0  0
    9.8761    1.4785    0.0000 C   0  0  0  0  0  0  0  0  0  0  0  0
    5.4778   -3.1626    0.0000 C   0  0  0  0  0  0  0  0  0  0  0  0
    2.8602   -0.4952    0.0000 C   0  0  0  0  0  0  0  0  0  0  0  0
    7.3529   -3.1553    0.0000 C   0  0  0  0  0  0  0  0  0  0  0  0
    6.4174   -3.7050    0.0000 C   0  0  0  0  0  0  0  0  0  0  0  0
   10.7363    0.9685    0.0000 C   0  0  0  0  0  0  0  0  0  0  0  0
    2.0000    0.0148    0.0000 C   0  0  0  0  0  0  0  0  0  0  0  0
    2.8486   -1.4951    0.0000 C   0  0  0  0  0  0  0  0  0  0  0  0
   11.6080    1.4585    0.0000 C   0  0  0  0  0  0  0  0  0  0  0  0
   10.7247   -0.0314    0.0000 C   0  0  0  0  0  0  0  0  0  0  0  0
    4.0522   -0.8200    0.0000 H   0  0  0  0  0  0  0  0  0  0  0  0
    8.1664    5.3155    0.0000 H   0  0  0  0  0  0  0  0  0  0  0  0
    8.6004    0.5182    0.0000 H   0  0  0  0  0  0  0  0  0  0  0  0
    9.3974    0.5090    0.0000 H   0  0  0  0  0  0  0  0  0  0  0  0
    6.6929    4.4496    0.0000 H   0  0  0  0  0  0  0  0  0  0  0  0
   10.1061    3.5292    0.0000 H   0  0  0  0  0  0  0  0  0  0  0  0
   10.7284    4.1468    0.0000 H   0  0  0  0  0  0  0  0  0  0  0  0
   10.1108    4.7692    0.0000 H   0  0  0  0  0  0  0  0  0  0  0  0
   10.1475    4.7050    0.0000 H   0  0  0  0  0  0  0  0  0  0  0  0
    9.9238    5.5528    0.0000 H   0  0  0  0  0  0  0  0  0  0  0  0
    9.0760    5.3292    0.0000 H   0  0  0  0  0  0  0  0  0  0  0  0
    3.7391    0.6148    0.0000 H   0  0  0  0  0  0  0  0  0  0  0  0
    7.8670   -1.7502    0.0000 H   0  0  0  0  0  0  0  0  0  0  0  0
    9.8833    2.0984    0.0000 H   0  0  0  0  0  0  0  0  0  0  0  0
    4.9397   -3.4705    0.0000 H   0  0  0  0  0  0  0  0  0  0  0  0
    5.4732    3.6431    0.0000 H   0  0  0  0  0  0  0  0  0  0  0  0
    2.3162    0.5481    0.0000 H   0  0  0  0  0  0  0  0  0  0  0  0
    1.4667    0.3310    0.0000 H   0  0  0  0  0  0  0  0  0  0  0  0
    1.6838   -0.5185    0.0000 H   0  0  0  0  0  0  0  0  0  0  0  0
    2.2287   -1.4879    0.0000 H   0  0  0  0  0  0  0  0  0  0  0  0
    2.8414   -2.1150    0.0000 H   0  0  0  0  0  0  0  0  0  0  0  0
    3.4686   -1.5022    0.0000 H   0  0  0  0  0  0  0  0  0  0  0  0
   11.9118    0.9180    0.0000 H   0  0  0  0  0  0  0  0  0  0  0  0
   12.1485    1.7622    0.0000 H   0  0  0  0  0  0  0  0  0  0  0  0
   11.3043    1.9989    0.0000 H   0  0  0  0  0  0  0  0  0  0  0  0
   10.1048   -0.0243    0.0000 H   0  0  0  0  0  0  0  0  0  0  0  0
   10.7176   -0.6514    0.0000 H   0  0  0  0  0  0  0  0  0  0  0  0
   11.3447   -0.0386    0.0000 H   0  0  0  0  0  0  0  0  0  0  0  0
    8.2318   -4.2652    0.0000 H   0  0  0  0  0  0  0  0  0  0  0  0
    5.8856   -5.0171    0.0000 H   0  0  0  0  0  0  0  0  0  0  0  0
  1  8  1  0  0  0  0
  1 10  1  0  0  0  0
  2 11  1  0  0  0  0
  2 15  1  0  0  0  0
  3 16  1  0  0  0  0
  3 25  1  0  0  0  0
  4 17  1  0  0  0  0
  4 53  1  0  0  0  0
  5 18  2  0  0  0  0
  6 31  1  0  0  0  0
  6 66  1  0  0  0  0
  7 32  1  0  0  0  0
  7 67  1  0  0  0  0
  8 19  1  0  0  0  0
  8 23  1  0  0  0  0
  8 24  1  0  0  0  0
  9 10  2  0  0  0  0
  9 11  1  0  0  0  0
  9 20  1  0  0  0  0
 10 14  1  0  0  0  0
 11 12  2  0  0  0  0
 12 17  1  0  0  0  0
 12 18  1  0  0  0  0
 13 15  2  0  0  0  0
 13 16  1  0  0  0  0
 13 18  1  0  0  0  0
 14 17  2  0  0  0  0
 14 22  1  0  0  0  0
 15 21  1  0  0  0  0
 16 26  1  0  0  0  0
 16 38  1  0  0  0  0
 19 22  2  0  0  0  0
 19 39  1  0  0  0  0
 20 28  1  0  0  0  0
 20 40  1  0  0  0  0
 20 41  1  0  0  0  0
 21 25  1  0  0  0  0
 21 27  2  0  0  0  0
 22 42  1  0  0  0  0
 23 46  1  0  0  0  0
 23 47  1  0  0  0  0
 23 48  1  0  0  0  0
 24 43  1  0  0  0  0
 24 44  1  0  0  0  0
 24 45  1  0  0  0  0
 25 29  2  0  0  0  0
 26 30  2  0  0  0  0
 26 49  1  0  0  0  0
 27 31  1  0  0  0  0
 27 50  1  0  0  0  0
 28 33  2  0  0  0  0
 28 51  1  0  0  0  0
 29 32  1  0  0  0  0
 29 52  1  0  0  0  0
 30 34  1  0  0  0  0
 30 35  1  0  0  0  0
 31 32  2  0  0  0  0
 33 36  1  0  0  0  0
 33 37  1  0  0  0  0
 34 54  1  0  0  0  0
 34 55  1  0  0  0  0
 34 56  1  0  0  0  0
 35 57  1  0  0  0  0
 35 58  1  0  0  0  0
 35 59  1  0  0  0  0
 36 60  1  0  0  0  0
 36 61  1  0  0  0  0
 36 62  1  0  0  0  0
 37 63  1  0  0  0  0
 37 64  1  0  0  0  0
 37 65  1  0  0  0  0
M  END
>  <PUBCHEM_COMPOUND_CID>
5316250

>  <PUBCHEM_COMPOUND_CANONICALIZED>
1

>  <PUBCHEM_CACTVS_COMPLEXITY>
1040

>  <PUBCHEM_CACTVS_HBOND_ACCEPTOR>
7

>  <PUBCHEM_CACTVS_HBOND_DONOR>
3

>  <PUBCHEM_CACTVS_ROTATABLE_BOND>
3

>  <PUBCHEM_CACTVS_SUBSKEYS>
AAADceB4OAAAAAAAAAAAAAAAAAAAAAAAAAAwYIECAAAAAACRQAAAGgAACAAADFSgmAIyBoAABgCIAqBSAAACCAAkIAAIiAEGiMgNJzaGNRqCeWGl4BUJuQfI7PzOIQADCAAIQABCAAYQABCAAAAAAAAAAA==

>  <PUBCHEM_IUPAC_INCHI>
InChI=1S/C30H30O7/c1-14(2)7-8-17-27-16(9-10-30(5,6)37-27)25(33)24-26(34)23-22(11-15(3)4)35-21-13-20(32)19(31)12-18(21)29(23)36-28(17)24/h7,9-13,22,31-33H,8H2,1-6H3

>  <PUBCHEM_IUPAC_INCHIKEY>
ZZPIXEJZTXAVCX-UHFFFAOYSA-N

>  <PUBCHEM_XLOGP3_AA>
6.8

>  <PUBCHEM_EXACT_MASS>
502.199

>  <PUBCHEM_MOLECULAR_FORMULA>
C30H30O7

>  <PUBCHEM_MOLECULAR_WEIGHT>
502.563

>  <PUBCHEM_OPENEYE_CAN_SMILES>
CC(=CCC1=C2C(=C(C3=C1OC4=C(C3=O)C(OC5=CC(=C(C=C54)O)O)C=C(C)C)O)C=CC(O2)(C)C)C

>  <PUBCHEM_OPENEYE_ISO_SMILES>
CC(=CCC1=C2C(=C(C3=C1OC4=C(C3=O)C(OC5=CC(=C(C=C54)O)O)C=C(C)C)O)C=CC(O2)(C)C)C

>  <PUBCHEM_CACTVS_TPSA>
105

>  <PUBCHEM_MONOISOTOPIC_WEIGHT>
502.199

>  <PUBCHEM_TOTAL_CHARGE>
0

>  <PUBCHEM_HEAVY_ATOM_COUNT>
37

>  <PUBCHEM_ATOM_DEF_STEREO_COUNT>
0

>  <PUBCHEM_ATOM_UDEF_STEREO_COUNT>
1

>  <PUBCHEM_BOND_DEF_STEREO_COUNT>
0

>  <PUBCHEM_BOND_UDEF_STEREO_COUNT>
0

>  <PUBCHEM_ISOTOPIC_ATOM_COUNT>
0

>  <PUBCHEM_COMPONENT_COUNT>
1

>  <PUBCHEM_CACTVS_TAUTO_COUNT>
58

>  <PUBCHEM_COORDINATE_TYPE>
1
5
255

>  <PUBCHEM_BONDANNOTATIONS>
10  14  8
11  12  8
12  17  8
12  18  8
13  15  8
13  18  8
14  17  8
16  26  3
2  11  8
2  15  8
21  25  8
21  27  8
25  29  8
27  31  8
29  32  8
31  32  8
9  10  8
9  11  8

$$$$
