5316316
 OpenBabel06101807152D

 22 22  0  0  1  0  0  0  0  0999 V2000
    5.1350   -1.0000    0.0000 O   0  0  0  0  0  0  0  0  0  0  0  0
    6.8671    1.0000    0.0000 O   0  0  0  0  0  0  0  0  0  0  0  0
    5.1350    2.0000    0.0000 O   0  0  0  0  0  0  0  0  0  0  0  0
    6.8671   -2.0000    0.0000 O   0  0  0  0  0  0  0  0  0  0  0  0
    7.7331   -0.5000    0.0000 O   0  0  0  0  0  0  0  0  0  0  0  0
    2.5369   -0.5000    0.0000 O   0  0  0  0  0  0  0  0  0  0  0  0
    3.4030   -2.0000    0.0000 O   0  0  0  0  0  0  0  0  0  0  0  0
    6.0010    0.5000    0.0000 C   0  0  3  0  0  0  0  0  0  0  0  0
    6.0010   -0.5000    0.0000 C   0  0  3  0  0  0  0  0  0  0  0  0
    5.1350    1.0000    0.0000 C   0  0  3  0  0  0  0  0  0  0  0  0
    4.2690    0.5000    0.0000 C   0  0  0  0  0  0  0  0  0  0  0  0
    4.2690   -0.5000    0.0000 C   0  0  0  0  0  0  0  0  0  0  0  0
    6.8671   -1.0000    0.0000 C   0  0  0  0  0  0  0  0  0  0  0  0
    3.4030   -1.0000    0.0000 C   0  0  0  0  0  0  0  0  0  0  0  0
    6.7372    0.0750    0.0000 H   0  0  0  0  0  0  0  0  0  0  0  0
    6.0010   -1.3500    0.0000 H   0  0  0  0  0  0  0  0  0  0  0  0
    5.8711    1.4250    0.0000 H   0  0  0  0  0  0  0  0  0  0  0  0
    3.7320    0.8100    0.0000 H   0  0  0  0  0  0  0  0  0  0  0  0
    6.8671    1.6200    0.0000 H   0  0  0  0  0  0  0  0  0  0  0  0
    4.5981    2.3100    0.0000 H   0  0  0  0  0  0  0  0  0  0  0  0
    7.4040   -2.3100    0.0000 H   0  0  0  0  0  0  0  0  0  0  0  0
    2.0000   -0.8100    0.0000 H   0  0  0  0  0  0  0  0  0  0  0  0
  1  9  1  0  0  0  0
  1 12  1  0  0  0  0
  2  8  1  0  0  0  0
  2 19  1  0  0  0  0
  3 10  1  0  0  0  0
  3 20  1  0  0  0  0
  4 13  1  0  0  0  0
  4 21  1  0  0  0  0
  5 13  2  0  0  0  0
  6 14  1  0  0  0  0
  6 22  1  0  0  0  0
  7 14  2  0  0  0  0
  8  9  1  0  0  0  0
  8 10  1  0  0  0  0
  8 15  1  0  0  0  0
  9 13  1  0  0  0  0
  9 16  1  0  0  0  0
 10 11  1  0  0  0  0
 10 17  1  0  0  0  0
 11 12  2  0  0  0  0
 11 18  1  0  0  0  0
 12 14  1  0  0  0  0
M  END
>  <PUBCHEM_COMPOUND_CID>
5316316

>  <PUBCHEM_COMPOUND_CANONICALIZED>
1

>  <PUBCHEM_CACTVS_COMPLEXITY>
294

>  <PUBCHEM_CACTVS_HBOND_ACCEPTOR>
7

>  <PUBCHEM_CACTVS_HBOND_DONOR>
4

>  <PUBCHEM_CACTVS_ROTATABLE_BOND>
2

>  <PUBCHEM_CACTVS_SUBSKEYS>
AAADccBgOAAAAAAAAAAAAAAAAAAAAAAAAAAgAAAAAAAAAAAAAAAAGgAACAAACBSggAIACAAABgCIACDSCAIACAAgIAAACAFAAEgBFBYAAAQCUAAF4AALEYLKAAAAAAAAAAAAAAAAAAAAAAAAAAAAAAAAAA==

>  <PUBCHEM_IUPAC_OPENEYE_NAME>
3,4-dihydroxy-3,4-dihydro-2H-pyran-2,6-dicarboxylic acid

>  <PUBCHEM_IUPAC_CAS_NAME>
3,4-dihydroxy-3,4-dihydro-2H-pyran-2,6-dicarboxylic acid

>  <PUBCHEM_IUPAC_NAME>
3,4-dihydroxy-3,4-dihydro-2H-pyran-2,6-dicarboxylic acid

>  <PUBCHEM_IUPAC_SYSTEMATIC_NAME>
3,4-bis(oxidanyl)-3,4-dihydro-2H-pyran-2,6-dicarboxylic acid

>  <PUBCHEM_IUPAC_TRADITIONAL_NAME>
3,4-dihydroxy-3,4-dihydro-2H-pyran-2,6-dicarboxylic acid

>  <PUBCHEM_IUPAC_INCHI>
InChI=1S/C7H8O7/c8-2-1-3(6(10)11)14-5(4(2)9)7(12)13/h1-2,4-5,8-9H,(H,10,11)(H,12,13)

>  <PUBCHEM_IUPAC_INCHIKEY>
KUKCUROTFRBUNU-UHFFFAOYSA-N

>  <PUBCHEM_XLOGP3_AA>
-1

>  <PUBCHEM_EXACT_MASS>
204.027

>  <PUBCHEM_MOLECULAR_FORMULA>
C7H8O7

>  <PUBCHEM_MOLECULAR_WEIGHT>
204.134

>  <PUBCHEM_OPENEYE_CAN_SMILES>
C1=C(OC(C(C1O)O)C(=O)O)C(=O)O

>  <PUBCHEM_OPENEYE_ISO_SMILES>
C1=C(OC(C(C1O)O)C(=O)O)C(=O)O

>  <PUBCHEM_CACTVS_TPSA>
124

>  <PUBCHEM_MONOISOTOPIC_WEIGHT>
204.027

>  <PUBCHEM_TOTAL_CHARGE>
0

>  <PUBCHEM_HEAVY_ATOM_COUNT>
14

>  <PUBCHEM_ATOM_DEF_STEREO_COUNT>
0

>  <PUBCHEM_ATOM_UDEF_STEREO_COUNT>
3

>  <PUBCHEM_BOND_DEF_STEREO_COUNT>
0

>  <PUBCHEM_BOND_UDEF_STEREO_COUNT>
0

>  <PUBCHEM_ISOTOPIC_ATOM_COUNT>
0

>  <PUBCHEM_COMPONENT_COUNT>
1

>  <PUBCHEM_CACTVS_TAUTO_COUNT>
1

>  <PUBCHEM_COORDINATE_TYPE>
1
5
255

>  <PUBCHEM_BONDANNOTATIONS>
10  17  3
8  15  3
9  16  3

$$$$
