5317483
 OpenBabel06101807152D

 48 50  0  0  0  0  0  0  0  0999 V2000
    8.1301   -0.1754    0.0000 O   0  0  0  0  0  0  0  0  0  0  0  0
    6.3817    2.8592    0.0000 O   0  0  0  0  0  0  0  0  0  0  0  0
    4.6000   -0.1995    0.0000 O   0  0  0  0  0  0  0  0  0  0  0  0
    9.8622    1.8246    0.0000 O   0  0  0  0  0  0  0  0  0  0  0  0
    8.1301    2.8246    0.0000 O   0  0  0  0  0  0  0  0  0  0  0  0
   10.7282   -2.6754    0.0000 O   0  0  0  0  0  0  0  0  0  0  0  0
   12.4602   -1.6754    0.0000 O   0  0  0  0  0  0  0  0  0  0  0  0
    7.2641    1.3246    0.0000 C   0  0  0  0  0  0  0  0  0  0  0  0
    5.4641    1.3454    0.0000 C   0  0  0  0  0  0  0  0  0  0  0  0
    7.2641    0.3246    0.0000 C   0  0  0  0  0  0  0  0  0  0  0  0
    6.3701    1.8593    0.0000 C   0  0  0  0  0  0  0  0  0  0  0  0
    4.6000    1.8488    0.0000 C   0  0  0  0  0  0  0  0  0  0  0  0
    5.4641    0.3038    0.0000 C   0  0  0  0  0  0  0  0  0  0  0  0
    6.3701   -0.2101    0.0000 C   0  0  0  0  0  0  0  0  0  0  0  0
    8.9961    0.3246    0.0000 C   0  0  0  0  0  0  0  0  0  0  0  0
    8.1301    1.8246    0.0000 C   0  0  0  0  0  0  0  0  0  0  0  0
    8.9961    1.3246    0.0000 C   0  0  0  0  0  0  0  0  0  0  0  0
    9.8622   -0.1754    0.0000 C   0  0  0  0  0  0  0  0  0  0  0  0
    3.7320    1.3521    0.0000 C   0  0  0  0  0  0  0  0  0  0  0  0
    2.8680    1.8554    0.0000 C   0  0  0  0  0  0  0  0  0  0  0  0
    9.8622   -1.1754    0.0000 C   0  0  0  0  0  0  0  0  0  0  0  0
   10.7282    0.3246    0.0000 C   0  0  0  0  0  0  0  0  0  0  0  0
   10.7282   -1.6754    0.0000 C   0  0  0  0  0  0  0  0  0  0  0  0
   11.5942   -0.1754    0.0000 C   0  0  0  0  0  0  0  0  0  0  0  0
   11.5942   -1.1754    0.0000 C   0  0  0  0  0  0  0  0  0  0  0  0
    2.0000    1.3588    0.0000 C   0  0  0  0  0  0  0  0  0  0  0  0
    2.8718    2.8554    0.0000 C   0  0  0  0  0  0  0  0  0  0  0  0
   11.5942   -3.1754    0.0000 C   0  0  0  0  0  0  0  0  0  0  0  0
    5.0003    2.3222    0.0000 H   0  0  0  0  0  0  0  0  0  0  0  0
    4.2033    2.3252    0.0000 H   0  0  0  0  0  0  0  0  0  0  0  0
    6.3773   -0.8300    0.0000 H   0  0  0  0  0  0  0  0  0  0  0  0
    3.7296    0.7321    0.0000 H   0  0  0  0  0  0  0  0  0  0  0  0
    9.3252   -1.4854    0.0000 H   0  0  0  0  0  0  0  0  0  0  0  0
   10.7282    0.9446    0.0000 H   0  0  0  0  0  0  0  0  0  0  0  0
    5.8484    3.1754    0.0000 H   0  0  0  0  0  0  0  0  0  0  0  0
   12.1311    0.1346    0.0000 H   0  0  0  0  0  0  0  0  0  0  0  0
    4.6024   -0.8195    0.0000 H   0  0  0  0  0  0  0  0  0  0  0  0
    1.6921    1.8969    0.0000 H   0  0  0  0  0  0  0  0  0  0  0  0
    1.4619    1.0508    0.0000 H   0  0  0  0  0  0  0  0  0  0  0  0
    2.3079    0.8206    0.0000 H   0  0  0  0  0  0  0  0  0  0  0  0
    3.4918    2.8530    0.0000 H   0  0  0  0  0  0  0  0  0  0  0  0
    2.8742    3.4754    0.0000 H   0  0  0  0  0  0  0  0  0  0  0  0
    2.2518    2.8578    0.0000 H   0  0  0  0  0  0  0  0  0  0  0  0
    9.8622    2.4446    0.0000 H   0  0  0  0  0  0  0  0  0  0  0  0
   12.9972   -1.3654    0.0000 H   0  0  0  0  0  0  0  0  0  0  0  0
   11.2842   -3.7123    0.0000 H   0  0  0  0  0  0  0  0  0  0  0  0
   12.1311   -3.4854    0.0000 H   0  0  0  0  0  0  0  0  0  0  0  0
   11.9042   -2.6385    0.0000 H   0  0  0  0  0  0  0  0  0  0  0  0
  1 10  1  0  0  0  0
  1 15  1  0  0  0  0
  2 11  1  0  0  0  0
  2 35  1  0  0  0  0
  3 13  1  0  0  0  0
  3 37  1  0  0  0  0
  4 17  1  0  0  0  0
  4 44  1  0  0  0  0
  5 16  2  0  0  0  0
  6 23  1  0  0  0  0
  6 28  1  0  0  0  0
  7 25  1  0  0  0  0
  7 45  1  0  0  0  0
  8 10  1  0  0  0  0
  8 11  2  0  0  0  0
  8 16  1  0  0  0  0
  9 11  1  0  0  0  0
  9 12  1  0  0  0  0
  9 13  2  0  0  0  0
 10 14  2  0  0  0  0
 12 19  1  0  0  0  0
 12 29  1  0  0  0  0
 12 30  1  0  0  0  0
 13 14  1  0  0  0  0
 14 31  1  0  0  0  0
 15 17  2  0  0  0  0
 15 18  1  0  0  0  0
 16 17  1  0  0  0  0
 18 21  2  0  0  0  0
 18 22  1  0  0  0  0
 19 20  2  0  0  0  0
 19 32  1  0  0  0  0
 20 26  1  0  0  0  0
 20 27  1  0  0  0  0
 21 23  1  0  0  0  0
 21 33  1  0  0  0  0
 22 24  2  0  0  0  0
 22 34  1  0  0  0  0
 23 25  2  0  0  0  0
 24 25  1  0  0  0  0
 24 36  1  0  0  0  0
 26 38  1  0  0  0  0
 26 39  1  0  0  0  0
 26 40  1  0  0  0  0
 27 41  1  0  0  0  0
 27 42  1  0  0  0  0
 27 43  1  0  0  0  0
 28 46  1  0  0  0  0
 28 47  1  0  0  0  0
 28 48  1  0  0  0  0
M  END
>  <PUBCHEM_COMPOUND_CID>
5317483

>  <PUBCHEM_COMPOUND_CANONICALIZED>
1

>  <PUBCHEM_CACTVS_COMPLEXITY>
651

>  <PUBCHEM_CACTVS_HBOND_ACCEPTOR>
7

>  <PUBCHEM_CACTVS_HBOND_DONOR>
4

>  <PUBCHEM_CACTVS_ROTATABLE_BOND>
4

>  <PUBCHEM_CACTVS_SUBSKEYS>
AAADceB4OAAAAAAAAAAAAAAAAAAAAAAAAAAwYIAAAAAAAACBQAAAGgAACAAADASAmAIyBoAABgCIAqBSAAICCAAkIAAIiAFGiMgNJzaGNRqCeWOl4BULuQfI7PzOIAADCAAIQABAAAYQABCAAAAAAAAAAA==

>  <PUBCHEM_IUPAC_OPENEYE_NAME>
3,5,7-trihydroxy-2-(4-hydroxy-3-methoxy-phenyl)-6-(3-methylbut-2-enyl)chromen-4-one

>  <PUBCHEM_IUPAC_CAS_NAME>
3,5,7-trihydroxy-2-(4-hydroxy-3-methoxyphenyl)-6-(3-methylbut-2-enyl)-1-benzopyran-4-one

>  <PUBCHEM_IUPAC_NAME>
3,5,7-trihydroxy-2-(4-hydroxy-3-methoxyphenyl)-6-(3-methylbut-2-enyl)chromen-4-one

>  <PUBCHEM_IUPAC_SYSTEMATIC_NAME>
2-(3-methoxy-4-oxidanyl-phenyl)-6-(3-methylbut-2-enyl)-3,5,7-tris(oxidanyl)chromen-4-one

>  <PUBCHEM_IUPAC_TRADITIONAL_NAME>
3,5,7-trihydroxy-2-(4-hydroxy-3-methoxy-phenyl)-6-(3-methylbut-2-enyl)chromone

>  <PUBCHEM_IUPAC_INCHI>
InChI=1S/C21H20O7/c1-10(2)4-6-12-14(23)9-16-17(18(12)24)19(25)20(26)21(28-16)11-5-7-13(22)15(8-11)27-3/h4-5,7-9,22-24,26H,6H2,1-3H3

>  <PUBCHEM_IUPAC_INCHIKEY>
UXTFKMCFQVSJLL-UHFFFAOYSA-N

>  <PUBCHEM_XLOGP3_AA>
4.4

>  <PUBCHEM_EXACT_MASS>
384.121

>  <PUBCHEM_MOLECULAR_FORMULA>
C21H20O7

>  <PUBCHEM_MOLECULAR_WEIGHT>
384.384

>  <PUBCHEM_OPENEYE_CAN_SMILES>
CC(=CCC1=C(C=C2C(=C1O)C(=O)C(=C(O2)C3=CC(=C(C=C3)O)OC)O)O)C

>  <PUBCHEM_OPENEYE_ISO_SMILES>
CC(=CCC1=C(C=C2C(=C1O)C(=O)C(=C(O2)C3=CC(=C(C=C3)O)OC)O)O)C

>  <PUBCHEM_CACTVS_TPSA>
116

>  <PUBCHEM_MONOISOTOPIC_WEIGHT>
384.121

>  <PUBCHEM_TOTAL_CHARGE>
0

>  <PUBCHEM_HEAVY_ATOM_COUNT>
28

>  <PUBCHEM_ATOM_DEF_STEREO_COUNT>
0

>  <PUBCHEM_ATOM_UDEF_STEREO_COUNT>
0

>  <PUBCHEM_BOND_DEF_STEREO_COUNT>
0

>  <PUBCHEM_BOND_UDEF_STEREO_COUNT>
0

>  <PUBCHEM_ISOTOPIC_ATOM_COUNT>
0

>  <PUBCHEM_COMPONENT_COUNT>
1

>  <PUBCHEM_CACTVS_TAUTO_COUNT>
998

>  <PUBCHEM_COORDINATE_TYPE>
1
5
255

>  <PUBCHEM_BONDANNOTATIONS>
1  10  8
1  15  8
10  14  8
13  14  8
15  17  8
16  17  8
18  21  8
18  22  8
21  23  8
22  24  8
23  25  8
24  25  8
8  10  8
8  11  8
8  16  8
9  11  8
9  13  8

$$$$
