5317777
 OpenBabel06101807152D

 32 35  0  0  0  0  0  0  0  0999 V2000
   10.4786   -0.0374    0.0000 O   0  0  0  0  0  0  0  0  0  0  0  0
   10.4786    1.5721    0.0000 O   0  0  0  0  0  0  0  0  0  0  0  0
    6.0682   -1.7327    0.0000 O   0  0  0  0  0  0  0  0  0  0  0  0
    8.6663   -1.2327    0.0000 O   0  0  0  0  0  0  0  0  0  0  0  0
    6.0682    1.2673    0.0000 O   0  0  0  0  0  0  0  0  0  0  0  0
    2.5381   -1.7568    0.0000 O   0  0  0  0  0  0  0  0  0  0  0  0
    7.8003    0.2673    0.0000 C   0  0  0  0  0  0  0  0  0  0  0  0
    6.9343   -0.2327    0.0000 C   0  0  0  0  0  0  0  0  0  0  0  0
    9.5323    0.2673    0.0000 C   0  0  0  0  0  0  0  0  0  0  0  0
    8.6663   -0.2327    0.0000 C   0  0  0  0  0  0  0  0  0  0  0  0
    9.5323    1.2673    0.0000 C   0  0  0  0  0  0  0  0  0  0  0  0
    5.2022   -0.2327    0.0000 C   0  0  0  0  0  0  0  0  0  0  0  0
    6.0682    0.2673    0.0000 C   0  0  0  0  0  0  0  0  0  0  0  0
    7.8003    1.2673    0.0000 C   0  0  0  0  0  0  0  0  0  0  0  0
    5.2022   -1.2327    0.0000 C   0  0  0  0  0  0  0  0  0  0  0  0
    8.6663    1.7673    0.0000 C   0  0  0  0  0  0  0  0  0  0  0  0
    6.9343   -1.2327    0.0000 C   0  0  0  0  0  0  0  0  0  0  0  0
   11.0622    0.7673    0.0000 C   0  0  0  0  0  0  0  0  0  0  0  0
    4.3083    0.3020    0.0000 C   0  0  0  0  0  0  0  0  0  0  0  0
    4.3083   -1.7673    0.0000 C   0  0  0  0  0  0  0  0  0  0  0  0
    3.4022   -0.2119    0.0000 C   0  0  0  0  0  0  0  0  0  0  0  0
    3.4022   -1.2535    0.0000 C   0  0  0  0  0  0  0  0  0  0  0  0
    7.2634    1.5773    0.0000 H   0  0  0  0  0  0  0  0  0  0  0  0
    8.6663    2.3873    0.0000 H   0  0  0  0  0  0  0  0  0  0  0  0
    7.4712   -1.5427    0.0000 H   0  0  0  0  0  0  0  0  0  0  0  0
   11.5231    0.3526    0.0000 H   0  0  0  0  0  0  0  0  0  0  0  0
   11.5231    1.1821    0.0000 H   0  0  0  0  0  0  0  0  0  0  0  0
    4.3154    0.9220    0.0000 H   0  0  0  0  0  0  0  0  0  0  0  0
    4.3154   -2.3873    0.0000 H   0  0  0  0  0  0  0  0  0  0  0  0
    2.8665    0.1002    0.0000 H   0  0  0  0  0  0  0  0  0  0  0  0
    9.2033   -1.5427    0.0000 H   0  0  0  0  0  0  0  0  0  0  0  0
    2.0000   -1.4489    0.0000 H   0  0  0  0  0  0  0  0  0  0  0  0
  1  9  1  0  0  0  0
  1 18  1  0  0  0  0
  2 11  1  0  0  0  0
  2 18  1  0  0  0  0
  3 15  1  0  0  0  0
  3 17  1  0  0  0  0
  4 10  1  0  0  0  0
  4 31  1  0  0  0  0
  5 13  2  0  0  0  0
  6 22  1  0  0  0  0
  6 32  1  0  0  0  0
  7  8  1  0  0  0  0
  7 10  2  0  0  0  0
  7 14  1  0  0  0  0
  8 13  1  0  0  0  0
  8 17  2  0  0  0  0
  9 10  1  0  0  0  0
  9 11  2  0  0  0  0
 11 16  1  0  0  0  0
 12 13  1  0  0  0  0
 12 15  2  0  0  0  0
 12 19  1  0  0  0  0
 14 16  2  0  0  0  0
 14 23  1  0  0  0  0
 15 20  1  0  0  0  0
 16 24  1  0  0  0  0
 17 25  1  0  0  0  0
 18 26  1  0  0  0  0
 18 27  1  0  0  0  0
 19 21  2  0  0  0  0
 19 28  1  0  0  0  0
 20 22  2  0  0  0  0
 20 29  1  0  0  0  0
 21 22  1  0  0  0  0
 21 30  1  0  0  0  0
M  END
>  <PUBCHEM_COMPOUND_CID>
5317777

>  <PUBCHEM_COMPOUND_CANONICALIZED>
1

>  <PUBCHEM_CACTVS_COMPLEXITY>
489

>  <PUBCHEM_CACTVS_HBOND_ACCEPTOR>
6

>  <PUBCHEM_CACTVS_HBOND_DONOR>
2

>  <PUBCHEM_CACTVS_ROTATABLE_BOND>
1

>  <PUBCHEM_CACTVS_SUBSKEYS>
AAADccB4OAAAAAAAAAAAAAAAAAAAASAAAAAwYIAAAAAAAEiBQAAAGgAACAAADASgmAMwDoAABgCIAqBSAAACCAAkIAAIiAEGiMgdJzaGNRqgcWMl4BUPuYeK7PzOIAABCAAIQABAAAIQABCAAAAAAAAAAA==

>  <PUBCHEM_IUPAC_OPENEYE_NAME>
7-hydroxy-3-(4-hydroxy-1,3-benzodioxol-5-yl)chromen-4-one

>  <PUBCHEM_IUPAC_CAS_NAME>
7-hydroxy-3-(4-hydroxy-1,3-benzodioxol-5-yl)-1-benzopyran-4-one

>  <PUBCHEM_IUPAC_NAME>
7-hydroxy-3-(4-hydroxy-1,3-benzodioxol-5-yl)chromen-4-one

>  <PUBCHEM_IUPAC_SYSTEMATIC_NAME>
7-oxidanyl-3-(4-oxidanyl-1,3-benzodioxol-5-yl)chromen-4-one

>  <PUBCHEM_IUPAC_TRADITIONAL_NAME>
7-hydroxy-3-(4-hydroxy-1,3-benzodioxol-5-yl)chromone

>  <PUBCHEM_IUPAC_INCHI>
InChI=1S/C16H10O6/c17-8-1-2-10-13(5-8)20-6-11(14(10)18)9-3-4-12-16(15(9)19)22-7-21-12/h1-6,17,19H,7H2

>  <PUBCHEM_IUPAC_INCHIKEY>
GRMSSCUVELGNHC-UHFFFAOYSA-N

>  <PUBCHEM_XLOGP3_AA>
2.3

>  <PUBCHEM_EXACT_MASS>
298.048

>  <PUBCHEM_MOLECULAR_FORMULA>
C16H10O6

>  <PUBCHEM_MOLECULAR_WEIGHT>
298.25

>  <PUBCHEM_OPENEYE_CAN_SMILES>
C1OC2=C(O1)C(=C(C=C2)C3=COC4=C(C3=O)C=CC(=C4)O)O

>  <PUBCHEM_OPENEYE_ISO_SMILES>
C1OC2=C(O1)C(=C(C=C2)C3=COC4=C(C3=O)C=CC(=C4)O)O

>  <PUBCHEM_CACTVS_TPSA>
85.2

>  <PUBCHEM_MONOISOTOPIC_WEIGHT>
298.048

>  <PUBCHEM_TOTAL_CHARGE>
0

>  <PUBCHEM_HEAVY_ATOM_COUNT>
22

>  <PUBCHEM_ATOM_DEF_STEREO_COUNT>
0

>  <PUBCHEM_ATOM_UDEF_STEREO_COUNT>
0

>  <PUBCHEM_BOND_DEF_STEREO_COUNT>
0

>  <PUBCHEM_BOND_UDEF_STEREO_COUNT>
0

>  <PUBCHEM_ISOTOPIC_ATOM_COUNT>
0

>  <PUBCHEM_COMPONENT_COUNT>
1

>  <PUBCHEM_CACTVS_TAUTO_COUNT>
10

>  <PUBCHEM_COORDINATE_TYPE>
1
5
255

>  <PUBCHEM_BONDANNOTATIONS>
11  16  8
12  13  8
12  15  8
12  19  8
14  16  8
15  20  8
19  21  8
20  22  8
21  22  8
3  15  8
3  17  8
7  10  8
7  14  8
8  13  8
8  17  8
9  10  8
9  11  8

$$$$
