5317481
 OpenBabel06101807152D

 48 50  0  0  0  0  0  0  0  0999 V2000
    6.0290   -0.1467    0.0000 O   0  0  0  0  0  0  0  0  0  0  0  0
    2.5369   -0.1121    0.0000 O   0  0  0  0  0  0  0  0  0  0  0  0
    4.2690    2.8879    0.0000 O   0  0  0  0  0  0  0  0  0  0  0  0
    6.0174    2.9225    0.0000 O   0  0  0  0  0  0  0  0  0  0  0  0
   10.3914    3.4221    0.0000 O   0  0  0  0  0  0  0  0  0  0  0  0
   10.3991    1.4221    0.0000 O   0  0  0  0  0  0  0  0  0  0  0  0
    2.5369   -4.1121    0.0000 O   0  0  0  0  0  0  0  0  0  0  0  0
    4.2690   -0.1121    0.0000 C   0  0  0  0  0  0  0  0  0  0  0  0
    5.1350    0.3879    0.0000 C   0  0  0  0  0  0  0  0  0  0  0  0
    5.1350    1.3879    0.0000 C   0  0  0  0  0  0  0  0  0  0  0  0
    4.2690   -1.1121    0.0000 C   0  0  0  0  0  0  0  0  0  0  0  0
    6.9350    1.4087    0.0000 C   0  0  0  0  0  0  0  0  0  0  0  0
    6.0290    1.9226    0.0000 C   0  0  0  0  0  0  0  0  0  0  0  0
    3.4030    0.3879    0.0000 C   0  0  0  0  0  0  0  0  0  0  0  0
    4.2690    1.8879    0.0000 C   0  0  0  0  0  0  0  0  0  0  0  0
    3.4030    1.3879    0.0000 C   0  0  0  0  0  0  0  0  0  0  0  0
    7.7991    1.9121    0.0000 C   0  0  0  0  0  0  0  0  0  0  0  0
    6.9350    0.3671    0.0000 C   0  0  0  0  0  0  0  0  0  0  0  0
    3.4030   -1.6121    0.0000 C   0  0  0  0  0  0  0  0  0  0  0  0
    3.4030   -2.6121    0.0000 C   0  0  0  0  0  0  0  0  0  0  0  0
    8.6671    1.4154    0.0000 C   0  0  0  0  0  0  0  0  0  0  0  0
    7.7953    2.9121    0.0000 C   0  0  0  0  0  0  0  0  0  0  0  0
    9.5312    1.9188    0.0000 C   0  0  0  0  0  0  0  0  0  0  0  0
    8.6594    3.4154    0.0000 C   0  0  0  0  0  0  0  0  0  0  0  0
    2.5369   -3.1121    0.0000 C   0  0  0  0  0  0  0  0  0  0  0  0
    9.5273    2.9188    0.0000 C   0  0  0  0  0  0  0  0  0  0  0  0
    4.2690   -3.1121    0.0000 C   0  0  0  0  0  0  0  0  0  0  0  0
   10.3875    4.4221    0.0000 C   0  0  0  0  0  0  0  0  0  0  0  0
    4.4810   -1.6947    0.0000 H   0  0  0  0  0  0  0  0  0  0  0  0
    4.8796   -1.0044    0.0000 H   0  0  0  0  0  0  0  0  0  0  0  0
    2.8660    1.6979    0.0000 H   0  0  0  0  0  0  0  0  0  0  0  0
    7.4708    0.0550    0.0000 H   0  0  0  0  0  0  0  0  0  0  0  0
    2.8660   -1.3021    0.0000 H   0  0  0  0  0  0  0  0  0  0  0  0
    8.6694    0.7954    0.0000 H   0  0  0  0  0  0  0  0  0  0  0  0
    7.2571    3.2200    0.0000 H   0  0  0  0  0  0  0  0  0  0  0  0
    8.6570    4.0354    0.0000 H   0  0  0  0  0  0  0  0  0  0  0  0
    2.3249   -2.5295    0.0000 H   0  0  0  0  0  0  0  0  0  0  0  0
    1.9264   -3.2197    0.0000 H   0  0  0  0  0  0  0  0  0  0  0  0
    3.9590   -3.6490    0.0000 H   0  0  0  0  0  0  0  0  0  0  0  0
    4.8059   -3.4221    0.0000 H   0  0  0  0  0  0  0  0  0  0  0  0
    4.5790   -2.5751    0.0000 H   0  0  0  0  0  0  0  0  0  0  0  0
    2.0000    0.1979    0.0000 H   0  0  0  0  0  0  0  0  0  0  0  0
    3.7320    3.1979    0.0000 H   0  0  0  0  0  0  0  0  0  0  0  0
   10.4015    0.8021    0.0000 H   0  0  0  0  0  0  0  0  0  0  0  0
    2.0000   -4.4221    0.0000 H   0  0  0  0  0  0  0  0  0  0  0  0
   11.0075    4.4245    0.0000 H   0  0  0  0  0  0  0  0  0  0  0  0
   10.3851    5.0421    0.0000 H   0  0  0  0  0  0  0  0  0  0  0  0
    9.7675    4.4197    0.0000 H   0  0  0  0  0  0  0  0  0  0  0  0
  1  9  1  0  0  0  0
  1 18  1  0  0  0  0
  2 14  1  0  0  0  0
  2 42  1  0  0  0  0
  3 15  1  0  0  0  0
  3 43  1  0  0  0  0
  4 13  2  0  0  0  0
  5 26  1  0  0  0  0
  5 28  1  0  0  0  0
  6 23  1  0  0  0  0
  6 44  1  0  0  0  0
  7 25  1  0  0  0  0
  7 45  1  0  0  0  0
  8  9  2  0  0  0  0
  8 11  1  0  0  0  0
  8 14  1  0  0  0  0
  9 10  1  0  0  0  0
 10 13  1  0  0  0  0
 10 15  2  0  0  0  0
 11 19  1  0  0  0  0
 11 29  1  0  0  0  0
 11 30  1  0  0  0  0
 12 13  1  0  0  0  0
 12 17  1  0  0  0  0
 12 18  2  0  0  0  0
 14 16  2  0  0  0  0
 15 16  1  0  0  0  0
 16 31  1  0  0  0  0
 17 21  2  0  0  0  0
 17 22  1  0  0  0  0
 18 32  1  0  0  0  0
 19 20  2  0  0  0  0
 19 33  1  0  0  0  0
 20 25  1  0  0  0  0
 20 27  1  0  0  0  0
 21 23  1  0  0  0  0
 21 34  1  0  0  0  0
 22 24  2  0  0  0  0
 22 35  1  0  0  0  0
 23 26  2  0  0  0  0
 24 26  1  0  0  0  0
 24 36  1  0  0  0  0
 25 37  1  0  0  0  0
 25 38  1  0  0  0  0
 27 39  1  0  0  0  0
 27 40  1  0  0  0  0
 27 41  1  0  0  0  0
 28 46  1  0  0  0  0
 28 47  1  0  0  0  0
 28 48  1  0  0  0  0
M  END
>  <PUBCHEM_COMPOUND_CID>
5317481

>  <PUBCHEM_COMPOUND_CANONICALIZED>
1

>  <PUBCHEM_CACTVS_COMPLEXITY>
628

>  <PUBCHEM_CACTVS_HBOND_ACCEPTOR>
7

>  <PUBCHEM_CACTVS_HBOND_DONOR>
4

>  <PUBCHEM_CACTVS_ROTATABLE_BOND>
5

>  <PUBCHEM_CACTVS_SUBSKEYS>
AAADceB4OAAAAAAAAAAAAAAAAAAAAAAAAAAwYIAAAAAAAACBQAAAGgAACAAADASgmAIyBoAABgCIAqBSAAACCAAkIAAIiAEGiMgNNzaGNRqAcWMl4BULuYeI7PzOIAADCAAIQABAAAYQABCAAAAAAAAAAA==

>  <PUBCHEM_IUPAC_OPENEYE_NAME>
5,7-dihydroxy-3-(3-hydroxy-4-methoxy-phenyl)-8-[(E)-4-hydroxy-3-methyl-but-2-enyl]chromen-4-one

>  <PUBCHEM_IUPAC_CAS_NAME>
5,7-dihydroxy-3-(3-hydroxy-4-methoxyphenyl)-8-[(E)-4-hydroxy-3-methylbut-2-enyl]-1-benzopyran-4-one

>  <PUBCHEM_IUPAC_NAME>
5,7-dihydroxy-3-(3-hydroxy-4-methoxyphenyl)-8-[(E)-4-hydroxy-3-methylbut-2-enyl]chromen-4-one

>  <PUBCHEM_IUPAC_SYSTEMATIC_NAME>
3-(4-methoxy-3-oxidanyl-phenyl)-8-[(E)-3-methyl-4-oxidanyl-but-2-enyl]-5,7-bis(oxidanyl)chromen-4-one

>  <PUBCHEM_IUPAC_TRADITIONAL_NAME>
5,7-dihydroxy-3-(3-hydroxy-4-methoxy-phenyl)-8-[(E)-4-hydroxy-3-methyl-but-2-enyl]chromone

>  <PUBCHEM_IUPAC_INCHI>
InChI=1S/C21H20O7/c1-11(9-22)3-5-13-15(23)8-17(25)19-20(26)14(10-28-21(13)19)12-4-6-18(27-2)16(24)7-12/h3-4,6-8,10,22-25H,5,9H2,1-2H3/b11-3+

>  <PUBCHEM_IUPAC_INCHIKEY>
UCKSAYIMWMIZQJ-QDEBKDIKSA-N

>  <PUBCHEM_XLOGP3_AA>
3.3

>  <PUBCHEM_EXACT_MASS>
384.121

>  <PUBCHEM_MOLECULAR_FORMULA>
C21H20O7

>  <PUBCHEM_MOLECULAR_WEIGHT>
384.384

>  <PUBCHEM_OPENEYE_CAN_SMILES>
CC(=CCC1=C(C=C(C2=C1OC=C(C2=O)C3=CC(=C(C=C3)OC)O)O)O)CO

>  <PUBCHEM_OPENEYE_ISO_SMILES>
C/C(=C\CC1=C(C=C(C2=C1OC=C(C2=O)C3=CC(=C(C=C3)OC)O)O)O)/CO

>  <PUBCHEM_CACTVS_TPSA>
116

>  <PUBCHEM_MONOISOTOPIC_WEIGHT>
384.121

>  <PUBCHEM_TOTAL_CHARGE>
0

>  <PUBCHEM_HEAVY_ATOM_COUNT>
28

>  <PUBCHEM_ATOM_DEF_STEREO_COUNT>
0

>  <PUBCHEM_ATOM_UDEF_STEREO_COUNT>
0

>  <PUBCHEM_BOND_DEF_STEREO_COUNT>
1

>  <PUBCHEM_BOND_UDEF_STEREO_COUNT>
0

>  <PUBCHEM_ISOTOPIC_ATOM_COUNT>
0

>  <PUBCHEM_COMPONENT_COUNT>
1

>  <PUBCHEM_CACTVS_TAUTO_COUNT>
36

>  <PUBCHEM_COORDINATE_TYPE>
1
5
255

>  <PUBCHEM_BONDANNOTATIONS>
1  18  8
1  9  8
10  13  8
10  15  8
12  13  8
12  18  8
14  16  8
15  16  8
17  21  8
17  22  8
21  23  8
22  24  8
23  26  8
24  26  8
8  14  8
8  9  8
9  10  8

$$$$
