5317482
 OpenBabel06101807152D

 43 47  0  0  0  0  0  0  0  0999 V2000
   10.7758   -0.7389    0.0000 O   0  0  0  0  0  0  0  0  0  0  0  0
    5.9065   -0.4582    0.0000 O   0  0  0  0  0  0  0  0  0  0  0  0
    8.0505    1.6103    0.0000 O   0  0  0  0  0  0  0  0  0  0  0  0
    7.3193   -1.8147    0.0000 O   0  0  0  0  0  0  0  0  0  0  0  0
    6.7634    2.7693    0.0000 O   0  0  0  0  0  0  0  0  0  0  0  0
    2.4170    0.4461    0.0000 O   0  0  0  0  0  0  0  0  0  0  0  0
   11.1190   -1.7682    0.0000 C   0  0  0  0  0  0  0  0  0  0  0  0
    7.6904   -0.0839    0.0000 C   0  0  0  0  0  0  0  0  0  0  0  0
    9.0142   -1.3038    0.0000 C   0  0  0  0  0  0  0  0  0  0  0  0
    9.7112   -0.5297    0.0000 C   0  0  0  0  0  0  0  0  0  0  0  0
    6.7123    0.1240    0.0000 C   0  0  0  0  0  0  0  0  0  0  0  0
    7.9970   -1.0794    0.0000 C   0  0  0  0  0  0  0  0  0  0  0  0
    8.3596    0.6593    0.0000 C   0  0  0  0  0  0  0  0  0  0  0  0
    6.4033    1.0751    0.0000 C   0  0  0  0  0  0  0  0  0  0  0  0
   10.3930   -2.5745    0.0000 C   0  0  0  0  0  0  0  0  0  0  0  0
    9.3816    0.4584    0.0000 C   0  0  0  0  0  0  0  0  0  0  0  0
    9.3335   -2.3407    0.0000 C   0  0  0  0  0  0  0  0  0  0  0  0
    5.4092    1.0725    0.0000 C   0  0  0  0  0  0  0  0  0  0  0  0
   11.8647   -2.4344    0.0000 C   0  0  0  0  0  0  0  0  0  0  0  0
   12.0689   -1.4555    0.0000 C   0  0  0  0  0  0  0  0  0  0  0  0
    5.1028    0.1268    0.0000 C   0  0  0  0  0  0  0  0  0  0  0  0
    7.0724    1.8182    0.0000 C   0  0  0  0  0  0  0  0  0  0  0  0
    4.7276    1.8520    0.0000 C   0  0  0  0  0  0  0  0  0  0  0  0
    4.0936   -0.1049    0.0000 C   0  0  0  0  0  0  0  0  0  0  0  0
    3.7133    1.6437    0.0000 C   0  0  0  0  0  0  0  0  0  0  0  0
    3.3942    0.6586    0.0000 C   0  0  0  0  0  0  0  0  0  0  0  0
    7.6173   -2.7693    0.0000 C   0  0  0  0  0  0  0  0  0  0  0  0
   10.5823   -3.1649    0.0000 H   0  0  0  0  0  0  0  0  0  0  0  0
    9.7912    0.9240    0.0000 H   0  0  0  0  0  0  0  0  0  0  0  0
    8.9133   -2.7966    0.0000 H   0  0  0  0  0  0  0  0  0  0  0  0
   11.4517   -2.8968    0.0000 H   0  0  0  0  0  0  0  0  0  0  0  0
   12.3271   -2.8475    0.0000 H   0  0  0  0  0  0  0  0  0  0  0  0
   12.2627   -2.0444    0.0000 H   0  0  0  0  0  0  0  0  0  0  0  0
   12.6578   -1.2616    0.0000 H   0  0  0  0  0  0  0  0  0  0  0  0
   11.8750   -0.8666    0.0000 H   0  0  0  0  0  0  0  0  0  0  0  0
   12.2778   -1.9721    0.0000 H   0  0  0  0  0  0  0  0  0  0  0  0
    4.9255    2.4396    0.0000 H   0  0  0  0  0  0  0  0  0  0  0  0
    3.9094   -0.6969    0.0000 H   0  0  0  0  0  0  0  0  0  0  0  0
    3.2998    2.1056    0.0000 H   0  0  0  0  0  0  0  0  0  0  0  0
    7.0255   -2.9540    0.0000 H   0  0  0  0  0  0  0  0  0  0  0  0
    7.8021   -3.3611    0.0000 H   0  0  0  0  0  0  0  0  0  0  0  0
    8.2092   -2.5845    0.0000 H   0  0  0  0  0  0  0  0  0  0  0  0
    2.0000    0.9049    0.0000 H   0  0  0  0  0  0  0  0  0  0  0  0
  1  7  1  0  0  0  0
  1 10  1  0  0  0  0
  2 11  1  0  0  0  0
  2 21  1  0  0  0  0
  3 13  1  0  0  0  0
  3 22  1  0  0  0  0
  4 12  1  0  0  0  0
  4 27  1  0  0  0  0
  5 22  2  0  0  0  0
  6 26  1  0  0  0  0
  6 43  1  0  0  0  0
  7 15  1  0  0  0  0
  7 19  1  0  0  0  0
  7 20  1  0  0  0  0
  8 11  1  0  0  0  0
  8 12  2  0  0  0  0
  8 13  1  0  0  0  0
  9 10  2  0  0  0  0
  9 12  1  0  0  0  0
  9 17  1  0  0  0  0
 10 16  1  0  0  0  0
 11 14  2  0  0  0  0
 13 16  2  0  0  0  0
 14 18  1  0  0  0  0
 14 22  1  0  0  0  0
 15 17  2  0  0  0  0
 15 28  1  0  0  0  0
 16 29  1  0  0  0  0
 17 30  1  0  0  0  0
 18 21  2  0  0  0  0
 18 23  1  0  0  0  0
 19 31  1  0  0  0  0
 19 32  1  0  0  0  0
 19 36  1  0  0  0  0
 20 33  1  0  0  0  0
 20 34  1  0  0  0  0
 20 35  1  0  0  0  0
 21 24  1  0  0  0  0
 23 25  2  0  0  0  0
 23 37  1  0  0  0  0
 24 26  2  0  0  0  0
 24 38  1  0  0  0  0
 25 26  1  0  0  0  0
 25 39  1  0  0  0  0
 27 40  1  0  0  0  0
 27 41  1  0  0  0  0
 27 42  1  0  0  0  0
M  END
>  <PUBCHEM_COMPOUND_CID>
5317482

>  <PUBCHEM_COMPOUND_CANONICALIZED>
1

>  <PUBCHEM_CACTVS_COMPLEXITY>
645

>  <PUBCHEM_CACTVS_HBOND_ACCEPTOR>
6

>  <PUBCHEM_CACTVS_HBOND_DONOR>
1

>  <PUBCHEM_CACTVS_ROTATABLE_BOND>
1

>  <PUBCHEM_CACTVS_SUBSKEYS>
AAADceB4OAAAAAAAAAAAAAAAAAAAASAAAAA0YIEAAAAAAEiR9AAAGgAACAAADESAmAIyDsAABkCIAqDSCAACCAAkIAAIiAEGCMgMJzaONRqCe2Cl4BUIuYfL7PzOoAACCAAIAABAAAQQABAAAAAAAAAAAA==

>  <PUBCHEM_IUPAC_INCHI>
InChI=1S/C21H16O6/c1-21(2)7-6-12-14(27-21)9-15-17(18(12)24-3)19-16(20(23)26-15)11-5-4-10(22)8-13(11)25-19/h4-9,22H,1-3H3

>  <PUBCHEM_IUPAC_INCHIKEY>
YURHIASRSSMERJ-UHFFFAOYSA-N

>  <PUBCHEM_XLOGP3_AA>
4

>  <PUBCHEM_EXACT_MASS>
364.095

>  <PUBCHEM_MOLECULAR_FORMULA>
C21H16O6

>  <PUBCHEM_MOLECULAR_WEIGHT>
364.353

>  <PUBCHEM_OPENEYE_CAN_SMILES>
CC1(C=CC2=C(O1)C=C3C(=C2OC)C4=C(C5=C(O4)C=C(C=C5)O)C(=O)O3)C

>  <PUBCHEM_OPENEYE_ISO_SMILES>
CC1(C=CC2=C(O1)C=C3C(=C2OC)C4=C(C5=C(O4)C=C(C=C5)O)C(=O)O3)C

>  <PUBCHEM_CACTVS_TPSA>
78.1

>  <PUBCHEM_MONOISOTOPIC_WEIGHT>
364.095

>  <PUBCHEM_TOTAL_CHARGE>
0

>  <PUBCHEM_HEAVY_ATOM_COUNT>
27

>  <PUBCHEM_ATOM_DEF_STEREO_COUNT>
0

>  <PUBCHEM_ATOM_UDEF_STEREO_COUNT>
0

>  <PUBCHEM_BOND_DEF_STEREO_COUNT>
0

>  <PUBCHEM_BOND_UDEF_STEREO_COUNT>
0

>  <PUBCHEM_ISOTOPIC_ATOM_COUNT>
0

>  <PUBCHEM_COMPONENT_COUNT>
1

>  <PUBCHEM_CACTVS_TAUTO_COUNT>
3

>  <PUBCHEM_COORDINATE_TYPE>
1
5
255

>  <PUBCHEM_BONDANNOTATIONS>
10  16  8
11  14  8
13  16  8
14  18  8
14  22  8
18  21  8
18  23  8
2  11  8
2  21  8
21  24  8
23  25  8
24  26  8
25  26  8
3  13  8
3  22  8
8  11  8
8  12  8
8  13  8
9  10  8
9  12  8

$$$$
