5318825
 OpenBabel06101807152D

 42 45  0  0  0  0  0  0  0  0999 V2000
    9.1534   -0.5591    0.0000 O   0  0  0  0  0  0  0  0  0  0  0  0
    2.8182    1.3712    0.0000 O   0  0  0  0  0  0  0  0  0  0  0  0
    2.1888   -0.5715    0.0000 O   0  0  0  0  0  0  0  0  0  0  0  0
    5.6783   -1.4757    0.0000 N   0  0  0  0  0  0  0  0  0  0  0  0
    6.4840   -0.8935    0.0000 C   0  0  0  0  0  0  0  0  0  0  0  0
    9.4829   -1.5473    0.0000 C   0  0  0  0  0  0  0  0  0  0  0  0
    7.4622   -1.1014    0.0000 C   0  0  0  0  0  0  0  0  0  0  0  0
    6.1750    0.0575    0.0000 C   0  0  0  0  0  0  0  0  0  0  0  0
    8.1313   -0.3583    0.0000 C   0  0  0  0  0  0  0  0  0  0  0  0
    5.1810    0.0549    0.0000 C   0  0  0  0  0  0  0  0  0  0  0  0
    7.8223    0.5928    0.0000 C   0  0  0  0  0  0  0  0  0  0  0  0
    4.8746   -0.8908    0.0000 C   0  0  0  0  0  0  0  0  0  0  0  0
    6.8442    0.8007    0.0000 C   0  0  0  0  0  0  0  0  0  0  0  0
    8.7859   -2.3214    0.0000 C   0  0  0  0  0  0  0  0  0  0  0  0
    7.7688   -2.0970    0.0000 C   0  0  0  0  0  0  0  0  0  0  0  0
   10.2286   -2.2135    0.0000 C   0  0  0  0  0  0  0  0  0  0  0  0
   10.4328   -1.2346    0.0000 C   0  0  0  0  0  0  0  0  0  0  0  0
    4.4994    0.8344    0.0000 C   0  0  0  0  0  0  0  0  0  0  0  0
    3.8654   -1.1225    0.0000 C   0  0  0  0  0  0  0  0  0  0  0  0
    8.4914    1.3359    0.0000 C   0  0  0  0  0  0  0  0  0  0  0  0
    3.4851    0.6261    0.0000 C   0  0  0  0  0  0  0  0  0  0  0  0
    3.1660   -0.3590    0.0000 C   0  0  0  0  0  0  0  0  0  0  0  0
    3.1300    2.3214    0.0000 C   0  0  0  0  0  0  0  0  0  0  0  0
    5.6772   -2.0957    0.0000 H   0  0  0  0  0  0  0  0  0  0  0  0
    6.6526    1.3903    0.0000 H   0  0  0  0  0  0  0  0  0  0  0  0
    8.9753   -2.9118    0.0000 H   0  0  0  0  0  0  0  0  0  0  0  0
    7.3486   -2.5529    0.0000 H   0  0  0  0  0  0  0  0  0  0  0  0
    9.8156   -2.6759    0.0000 H   0  0  0  0  0  0  0  0  0  0  0  0
   10.6910   -2.6266    0.0000 H   0  0  0  0  0  0  0  0  0  0  0  0
   10.6417   -1.7512    0.0000 H   0  0  0  0  0  0  0  0  0  0  0  0
   10.6266   -1.8235    0.0000 H   0  0  0  0  0  0  0  0  0  0  0  0
   11.0217   -1.0407    0.0000 H   0  0  0  0  0  0  0  0  0  0  0  0
   10.2389   -0.6457    0.0000 H   0  0  0  0  0  0  0  0  0  0  0  0
    4.6973    1.4220    0.0000 H   0  0  0  0  0  0  0  0  0  0  0  0
    3.6812   -1.7145    0.0000 H   0  0  0  0  0  0  0  0  0  0  0  0
    8.9522    0.9210    0.0000 H   0  0  0  0  0  0  0  0  0  0  0  0
    8.9063    1.7966    0.0000 H   0  0  0  0  0  0  0  0  0  0  0  0
    8.0307    1.7508    0.0000 H   0  0  0  0  0  0  0  0  0  0  0  0
    2.0000   -1.1620    0.0000 H   0  0  0  0  0  0  0  0  0  0  0  0
    3.7191    2.1280    0.0000 H   0  0  0  0  0  0  0  0  0  0  0  0
    3.3234    2.9104    0.0000 H   0  0  0  0  0  0  0  0  0  0  0  0
    2.5410    2.5147    0.0000 H   0  0  0  0  0  0  0  0  0  0  0  0
  1  6  1  0  0  0  0
  1  9  1  0  0  0  0
  2 21  1  0  0  0  0
  2 23  1  0  0  0  0
  3 22  1  0  0  0  0
  3 39  1  0  0  0  0
  4  5  1  0  0  0  0
  4 12  1  0  0  0  0
  4 24  1  0  0  0  0
  5  7  1  0  0  0  0
  5  8  2  0  0  0  0
  6 14  1  0  0  0  0
  6 16  1  0  0  0  0
  6 17  1  0  0  0  0
  7  9  2  0  0  0  0
  7 15  1  0  0  0  0
  8 10  1  0  0  0  0
  8 13  1  0  0  0  0
  9 11  1  0  0  0  0
 10 12  1  0  0  0  0
 10 18  2  0  0  0  0
 11 13  2  0  0  0  0
 11 20  1  0  0  0  0
 12 19  2  0  0  0  0
 13 25  1  0  0  0  0
 14 15  2  0  0  0  0
 14 26  1  0  0  0  0
 15 27  1  0  0  0  0
 16 28  1  0  0  0  0
 16 29  1  0  0  0  0
 16 30  1  0  0  0  0
 17 31  1  0  0  0  0
 17 32  1  0  0  0  0
 17 33  1  0  0  0  0
 18 21  1  0  0  0  0
 18 34  1  0  0  0  0
 19 22  1  0  0  0  0
 19 35  1  0  0  0  0
 20 36  1  0  0  0  0
 20 37  1  0  0  0  0
 20 38  1  0  0  0  0
 21 22  2  0  0  0  0
 23 40  1  0  0  0  0
 23 41  1  0  0  0  0
 23 42  1  0  0  0  0
M  END
>  <PUBCHEM_COMPOUND_CID>
5318825

>  <PUBCHEM_COMPOUND_CANONICALIZED>
1

>  <PUBCHEM_CACTVS_COMPLEXITY>
491

>  <PUBCHEM_CACTVS_HBOND_ACCEPTOR>
3

>  <PUBCHEM_CACTVS_HBOND_DONOR>
2

>  <PUBCHEM_CACTVS_ROTATABLE_BOND>
1

>  <PUBCHEM_CACTVS_SUBSKEYS>
AAADceB6MAAAAAAAAAAAAAAAAAAAAWAAAAAwYIAAAAAAAFiB/AAAHgAQCAAADEyBngIyxvLJlgCgAyRiRACCiCAhIiAImSA27JgNJuLGsZuGeCvm0BnL+Aew0PMOqEADAgAKQABQgAYEABSAAAAAAAAAAA==

>  <PUBCHEM_IUPAC_OPENEYE_NAME>
8-methoxy-3,3,5-trimethyl-11H-pyrano[3,2-a]carbazol-9-ol

>  <PUBCHEM_IUPAC_CAS_NAME>
8-methoxy-3,3,5-trimethyl-11H-pyrano[3,2-a]carbazol-9-ol

>  <PUBCHEM_IUPAC_NAME>
8-methoxy-3,3,5-trimethyl-11H-pyrano[3,2-a]carbazol-9-ol

>  <PUBCHEM_IUPAC_SYSTEMATIC_NAME>
8-methoxy-3,3,5-trimethyl-11H-pyrano[3,2-a]carbazol-9-ol

>  <PUBCHEM_IUPAC_TRADITIONAL_NAME>
8-methoxy-3,3,5-trimethyl-11H-pyrano[3,2-a]carbazol-9-ol

>  <PUBCHEM_IUPAC_INCHI>
InChI=1S/C19H19NO3/c1-10-7-13-12-8-16(22-4)15(21)9-14(12)20-17(13)11-5-6-19(2,3)23-18(10)11/h5-9,20-21H,1-4H3

>  <PUBCHEM_IUPAC_INCHIKEY>
CZZZOTXCAIDYOZ-UHFFFAOYSA-N

>  <PUBCHEM_XLOGP3_AA>
4.3

>  <PUBCHEM_EXACT_MASS>
309.136

>  <PUBCHEM_MOLECULAR_FORMULA>
C19H19NO3

>  <PUBCHEM_MOLECULAR_WEIGHT>
309.365

>  <PUBCHEM_OPENEYE_CAN_SMILES>
CC1=C2C(=C3C(=C1)C4=CC(=C(C=C4N3)O)OC)C=CC(O2)(C)C

>  <PUBCHEM_OPENEYE_ISO_SMILES>
CC1=C2C(=C3C(=C1)C4=CC(=C(C=C4N3)O)OC)C=CC(O2)(C)C

>  <PUBCHEM_CACTVS_TPSA>
54.5

>  <PUBCHEM_MONOISOTOPIC_WEIGHT>
309.136

>  <PUBCHEM_TOTAL_CHARGE>
0

>  <PUBCHEM_HEAVY_ATOM_COUNT>
23

>  <PUBCHEM_ATOM_DEF_STEREO_COUNT>
0

>  <PUBCHEM_ATOM_UDEF_STEREO_COUNT>
0

>  <PUBCHEM_BOND_DEF_STEREO_COUNT>
0

>  <PUBCHEM_BOND_UDEF_STEREO_COUNT>
0

>  <PUBCHEM_ISOTOPIC_ATOM_COUNT>
0

>  <PUBCHEM_COMPONENT_COUNT>
1

>  <PUBCHEM_CACTVS_TAUTO_COUNT>
9

>  <PUBCHEM_COORDINATE_TYPE>
1
5
255

>  <PUBCHEM_BONDANNOTATIONS>
10  12  8
10  18  8
11  13  8
12  19  8
18  21  8
19  22  8
21  22  8
4  12  8
4  5  8
5  7  8
5  8  8
7  9  8
8  10  8
8  13  8
9  11  8

$$$$
