5318311
 OpenBabel06101807152D

 42 47  0  0  1  0  0  0  0  0999 V2000
    2.9180    1.3320    0.0000 O   0  0  0  0  0  0  0  0  0  0  0  0
    2.0000   -1.2164    0.0000 O   0  0  0  0  0  0  0  0  0  0  0  0
    4.7689   -0.3416    0.0000 O   0  0  0  0  0  0  0  0  0  0  0  0
    5.5161   -0.1680    0.0000 O   0  0  0  0  0  0  0  0  0  0  0  0
    5.5740   -3.5326    0.0000 O   0  0  0  0  0  0  0  0  0  0  0  0
    4.0684   -4.4174    0.0000 O   0  0  0  0  0  0  0  0  0  0  0  0
    4.8839    4.4135    0.0000 O   0  0  0  0  0  0  0  0  0  0  0  0
    2.8963    3.3635    0.0000 O   0  0  0  0  0  0  0  0  0  0  0  0
    3.7841   -0.1680    0.0000 C   0  0  3  0  0  0  0  0  0  0  0  0
    2.9180    0.3320    0.0000 C   0  0  3  0  0  0  0  0  0  0  0  0
    3.8001   -1.2095    0.0000 C   0  0  0  0  0  0  0  0  0  0  0  0
    2.0080   -0.1748    0.0000 C   0  0  0  0  0  0  0  0  0  0  0  0
    4.6501    0.3320    0.0000 C   0  0  0  0  0  0  0  0  0  0  0  0
    2.9021   -1.7372    0.0000 C   0  0  0  0  0  0  0  0  0  0  0  0
    4.6501    1.3320    0.0000 C   0  0  0  0  0  0  0  0  0  0  0  0
    3.7841    1.8320    0.0000 C   0  0  0  0  0  0  0  0  0  0  0  0
    4.7520   -1.7301    0.0000 C   0  0  0  0  0  0  0  0  0  0  0  0
    2.8937   -2.8222    0.0000 C   0  0  0  0  0  0  0  0  0  0  0  0
    5.5601    1.8388    0.0000 C   0  0  0  0  0  0  0  0  0  0  0  0
    3.7680    2.8735    0.0000 C   0  0  0  0  0  0  0  0  0  0  0  0
    4.7688   -2.8150    0.0000 C   0  0  0  0  0  0  0  0  0  0  0  0
    3.8334   -3.3647    0.0000 C   0  0  0  0  0  0  0  0  0  0  0  0
    5.5681    2.8804    0.0000 C   0  0  0  0  0  0  0  0  0  0  0  0
    4.6660    3.4013    0.0000 C   0  0  0  0  0  0  0  0  0  0  0  0
    6.3358    3.5753    0.0000 C   0  0  0  0  0  0  0  0  0  0  0  0
    5.1420   -4.5209    0.0000 C   0  0  0  0  0  0  0  0  0  0  0  0
    5.9138    4.5209    0.0000 C   0  0  0  0  0  0  0  0  0  0  0  0
    2.8847    4.3634    0.0000 C   0  0  0  0  0  0  0  0  0  0  0  0
    2.3835    0.6461    0.0000 H   0  0  0  0  0  0  0  0  0  0  0  0
    1.8035    0.4104    0.0000 H   0  0  0  0  0  0  0  0  0  0  0  0
    1.3964   -0.2762    0.0000 H   0  0  0  0  0  0  0  0  0  0  0  0
    5.2829   -1.4098    0.0000 H   0  0  0  0  0  0  0  0  0  0  0  0
    4.9809   -0.9242    0.0000 H   0  0  0  0  0  0  0  0  0  0  0  0
    2.3556   -3.1301    0.0000 H   0  0  0  0  0  0  0  0  0  0  0  0
    6.0934    1.5227    0.0000 H   0  0  0  0  0  0  0  0  0  0  0  0
    6.9425    3.4474    0.0000 H   0  0  0  0  0  0  0  0  0  0  0  0
    5.0180   -5.1284    0.0000 H   0  0  0  0  0  0  0  0  0  0  0  0
    5.7331   -4.7081    0.0000 H   0  0  0  0  0  0  0  0  0  0  0  0
    6.2238    5.0578    0.0000 H   0  0  0  0  0  0  0  0  0  0  0  0
    3.5046    4.3706    0.0000 H   0  0  0  0  0  0  0  0  0  0  0  0
    2.8775    4.9834    0.0000 H   0  0  0  0  0  0  0  0  0  0  0  0
    2.2647    4.3562    0.0000 H   0  0  0  0  0  0  0  0  0  0  0  0
  1 10  1  0  0  0  0
  1 16  1  0  0  0  0
  2 12  1  0  0  0  0
  2 14  1  0  0  0  0
  3  9  1  0  0  0  0
  3 33  1  0  0  0  0
  4 13  2  0  0  0  0
  5 21  1  0  0  0  0
  5 26  1  0  0  0  0
  6 22  1  0  0  0  0
  6 26  1  0  0  0  0
  7 24  1  0  0  0  0
  7 27  1  0  0  0  0
  8 20  1  0  0  0  0
  8 28  1  0  0  0  0
  9 10  1  0  0  0  0
  9 11  1  0  0  0  0
  9 13  1  0  0  0  0
 10 12  1  0  0  0  0
 10 29  1  0  0  0  0
 11 14  1  0  0  0  0
 11 17  2  0  0  0  0
 12 30  1  0  0  0  0
 12 31  1  0  0  0  0
 13 15  1  0  0  0  0
 14 18  2  0  0  0  0
 15 16  2  0  0  0  0
 15 19  1  0  0  0  0
 16 20  1  0  0  0  0
 17 21  1  0  0  0  0
 17 32  1  0  0  0  0
 18 22  1  0  0  0  0
 18 34  1  0  0  0  0
 19 23  2  0  0  0  0
 19 35  1  0  0  0  0
 20 24  2  0  0  0  0
 21 22  2  0  0  0  0
 23 24  1  0  0  0  0
 23 25  1  0  0  0  0
 25 27  2  0  0  0  0
 25 36  1  0  0  0  0
 26 37  1  0  0  0  0
 26 38  1  0  0  0  0
 27 39  1  0  0  0  0
 28 40  1  0  0  0  0
 28 41  1  0  0  0  0
 28 42  1  0  0  0  0
M  END
>  <PUBCHEM_COMPOUND_CID>
5318311

>  <PUBCHEM_COMPOUND_CANONICALIZED>
1

>  <PUBCHEM_CACTVS_COMPLEXITY>
656

>  <PUBCHEM_CACTVS_HBOND_ACCEPTOR>
8

>  <PUBCHEM_CACTVS_HBOND_DONOR>
1

>  <PUBCHEM_CACTVS_ROTATABLE_BOND>
1

>  <PUBCHEM_CACTVS_SUBSKEYS>
AAADccB4PAAAAAAAAAAAAAAAAAAAASJAAAA0aIEAAAAAAEiR9AAAGgAACAAADFSgmAMyDsAABkCIAqhSgAICCAAkIAAIiAFGiMgdJzaENR6ieWKl4BUPuYfK7vzuoQADCAAIQABCAAYQABCAAAAAAAAAAA==

>  <PUBCHEM_IUPAC_INCHI>
InChI=1S/C20H14O8/c1-23-18-16-9(2-3-24-16)4-10-17(18)28-15-7-25-12-6-14-13(26-8-27-14)5-11(12)20(15,22)19(10)21/h2-6,15,22H,7-8H2,1H3

>  <PUBCHEM_IUPAC_INCHIKEY>
DDGYXSWHWAQNRQ-UHFFFAOYSA-N

>  <PUBCHEM_XLOGP3_AA>
2.3

>  <PUBCHEM_EXACT_MASS>
382.069

>  <PUBCHEM_MOLECULAR_FORMULA>
C20H14O8

>  <PUBCHEM_MOLECULAR_WEIGHT>
382.324

>  <PUBCHEM_OPENEYE_CAN_SMILES>
COC1=C2C(=CC3=C1OC4COC5=CC6=C(C=C5C4(C3=O)O)OCO6)C=CO2

>  <PUBCHEM_OPENEYE_ISO_SMILES>
COC1=C2C(=CC3=C1OC4COC5=CC6=C(C=C5C4(C3=O)O)OCO6)C=CO2

>  <PUBCHEM_CACTVS_TPSA>
96.6

>  <PUBCHEM_MONOISOTOPIC_WEIGHT>
382.069

>  <PUBCHEM_TOTAL_CHARGE>
0

>  <PUBCHEM_HEAVY_ATOM_COUNT>
28

>  <PUBCHEM_ATOM_DEF_STEREO_COUNT>
0

>  <PUBCHEM_ATOM_UDEF_STEREO_COUNT>
2

>  <PUBCHEM_BOND_DEF_STEREO_COUNT>
0

>  <PUBCHEM_BOND_UDEF_STEREO_COUNT>
0

>  <PUBCHEM_ISOTOPIC_ATOM_COUNT>
0

>  <PUBCHEM_COMPONENT_COUNT>
1

>  <PUBCHEM_CACTVS_TAUTO_COUNT>
1

>  <PUBCHEM_COORDINATE_TYPE>
1
5
255

>  <PUBCHEM_BONDANNOTATIONS>
10  12  3
11  14  8
11  17  8
14  18  8
15  16  8
15  19  8
16  20  8
17  21  8
18  22  8
19  23  8
20  24  8
21  22  8
23  24  8
23  25  8
25  27  8
9  3  3
7  24  8
7  27  8

$$$$
