5318827
 OpenBabel06101807152D

 38 41  0  0  0  0  0  0  0  0999 V2000
    8.9421   -0.0841    0.0000 O   0  0  0  0  0  0  0  0  0  0  0  0
    2.6068    1.8463    0.0000 O   0  0  0  0  0  0  0  0  0  0  0  0
    5.4670   -1.0007    0.0000 N   0  0  0  0  0  0  0  0  0  0  0  0
    9.2716   -1.0722    0.0000 C   0  0  0  0  0  0  0  0  0  0  0  0
    6.2727   -0.4185    0.0000 C   0  0  0  0  0  0  0  0  0  0  0  0
    7.2509   -0.6264    0.0000 C   0  0  0  0  0  0  0  0  0  0  0  0
    5.9637    0.5326    0.0000 C   0  0  0  0  0  0  0  0  0  0  0  0
    7.9200    0.1168    0.0000 C   0  0  0  0  0  0  0  0  0  0  0  0
    4.9696    0.5300    0.0000 C   0  0  0  0  0  0  0  0  0  0  0  0
    7.6110    1.0678    0.0000 C   0  0  0  0  0  0  0  0  0  0  0  0
    4.6632   -0.4157    0.0000 C   0  0  0  0  0  0  0  0  0  0  0  0
    8.5746   -1.8463    0.0000 C   0  0  0  0  0  0  0  0  0  0  0  0
    6.6328    1.2757    0.0000 C   0  0  0  0  0  0  0  0  0  0  0  0
    7.5574   -1.6219    0.0000 C   0  0  0  0  0  0  0  0  0  0  0  0
   10.0173   -1.7385    0.0000 C   0  0  0  0  0  0  0  0  0  0  0  0
   10.2214   -0.7595    0.0000 C   0  0  0  0  0  0  0  0  0  0  0  0
    4.2880    1.3095    0.0000 C   0  0  0  0  0  0  0  0  0  0  0  0
    8.2801    1.8110    0.0000 C   0  0  0  0  0  0  0  0  0  0  0  0
    3.6540   -0.6474    0.0000 C   0  0  0  0  0  0  0  0  0  0  0  0
    3.2737    1.1012    0.0000 C   0  0  0  0  0  0  0  0  0  0  0  0
    2.9546    0.1161    0.0000 C   0  0  0  0  0  0  0  0  0  0  0  0
    8.7639   -2.4367    0.0000 H   0  0  0  0  0  0  0  0  0  0  0  0
    5.4659   -1.6207    0.0000 H   0  0  0  0  0  0  0  0  0  0  0  0
    6.4412    1.8654    0.0000 H   0  0  0  0  0  0  0  0  0  0  0  0
    7.1373   -2.0778    0.0000 H   0  0  0  0  0  0  0  0  0  0  0  0
    9.6042   -2.2008    0.0000 H   0  0  0  0  0  0  0  0  0  0  0  0
   10.4796   -2.1516    0.0000 H   0  0  0  0  0  0  0  0  0  0  0  0
   10.4304   -1.2761    0.0000 H   0  0  0  0  0  0  0  0  0  0  0  0
   10.4153   -1.3484    0.0000 H   0  0  0  0  0  0  0  0  0  0  0  0
   10.8104   -0.5657    0.0000 H   0  0  0  0  0  0  0  0  0  0  0  0
   10.0276   -0.1706    0.0000 H   0  0  0  0  0  0  0  0  0  0  0  0
    4.4859    1.8971    0.0000 H   0  0  0  0  0  0  0  0  0  0  0  0
    8.7408    1.3961    0.0000 H   0  0  0  0  0  0  0  0  0  0  0  0
    8.6950    2.2717    0.0000 H   0  0  0  0  0  0  0  0  0  0  0  0
    7.8194    2.2258    0.0000 H   0  0  0  0  0  0  0  0  0  0  0  0
    3.4698   -1.2394    0.0000 H   0  0  0  0  0  0  0  0  0  0  0  0
    2.3488   -0.0157    0.0000 H   0  0  0  0  0  0  0  0  0  0  0  0
    2.0000    1.7192    0.0000 H   0  0  0  0  0  0  0  0  0  0  0  0
  1  4  1  0  0  0  0
  1  8  1  0  0  0  0
  2 20  1  0  0  0  0
  2 38  1  0  0  0  0
  3  5  1  0  0  0  0
  3 11  1  0  0  0  0
  3 23  1  0  0  0  0
  4 12  1  0  0  0  0
  4 15  1  0  0  0  0
  4 16  1  0  0  0  0
  5  6  1  0  0  0  0
  5  7  2  0  0  0  0
  6  8  2  0  0  0  0
  6 14  1  0  0  0  0
  7  9  1  0  0  0  0
  7 13  1  0  0  0  0
  8 10  1  0  0  0  0
  9 11  2  0  0  0  0
  9 17  1  0  0  0  0
 10 13  2  0  0  0  0
 10 18  1  0  0  0  0
 11 19  1  0  0  0  0
 12 14  2  0  0  0  0
 12 22  1  0  0  0  0
 13 24  1  0  0  0  0
 14 25  1  0  0  0  0
 15 26  1  0  0  0  0
 15 27  1  0  0  0  0
 15 28  1  0  0  0  0
 16 29  1  0  0  0  0
 16 30  1  0  0  0  0
 16 31  1  0  0  0  0
 17 20  2  0  0  0  0
 17 32  1  0  0  0  0
 18 33  1  0  0  0  0
 18 34  1  0  0  0  0
 18 35  1  0  0  0  0
 19 21  2  0  0  0  0
 19 36  1  0  0  0  0
 20 21  1  0  0  0  0
 21 37  1  0  0  0  0
M  END
>  <PUBCHEM_COMPOUND_CID>
5318827

>  <PUBCHEM_COMPOUND_CANONICALIZED>
1

>  <PUBCHEM_CACTVS_COMPLEXITY>
447

>  <PUBCHEM_CACTVS_HBOND_ACCEPTOR>
2

>  <PUBCHEM_CACTVS_HBOND_DONOR>
2

>  <PUBCHEM_CACTVS_ROTATABLE_BOND>
0

>  <PUBCHEM_CACTVS_SUBSKEYS>
AAADceB6MAAAAAAAAAAAAAAAAAAAAWAAAAAwYIAAAAAAAFiB/AAAHgAQCAAADEyBngAyxvLJlgCgAyRiRACCiCAhIiAImSA2bJgMJuLGsZuGeCjm0BnI+Aew0PMOqEADAgAKAABQgAYEABQAAAAAAAAAAA==

>  <PUBCHEM_IUPAC_OPENEYE_NAME>
3,3,5-trimethyl-11H-pyrano[3,2-a]carbazol-8-ol

>  <PUBCHEM_IUPAC_CAS_NAME>
3,3,5-trimethyl-11H-pyrano[3,2-a]carbazol-8-ol

>  <PUBCHEM_IUPAC_NAME>
3,3,5-trimethyl-11H-pyrano[3,2-a]carbazol-8-ol

>  <PUBCHEM_IUPAC_SYSTEMATIC_NAME>
3,3,5-trimethyl-11H-pyrano[3,2-a]carbazol-8-ol

>  <PUBCHEM_IUPAC_TRADITIONAL_NAME>
3,3,5-trimethyl-11H-pyrano[3,2-a]carbazol-8-ol

>  <PUBCHEM_IUPAC_INCHI>
InChI=1S/C18H17NO2/c1-10-8-14-13-9-11(20)4-5-15(13)19-16(14)12-6-7-18(2,3)21-17(10)12/h4-9,19-20H,1-3H3

>  <PUBCHEM_IUPAC_INCHIKEY>
VISKLVOLGCYFCW-UHFFFAOYSA-N

>  <PUBCHEM_XLOGP3_AA>
4.3

>  <PUBCHEM_EXACT_MASS>
279.126

>  <PUBCHEM_MOLECULAR_FORMULA>
C18H17NO2

>  <PUBCHEM_MOLECULAR_WEIGHT>
279.339

>  <PUBCHEM_OPENEYE_CAN_SMILES>
CC1=C2C(=C3C(=C1)C4=C(N3)C=CC(=C4)O)C=CC(O2)(C)C

>  <PUBCHEM_OPENEYE_ISO_SMILES>
CC1=C2C(=C3C(=C1)C4=C(N3)C=CC(=C4)O)C=CC(O2)(C)C

>  <PUBCHEM_CACTVS_TPSA>
45.2

>  <PUBCHEM_MONOISOTOPIC_WEIGHT>
279.126

>  <PUBCHEM_TOTAL_CHARGE>
0

>  <PUBCHEM_HEAVY_ATOM_COUNT>
21

>  <PUBCHEM_ATOM_DEF_STEREO_COUNT>
0

>  <PUBCHEM_ATOM_UDEF_STEREO_COUNT>
0

>  <PUBCHEM_BOND_DEF_STEREO_COUNT>
0

>  <PUBCHEM_BOND_UDEF_STEREO_COUNT>
0

>  <PUBCHEM_ISOTOPIC_ATOM_COUNT>
0

>  <PUBCHEM_COMPONENT_COUNT>
1

>  <PUBCHEM_CACTVS_TAUTO_COUNT>
14

>  <PUBCHEM_COORDINATE_TYPE>
1
5
255

>  <PUBCHEM_BONDANNOTATIONS>
10  13  8
11  19  8
17  20  8
19  21  8
20  21  8
3  11  8
3  5  8
5  6  8
5  7  8
6  8  8
7  13  8
7  9  8
8  10  8
9  11  8
9  17  8

$$$$
