5318372
 OpenBabel06101807152D

 36 38  0  0  0  0  0  0  0  0999 V2000
    4.6660   -0.9031    0.0000 O   0  0  0  0  0  0  0  0  0  0  0  0
    8.1962    1.1211    0.0000 O   0  0  0  0  0  0  0  0  0  0  0  0
    8.1962   -0.9273    0.0000 O   0  0  0  0  0  0  0  0  0  0  0  0
    6.4144    2.1315    0.0000 O   0  0  0  0  0  0  0  0  0  0  0  0
    2.9176   -1.9377    0.0000 O   0  0  0  0  0  0  0  0  0  0  0  0
    4.6660    2.0969    0.0000 O   0  0  0  0  0  0  0  0  0  0  0  0
    5.5321    0.5969    0.0000 C   0  0  0  0  0  0  0  0  0  0  0  0
    5.5321   -0.4031    0.0000 C   0  0  0  0  0  0  0  0  0  0  0  0
    3.8000    0.5969    0.0000 C   0  0  0  0  0  0  0  0  0  0  0  0
    3.8000   -0.4031    0.0000 C   0  0  0  0  0  0  0  0  0  0  0  0
    4.6660    1.0969    0.0000 C   0  0  0  0  0  0  0  0  0  0  0  0
    6.4260    1.1316    0.0000 C   0  0  0  0  0  0  0  0  0  0  0  0
    6.4260   -0.9378    0.0000 C   0  0  0  0  0  0  0  0  0  0  0  0
    7.3321    0.6177    0.0000 C   0  0  0  0  0  0  0  0  0  0  0  0
    7.3321   -0.4239    0.0000 C   0  0  0  0  0  0  0  0  0  0  0  0
    2.9061   -0.9378    0.0000 C   0  0  0  0  0  0  0  0  0  0  0  0
    2.9061    1.1316    0.0000 C   0  0  0  0  0  0  0  0  0  0  0  0
    2.0000   -0.4239    0.0000 C   0  0  0  0  0  0  0  0  0  0  0  0
    2.0000    0.6177    0.0000 C   0  0  0  0  0  0  0  0  0  0  0  0
    9.0641    0.6244    0.0000 C   0  0  0  0  0  0  0  0  0  0  0  0
    8.1923   -1.9272    0.0000 C   0  0  0  0  0  0  0  0  0  0  0  0
    2.0574   -2.4477    0.0000 C   0  0  0  0  0  0  0  0  0  0  0  0
    6.4188   -1.5577    0.0000 H   0  0  0  0  0  0  0  0  0  0  0  0
    2.9132    1.7515    0.0000 H   0  0  0  0  0  0  0  0  0  0  0  0
    1.4643   -0.7360    0.0000 H   0  0  0  0  0  0  0  0  0  0  0  0
    1.4643    0.9298    0.0000 H   0  0  0  0  0  0  0  0  0  0  0  0
    6.9478    2.4477    0.0000 H   0  0  0  0  0  0  0  0  0  0  0  0
    8.7562    0.0863    0.0000 H   0  0  0  0  0  0  0  0  0  0  0  0
    9.6022    0.3165    0.0000 H   0  0  0  0  0  0  0  0  0  0  0  0
    9.3720    1.1625    0.0000 H   0  0  0  0  0  0  0  0  0  0  0  0
    7.5723   -1.9249    0.0000 H   0  0  0  0  0  0  0  0  0  0  0  0
    8.1899   -2.5472    0.0000 H   0  0  0  0  0  0  0  0  0  0  0  0
    8.8123   -1.9296    0.0000 H   0  0  0  0  0  0  0  0  0  0  0  0
    1.7413   -1.9144    0.0000 H   0  0  0  0  0  0  0  0  0  0  0  0
    1.5241   -2.7639    0.0000 H   0  0  0  0  0  0  0  0  0  0  0  0
    2.3736   -2.9810    0.0000 H   0  0  0  0  0  0  0  0  0  0  0  0
  1  8  1  0  0  0  0
  1 10  1  0  0  0  0
  2 14  1  0  0  0  0
  2 20  1  0  0  0  0
  3 15  1  0  0  0  0
  3 21  1  0  0  0  0
  4 12  1  0  0  0  0
  4 27  1  0  0  0  0
  5 16  1  0  0  0  0
  5 22  1  0  0  0  0
  6 11  2  0  0  0  0
  7  8  1  0  0  0  0
  7 11  1  0  0  0  0
  7 12  2  0  0  0  0
  8 13  2  0  0  0  0
  9 10  2  0  0  0  0
  9 11  1  0  0  0  0
  9 17  1  0  0  0  0
 10 16  1  0  0  0  0
 12 14  1  0  0  0  0
 13 15  1  0  0  0  0
 13 23  1  0  0  0  0
 14 15  2  0  0  0  0
 16 18  2  0  0  0  0
 17 19  2  0  0  0  0
 17 24  1  0  0  0  0
 18 19  1  0  0  0  0
 18 25  1  0  0  0  0
 19 26  1  0  0  0  0
 20 28  1  0  0  0  0
 20 29  1  0  0  0  0
 20 30  1  0  0  0  0
 21 31  1  0  0  0  0
 21 32  1  0  0  0  0
 21 33  1  0  0  0  0
 22 34  1  0  0  0  0
 22 35  1  0  0  0  0
 22 36  1  0  0  0  0
M  END
>  <PUBCHEM_COMPOUND_CID>
5318372

>  <PUBCHEM_COMPOUND_CANONICALIZED>
1

>  <PUBCHEM_CACTVS_COMPLEXITY>
413

>  <PUBCHEM_CACTVS_HBOND_ACCEPTOR>
6

>  <PUBCHEM_CACTVS_HBOND_DONOR>
1

>  <PUBCHEM_CACTVS_ROTATABLE_BOND>
3

>  <PUBCHEM_CACTVS_SUBSKEYS>
AAADccB4OAAAAAAAAAAAAAAAAAAAAAAAAAA0YIAAAAAAAACRQAAAGgAACAAADASAmAIyBoAABgCIAqBSAAACCAAkIAAIiAEGiMgNJzaGNRqCeWOl4BULuYfK7PzOIQABCAAIQABCAAIQABCAAAAAAAAAAA==

>  <PUBCHEM_IUPAC_OPENEYE_NAME>
1-hydroxy-2,3,5-trimethoxy-xanthen-9-one

>  <PUBCHEM_IUPAC_CAS_NAME>
1-hydroxy-2,3,5-trimethoxy-9-xanthenone

>  <PUBCHEM_IUPAC_NAME>
1-hydroxy-2,3,5-trimethoxyxanthen-9-one

>  <PUBCHEM_IUPAC_SYSTEMATIC_NAME>
2,3,5-trimethoxy-1-oxidanyl-xanthen-9-one

>  <PUBCHEM_IUPAC_TRADITIONAL_NAME>
1-hydroxy-2,3,5-trimethoxy-xanthone

>  <PUBCHEM_IUPAC_INCHI>
InChI=1S/C16H14O6/c1-19-9-6-4-5-8-13(17)12-10(22-15(8)9)7-11(20-2)16(21-3)14(12)18/h4-7,18H,1-3H3

>  <PUBCHEM_IUPAC_INCHIKEY>
FFVKXGZKJBHJMS-UHFFFAOYSA-N

>  <PUBCHEM_XLOGP3_AA>
3.1

>  <PUBCHEM_EXACT_MASS>
302.079

>  <PUBCHEM_MOLECULAR_FORMULA>
C16H14O6

>  <PUBCHEM_MOLECULAR_WEIGHT>
302.282

>  <PUBCHEM_OPENEYE_CAN_SMILES>
COC1=CC=CC2=C1OC3=CC(=C(C(=C3C2=O)O)OC)OC

>  <PUBCHEM_OPENEYE_ISO_SMILES>
COC1=CC=CC2=C1OC3=CC(=C(C(=C3C2=O)O)OC)OC

>  <PUBCHEM_CACTVS_TPSA>
74.2

>  <PUBCHEM_MONOISOTOPIC_WEIGHT>
302.079

>  <PUBCHEM_TOTAL_CHARGE>
0

>  <PUBCHEM_HEAVY_ATOM_COUNT>
22

>  <PUBCHEM_ATOM_DEF_STEREO_COUNT>
0

>  <PUBCHEM_ATOM_UDEF_STEREO_COUNT>
0

>  <PUBCHEM_BOND_DEF_STEREO_COUNT>
0

>  <PUBCHEM_BOND_UDEF_STEREO_COUNT>
0

>  <PUBCHEM_ISOTOPIC_ATOM_COUNT>
0

>  <PUBCHEM_COMPONENT_COUNT>
1

>  <PUBCHEM_CACTVS_TAUTO_COUNT>
5

>  <PUBCHEM_COORDINATE_TYPE>
1
5
255

>  <PUBCHEM_BONDANNOTATIONS>
1  10  8
1  8  8
10  16  8
12  14  8
13  15  8
14  15  8
16  18  8
17  19  8
18  19  8
7  11  8
7  12  8
7  8  8
8  13  8
9  10  8
9  11  8
9  17  8

$$$$
