5318135
 OpenBabel06101807152D

 70 75  0  0  1  0  0  0  0  0999 V2000
    7.7331   -0.2092    0.0000 O   0  0  0  0  0  0  0  0  0  0  0  0
    4.2690   -1.2092    0.0000 O   0  0  0  0  0  0  0  0  0  0  0  0
    6.0010   -1.2092    0.0000 O   0  0  0  0  0  0  0  0  0  0  0  0
    6.0010    1.7908    0.0000 O   0  0  0  0  0  0  0  0  0  0  0  0
    9.4651   -0.2092    0.0000 O   0  0  0  0  0  0  0  0  0  0  0  0
    7.7331    2.7908    0.0000 O   0  0  0  0  0  0  0  0  0  0  0  0
    9.4651    1.7908    0.0000 O   0  0  0  0  0  0  0  0  0  0  0  0
    6.0010   -3.2092    0.0000 O   0  0  0  0  0  0  0  0  0  0  0  0
    4.2690   -4.2092    0.0000 O   0  0  0  0  0  0  0  0  0  0  0  0
    2.5369   -3.2092    0.0000 O   0  0  0  0  0  0  0  0  0  0  0  0
    2.5369   -0.2092    0.0000 O   0  0  0  0  0  0  0  0  0  0  0  0
   12.9108   -0.2473    0.0000 O   0  0  0  0  0  0  0  0  0  0  0  0
   12.0993    3.3386    0.0000 O   0  0  0  0  0  0  0  0  0  0  0  0
   11.1747   -1.2102    0.0000 O   0  0  0  0  0  0  0  0  0  0  0  0
   10.3291    3.3493    0.0000 O   0  0  0  0  0  0  0  0  0  0  0  0
   13.9244    4.2373    0.0000 O   0  0  0  0  0  0  0  0  0  0  0  0
   14.6425   -0.2814    0.0000 O   0  0  0  0  0  0  0  0  0  0  0  0
   15.5932    3.1698    0.0000 O   0  0  0  0  0  0  0  0  0  0  0  0
    6.8671    0.2908    0.0000 C   0  0  1  0  0  0  0  0  0  0  0  0
    6.8671    1.2908    0.0000 C   0  0  2  0  0  0  0  0  0  0  0  0
    7.7331    1.7908    0.0000 C   0  0  1  0  0  0  0  0  0  0  0  0
    8.5991    1.2908    0.0000 C   0  0  2  0  0  0  0  0  0  0  0  0
    5.1350   -2.7092    0.0000 C   0  0  1  0  0  0  0  0  0  0  0  0
    5.1350   -1.7092    0.0000 C   0  0  1  0  0  0  0  0  0  0  0  0
    4.2690   -3.2092    0.0000 C   0  0  2  0  0  0  0  0  0  0  0  0
    3.4030   -2.7092    0.0000 C   0  0  1  0  0  0  0  0  0  0  0  0
    8.5991    0.2908    0.0000 C   0  0  1  0  0  0  0  0  0  0  0  0
    3.4030   -1.7092    0.0000 C   0  0  1  0  0  0  0  0  0  0  0  0
    6.0010   -0.2092    0.0000 C   0  0  0  0  0  0  0  0  0  0  0  0
    2.5369   -1.2092    0.0000 C   0  0  0  0  0  0  0  0  0  0  0  0
   10.3312    0.2908    0.0000 C   0  0  0  0  0  0  0  0  0  0  0  0
   12.0745    1.2694    0.0000 C   0  0  0  0  0  0  0  0  0  0  0  0
   11.1869   -0.2103    0.0000 C   0  0  0  0  0  0  0  0  0  0  0  0
   10.3251    1.2825    0.0000 C   0  0  0  0  0  0  0  0  0  0  0  0
   11.1746    1.7941    0.0000 C   0  0  0  0  0  0  0  0  0  0  0  0
   12.0548    0.2696    0.0000 C   0  0  0  0  0  0  0  0  0  0  0  0
   12.9502    1.7523    0.0000 C   0  0  0  0  0  0  0  0  0  0  0  0
   13.8062    1.2353    0.0000 C   0  0  0  0  0  0  0  0  0  0  0  0
   12.9867    2.7933    0.0000 C   0  0  0  0  0  0  0  0  0  0  0  0
   11.1871    2.8357    0.0000 C   0  0  0  0  0  0  0  0  0  0  0  0
   13.7865    0.2355    0.0000 C   0  0  0  0  0  0  0  0  0  0  0  0
   13.8728    3.2387    0.0000 C   0  0  0  0  0  0  0  0  0  0  0  0
   14.6752    1.7131    0.0000 C   0  0  0  0  0  0  0  0  0  0  0  0
   14.7082    2.7042    0.0000 C   0  0  0  0  0  0  0  0  0  0  0  0
    6.8671   -0.3292    0.0000 H   0  0  0  0  0  0  0  0  0  0  0  0
    6.8671    1.9108    0.0000 H   0  0  0  0  0  0  0  0  0  0  0  0
    8.2700    2.1008    0.0000 H   0  0  0  0  0  0  0  0  0  0  0  0
    9.1360    0.9808    0.0000 H   0  0  0  0  0  0  0  0  0  0  0  0
    5.1350   -3.3292    0.0000 H   0  0  0  0  0  0  0  0  0  0  0  0
    5.1350   -1.0892    0.0000 H   0  0  0  0  0  0  0  0  0  0  0  0
    3.7320   -3.5192    0.0000 H   0  0  0  0  0  0  0  0  0  0  0  0
    2.8660   -2.3992    0.0000 H   0  0  0  0  0  0  0  0  0  0  0  0
    8.5991   -0.3292    0.0000 H   0  0  0  0  0  0  0  0  0  0  0  0
    3.4030   -1.0892    0.0000 H   0  0  0  0  0  0  0  0  0  0  0  0
    5.7890    0.3734    0.0000 H   0  0  0  0  0  0  0  0  0  0  0  0
    5.3905   -0.3168    0.0000 H   0  0  0  0  0  0  0  0  0  0  0  0
    1.9264   -1.1015    0.0000 H   0  0  0  0  0  0  0  0  0  0  0  0
    2.3249   -1.7918    0.0000 H   0  0  0  0  0  0  0  0  0  0  0  0
    5.4641    1.4808    0.0000 H   0  0  0  0  0  0  0  0  0  0  0  0
    7.1962    3.1008    0.0000 H   0  0  0  0  0  0  0  0  0  0  0  0
    9.4651    2.4108    0.0000 H   0  0  0  0  0  0  0  0  0  0  0  0
    6.5380   -2.8992    0.0000 H   0  0  0  0  0  0  0  0  0  0  0  0
    3.7320   -4.5192    0.0000 H   0  0  0  0  0  0  0  0  0  0  0  0
    2.0000   -2.8992    0.0000 H   0  0  0  0  0  0  0  0  0  0  0  0
    9.7844    1.5859    0.0000 H   0  0  0  0  0  0  0  0  0  0  0  0
    2.0000    0.1008    0.0000 H   0  0  0  0  0  0  0  0  0  0  0  0
   15.2036    1.3886    0.0000 H   0  0  0  0  0  0  0  0  0  0  0  0
   11.7077   -1.5268    0.0000 H   0  0  0  0  0  0  0  0  0  0  0  0
   14.4767    4.5192    0.0000 H   0  0  0  0  0  0  0  0  0  0  0  0
   16.1175    2.8388    0.0000 H   0  0  0  0  0  0  0  0  0  0  0  0
  1 19  1  0  0  0  0
  1 27  1  0  0  0  0
  2 24  1  0  0  0  0
  2 28  1  0  0  0  0
  3 29  1  0  0  0  0
  4 59  1  0  0  0  0
  5 31  1  0  0  0  0
  6 60  1  0  0  0  0
  7 61  1  0  0  0  0
  8 62  1  0  0  0  0
  9 63  1  0  0  0  0
 10 64  1  0  0  0  0
 11 30  1  0  0  0  0
 11 66  1  0  0  0  0
 12 36  1  0  0  0  0
 12 41  1  0  0  0  0
 13 39  1  0  0  0  0
 13 40  1  0  0  0  0
 14 33  1  0  0  0  0
 14 68  1  0  0  0  0
 15 40  2  0  0  0  0
 16 42  1  0  0  0  0
 16 69  1  0  0  0  0
 17 41  2  0  0  0  0
 18 44  1  0  0  0  0
 18 70  1  0  0  0  0
 19 20  1  1  0  0  0
 19 29  1  0  0  0  0
 19 45  1  0  0  0  0
 20  4  1  0  0  0  0
 20 21  1  1  0  0  0
 20 46  1  0  0  0  0
 21  6  1  0  0  0  0
 21 22  1  6  0  0  0
 21 47  1  0  0  0  0
 22  7  1  0  0  0  0
 22 27  1  1  0  0  0
 22 48  1  0  0  0  0
 23  8  1  0  0  0  0
 23 24  1  1  0  0  0
 23 49  1  0  0  0  0
 24  3  1  0  0  0  0
 24 50  1  6  0  0  0
 25  9  1  0  0  0  0
 25 23  1  6  0  0  0
 25 51  1  0  0  0  0
 26 10  1  0  0  0  0
 26 25  1  1  0  0  0
 26 52  1  0  0  0  0
 27  5  1  0  0  0  0
 27 53  1  1  0  0  0
 28 26  1  6  0  0  0
 28 30  1  0  0  0  0
 28 54  1  0  0  0  0
 29 55  1  0  0  0  0
 29 56  1  0  0  0  0
 30 57  1  0  0  0  0
 30 58  1  0  0  0  0
 31 33  2  0  0  0  0
 31 34  1  0  0  0  0
 32 35  1  0  0  0  0
 32 36  2  0  0  0  0
 32 37  1  0  0  0  0
 33 36  1  0  0  0  0
 34 35  2  0  0  0  0
 34 65  1  0  0  0  0
 35 40  1  0  0  0  0
 37 38  1  0  0  0  0
 37 39  2  0  0  0  0
 38 41  1  0  0  0  0
 38 43  2  0  0  0  0
 39 42  1  0  0  0  0
 42 44  2  0  0  0  0
 43 44  1  0  0  0  0
 43 67  1  0  0  0  0
M  END
>  <PUBCHEM_COMPOUND_CID>
5318135

>  <PUBCHEM_COMPOUND_CANONICALIZED>
1

>  <PUBCHEM_CACTVS_COMPLEXITY>
1080

>  <PUBCHEM_CACTVS_HBOND_ACCEPTOR>
18

>  <PUBCHEM_CACTVS_HBOND_DONOR>
10

>  <PUBCHEM_CACTVS_ROTATABLE_BOND>
6

>  <PUBCHEM_CACTVS_SUBSKEYS>
AAADceB4PgAAAAAAAAAAAAAAAAAAAAAAAAA0aJEiAAAAAACRQAAAGgAACAAADBSwmAMwDoAABgCIAiDSCAACCAAkIAAAiAEGiMgdNzKGNBqieyOlwBUPuYfK7PzOoAABCAAYQABAAAIQADCAAAAAAAAAAA==

>  <PUBCHEM_IUPAC_INCHI>
InChI=1S/C26H26O18/c27-3-9-14(30)17(33)19(35)25(41-9)39-4-10-15(31)18(34)20(36)26(42-10)40-8-2-6-12-11-5(23(37)44-22(12)16(8)32)1-7(28)13(29)21(11)43-24(6)38/h1-2,9-10,14-15,17-20,25-36H,3-4H2/t9-,10-,14-,15-,17+,18+,19-,20-,25-,26-/m1/s1

>  <PUBCHEM_IUPAC_INCHIKEY>
FHIYBTOOLROABN-YMLQNWNPSA-N

>  <PUBCHEM_XLOGP3_AA>
-2.8

>  <PUBCHEM_EXACT_MASS>
626.112

>  <PUBCHEM_MOLECULAR_FORMULA>
C26H26O18

>  <PUBCHEM_MOLECULAR_WEIGHT>
626.476

>  <PUBCHEM_OPENEYE_CAN_SMILES>
C1=C2C3=C(C(=C1O)O)OC(=O)C4=CC(=C(C(=C43)OC2=O)O)OC5C(C(C(C(O5)COC6C(C(C(C(O6)CO)O)O)O)O)O)O

>  <PUBCHEM_OPENEYE_ISO_SMILES>
C1=C2C3=C(C(=C1O)O)OC(=O)C4=CC(=C(C(=C43)OC2=O)O)O[C@H]5[C@@H]([C@H]([C@@H]([C@H](O5)CO[C@H]6[C@@H]([C@H]([C@@H]([C@H](O6)CO)O)O)O)O)O)O

>  <PUBCHEM_CACTVS_TPSA>
292

>  <PUBCHEM_MONOISOTOPIC_WEIGHT>
626.112

>  <PUBCHEM_TOTAL_CHARGE>
0

>  <PUBCHEM_HEAVY_ATOM_COUNT>
44

>  <PUBCHEM_ATOM_DEF_STEREO_COUNT>
10

>  <PUBCHEM_ATOM_UDEF_STEREO_COUNT>
0

>  <PUBCHEM_BOND_DEF_STEREO_COUNT>
0

>  <PUBCHEM_BOND_UDEF_STEREO_COUNT>
0

>  <PUBCHEM_ISOTOPIC_ATOM_COUNT>
0

>  <PUBCHEM_COMPONENT_COUNT>
1

>  <PUBCHEM_CACTVS_TAUTO_COUNT>
88

>  <PUBCHEM_COORDINATE_TYPE>
1
5
255

>  <PUBCHEM_BONDANNOTATIONS>
26  10  6
12  36  8
12  41  8
13  39  8
13  40  8
19  29  6
28  30  5
24  3  5
31  33  8
31  34  8
32  35  8
32  36  8
32  37  8
33  36  8
34  35  8
35  40  8
37  38  8
37  39  8
38  41  8
38  43  8
39  42  8
20  4  5
42  44  8
43  44  8
27  5  6
21  6  6
22  7  5
23  8  6
25  9  5

$$$$
