5318989
 OpenBabel06101807152D

 45 47  0  0  0  0  0  0  0  0999 V2000
   11.2251   -1.5903    0.0000 O   0  0  0  0  0  0  0  0  0  0  0  0
    9.4651    1.4444    0.0000 O   0  0  0  0  0  0  0  0  0  0  0  0
    6.0010    1.4444    0.0000 O   0  0  0  0  0  0  0  0  0  0  0  0
    2.5369   -1.5556    0.0000 O   0  0  0  0  0  0  0  0  0  0  0  0
   12.1312   -1.0764    0.0000 C   0  0  0  0  0  0  0  0  0  0  0  0
   12.1312   -0.0348    0.0000 C   0  0  0  0  0  0  0  0  0  0  0  0
   10.3312   -0.0556    0.0000 C   0  0  0  0  0  0  0  0  0  0  0  0
   10.3312   -1.0556    0.0000 C   0  0  0  0  0  0  0  0  0  0  0  0
   13.1312   -1.0803    0.0000 C   0  0  0  0  0  0  0  0  0  0  0  0
   12.6278   -1.9444    0.0000 C   0  0  0  0  0  0  0  0  0  0  0  0
   11.2251    0.4790    0.0000 C   0  0  0  0  0  0  0  0  0  0  0  0
    9.4651    0.4444    0.0000 C   0  0  0  0  0  0  0  0  0  0  0  0
    9.4651   -1.5556    0.0000 C   0  0  0  0  0  0  0  0  0  0  0  0
    8.5991   -0.0556    0.0000 C   0  0  0  0  0  0  0  0  0  0  0  0
    8.5991   -1.0556    0.0000 C   0  0  0  0  0  0  0  0  0  0  0  0
    7.7331    0.4444    0.0000 C   0  0  0  0  0  0  0  0  0  0  0  0
    6.8671   -0.0556    0.0000 C   0  0  0  0  0  0  0  0  0  0  0  0
   10.3312    1.9444    0.0000 C   0  0  0  0  0  0  0  0  0  0  0  0
    6.0010    0.4444    0.0000 C   0  0  0  0  0  0  0  0  0  0  0  0
    5.1350   -0.0556    0.0000 C   0  0  0  0  0  0  0  0  0  0  0  0
    4.2690    0.4444    0.0000 C   0  0  0  0  0  0  0  0  0  0  0  0
    5.1350   -1.0556    0.0000 C   0  0  0  0  0  0  0  0  0  0  0  0
    3.4030   -0.0556    0.0000 C   0  0  0  0  0  0  0  0  0  0  0  0
    4.2690   -1.5556    0.0000 C   0  0  0  0  0  0  0  0  0  0  0  0
    3.4030   -1.0556    0.0000 C   0  0  0  0  0  0  0  0  0  0  0  0
   12.6669    0.2773    0.0000 H   0  0  0  0  0  0  0  0  0  0  0  0
   12.0897   -2.2523    0.0000 H   0  0  0  0  0  0  0  0  0  0  0  0
   12.9358   -2.4825    0.0000 H   0  0  0  0  0  0  0  0  0  0  0  0
   13.1660   -1.6364    0.0000 H   0  0  0  0  0  0  0  0  0  0  0  0
   13.1288   -1.7003    0.0000 H   0  0  0  0  0  0  0  0  0  0  0  0
   13.7512   -1.0827    0.0000 H   0  0  0  0  0  0  0  0  0  0  0  0
   13.1336   -0.4603    0.0000 H   0  0  0  0  0  0  0  0  0  0  0  0
   11.2179    1.0990    0.0000 H   0  0  0  0  0  0  0  0  0  0  0  0
    9.4651   -2.1756    0.0000 H   0  0  0  0  0  0  0  0  0  0  0  0
    8.0622   -1.3656    0.0000 H   0  0  0  0  0  0  0  0  0  0  0  0
    7.7331    1.0644    0.0000 H   0  0  0  0  0  0  0  0  0  0  0  0
    6.8671   -0.6756    0.0000 H   0  0  0  0  0  0  0  0  0  0  0  0
   10.6412    1.4074    0.0000 H   0  0  0  0  0  0  0  0  0  0  0  0
   10.8681    2.2544    0.0000 H   0  0  0  0  0  0  0  0  0  0  0  0
   10.0212    2.4813    0.0000 H   0  0  0  0  0  0  0  0  0  0  0  0
    4.2690    1.0644    0.0000 H   0  0  0  0  0  0  0  0  0  0  0  0
    5.6720   -1.3656    0.0000 H   0  0  0  0  0  0  0  0  0  0  0  0
    2.8660    0.2544    0.0000 H   0  0  0  0  0  0  0  0  0  0  0  0
    4.2690   -2.1756    0.0000 H   0  0  0  0  0  0  0  0  0  0  0  0
    2.0000   -1.2456    0.0000 H   0  0  0  0  0  0  0  0  0  0  0  0
  1  5  1  0  0  0  0
  1  8  1  0  0  0  0
  2 12  1  0  0  0  0
  2 18  1  0  0  0  0
  3 19  2  0  0  0  0
  4 25  1  0  0  0  0
  4 45  1  0  0  0  0
  5  6  1  0  0  0  0
  5  9  1  0  0  0  0
  5 10  1  0  0  0  0
  6 11  2  0  0  0  0
  6 26  1  0  0  0  0
  7  8  2  0  0  0  0
  7 11  1  0  0  0  0
  7 12  1  0  0  0  0
  8 13  1  0  0  0  0
  9 30  1  0  0  0  0
  9 31  1  0  0  0  0
  9 32  1  0  0  0  0
 10 27  1  0  0  0  0
 10 28  1  0  0  0  0
 10 29  1  0  0  0  0
 11 33  1  0  0  0  0
 12 14  2  0  0  0  0
 13 15  2  0  0  0  0
 13 34  1  0  0  0  0
 14 15  1  0  0  0  0
 14 16  1  0  0  0  0
 15 35  1  0  0  0  0
 16 17  2  0  0  0  0
 16 36  1  0  0  0  0
 17 19  1  0  0  0  0
 17 37  1  0  0  0  0
 18 38  1  0  0  0  0
 18 39  1  0  0  0  0
 18 40  1  0  0  0  0
 19 20  1  0  0  0  0
 20 21  2  0  0  0  0
 20 22  1  0  0  0  0
 21 23  1  0  0  0  0
 21 41  1  0  0  0  0
 22 24  2  0  0  0  0
 22 42  1  0  0  0  0
 23 25  2  0  0  0  0
 23 43  1  0  0  0  0
 24 25  1  0  0  0  0
 24 44  1  0  0  0  0
M  END
>  <PUBCHEM_COMPOUND_CID>
5318989

>  <PUBCHEM_COMPOUND_CANONICALIZED>
1

>  <PUBCHEM_CACTVS_COMPLEXITY>
528

>  <PUBCHEM_CACTVS_HBOND_ACCEPTOR>
4

>  <PUBCHEM_CACTVS_HBOND_DONOR>
1

>  <PUBCHEM_CACTVS_ROTATABLE_BOND>
4

>  <PUBCHEM_CACTVS_SUBSKEYS>
AAADceB4OAAAAAAAAAAAAAAAAAAAAAAAAAAwYIAAAAAAAACBQAAAGgAACAAADESAmAIyBoAABgCIAqBSAAACCAAkIAAIiAEGCMgMJzKGNRqCeSClwBUIuYeI7OzOIAACCAAIAABAAAQQABAAAAAAAAAAAA==

>  <PUBCHEM_IUPAC_OPENEYE_NAME>
(E)-1-(4-hydroxyphenyl)-3-(5-methoxy-2,2-dimethyl-chromen-6-yl)prop-2-en-1-one

>  <PUBCHEM_IUPAC_CAS_NAME>
(E)-1-(4-hydroxyphenyl)-3-(5-methoxy-2,2-dimethyl-1-benzopyran-6-yl)-2-propen-1-one

>  <PUBCHEM_IUPAC_NAME>
(E)-1-(4-hydroxyphenyl)-3-(5-methoxy-2,2-dimethylchromen-6-yl)prop-2-en-1-one

>  <PUBCHEM_IUPAC_SYSTEMATIC_NAME>
(E)-1-(4-hydroxyphenyl)-3-(5-methoxy-2,2-dimethyl-chromen-6-yl)prop-2-en-1-one

>  <PUBCHEM_IUPAC_TRADITIONAL_NAME>
(E)-1-(4-hydroxyphenyl)-3-(5-methoxy-2,2-dimethyl-chromen-6-yl)prop-2-en-1-one

>  <PUBCHEM_IUPAC_INCHI>
InChI=1S/C21H20O4/c1-21(2)13-12-17-19(25-21)11-7-15(20(17)24-3)6-10-18(23)14-4-8-16(22)9-5-14/h4-13,22H,1-3H3/b10-6+

>  <PUBCHEM_IUPAC_INCHIKEY>
BOJUBZPEDAAMPG-UXBLZVDNSA-N

>  <PUBCHEM_XLOGP3_AA>
4.2

>  <PUBCHEM_EXACT_MASS>
336.136

>  <PUBCHEM_MOLECULAR_FORMULA>
C21H20O4

>  <PUBCHEM_MOLECULAR_WEIGHT>
336.387

>  <PUBCHEM_OPENEYE_CAN_SMILES>
CC1(C=CC2=C(O1)C=CC(=C2OC)C=CC(=O)C3=CC=C(C=C3)O)C

>  <PUBCHEM_OPENEYE_ISO_SMILES>
CC1(C=CC2=C(O1)C=CC(=C2OC)/C=C/C(=O)C3=CC=C(C=C3)O)C

>  <PUBCHEM_CACTVS_TPSA>
55.8

>  <PUBCHEM_MONOISOTOPIC_WEIGHT>
336.136

>  <PUBCHEM_TOTAL_CHARGE>
0

>  <PUBCHEM_HEAVY_ATOM_COUNT>
25

>  <PUBCHEM_ATOM_DEF_STEREO_COUNT>
0

>  <PUBCHEM_ATOM_UDEF_STEREO_COUNT>
0

>  <PUBCHEM_BOND_DEF_STEREO_COUNT>
1

>  <PUBCHEM_BOND_UDEF_STEREO_COUNT>
0

>  <PUBCHEM_ISOTOPIC_ATOM_COUNT>
0

>  <PUBCHEM_COMPONENT_COUNT>
1

>  <PUBCHEM_CACTVS_TAUTO_COUNT>
4

>  <PUBCHEM_COORDINATE_TYPE>
1
5
255

>  <PUBCHEM_BONDANNOTATIONS>
12  14  8
13  15  8
14  15  8
20  21  8
20  22  8
21  23  8
22  24  8
23  25  8
24  25  8
7  12  8
7  8  8
8  13  8

$$$$
