5318294
 OpenBabel06101807152D

 21 21  0  0  1  0  0  0  0  0999 V2000
    2.3644    1.2206    0.0000 O   0  0  0  0  0  0  0  0  0  0  0  0
    6.9500   -0.0749    0.0000 O   0  0  0  0  0  0  0  0  0  0  0  0
    6.4147   -1.7222    0.0000 O   0  0  0  0  0  0  0  0  0  0  0  0
    4.4467   -1.0228    0.0000 N   0  0  0  0  0  0  0  0  0  0  0  0
    3.9467    0.5161    0.0000 C   0  0  3  0  0  0  0  0  0  0  0  0
    4.9467    0.5161    0.0000 C   0  0  0  0  0  0  0  0  0  0  0  0
    5.2558   -0.4350    0.0000 C   0  0  3  0  0  0  0  0  0  0  0  0
    3.6377   -0.4350    0.0000 C   0  0  0  0  0  0  0  0  0  0  0  0
    3.3590    1.3251    0.0000 C   0  0  0  0  0  0  0  0  0  0  0  0
    6.2068   -0.7440    0.0000 C   0  0  0  0  0  0  0  0  0  0  0  0
    3.1072    0.3831    0.0000 H   0  0  0  0  0  0  0  0  0  0  0  0
    5.5532    0.6450    0.0000 H   0  0  0  0  0  0  0  0  0  0  0  0
    4.8819    1.1327    0.0000 H   0  0  0  0  0  0  0  0  0  0  0  0
    5.3887   -1.2745    0.0000 H   0  0  0  0  0  0  0  0  0  0  0  0
    3.0713   -0.1828    0.0000 H   0  0  0  0  0  0  0  0  0  0  0  0
    3.3277   -0.9719    0.0000 H   0  0  0  0  0  0  0  0  0  0  0  0
    4.4467   -1.6428    0.0000 H   0  0  0  0  0  0  0  0  0  0  0  0
    3.9162    1.5969    0.0000 H   0  0  0  0  0  0  0  0  0  0  0  0
    3.1880    1.9211    0.0000 H   0  0  0  0  0  0  0  0  0  0  0  0
    2.0000    1.7222    0.0000 H   0  0  0  0  0  0  0  0  0  0  0  0
    7.5396   -0.2665    0.0000 H   0  0  0  0  0  0  0  0  0  0  0  0
  1  9  1  0  0  0  0
  1 20  1  0  0  0  0
  2 10  1  0  0  0  0
  2 21  1  0  0  0  0
  3 10  2  0  0  0  0
  4  7  1  0  0  0  0
  4  8  1  0  0  0  0
  4 17  1  0  0  0  0
  5  6  1  0  0  0  0
  5  8  1  0  0  0  0
  5  9  1  0  0  0  0
  5 11  1  0  0  0  0
  6  7  1  0  0  0  0
  6 12  1  0  0  0  0
  6 13  1  0  0  0  0
  7 10  1  0  0  0  0
  7 14  1  0  0  0  0
  8 15  1  0  0  0  0
  8 16  1  0  0  0  0
  9 18  1  0  0  0  0
  9 19  1  0  0  0  0
M  END
>  <PUBCHEM_COMPOUND_CID>
5318294

>  <PUBCHEM_COMPOUND_CANONICALIZED>
1

>  <PUBCHEM_CACTVS_COMPLEXITY>
137

>  <PUBCHEM_CACTVS_HBOND_ACCEPTOR>
4

>  <PUBCHEM_CACTVS_HBOND_DONOR>
3

>  <PUBCHEM_CACTVS_ROTATABLE_BOND>
2

>  <PUBCHEM_CACTVS_SUBSKEYS>
AAADccBiMAAAAAAAAAAAAAAAAAAAAWAAAAAAAAAAAAAAAAAAAAAAHgAQCAAADSjhgAYACALAAgAIAACQCAAAAAAAAAAAAIGIAAACEBIAgCAEQAAGEACQAAC4NQAMAAAAAAAAAAAAAAAAAAAAAAAAAAAAAA==

>  <PUBCHEM_IUPAC_OPENEYE_NAME>
4-(hydroxymethyl)pyrrolidine-2-carboxylic acid

>  <PUBCHEM_IUPAC_CAS_NAME>
4-(hydroxymethyl)-2-pyrrolidinecarboxylic acid

>  <PUBCHEM_IUPAC_NAME>
4-(hydroxymethyl)pyrrolidine-2-carboxylic acid

>  <PUBCHEM_IUPAC_SYSTEMATIC_NAME>
4-(hydroxymethyl)pyrrolidine-2-carboxylic acid

>  <PUBCHEM_IUPAC_TRADITIONAL_NAME>
4-methylolproline

>  <PUBCHEM_IUPAC_INCHI>
InChI=1S/C6H11NO3/c8-3-4-1-5(6(9)10)7-2-4/h4-5,7-8H,1-3H2,(H,9,10)

>  <PUBCHEM_IUPAC_INCHIKEY>
CISMGNUPDUKNQK-UHFFFAOYSA-N

>  <PUBCHEM_XLOGP3_AA>
-3.2

>  <PUBCHEM_EXACT_MASS>
145.074

>  <PUBCHEM_MOLECULAR_FORMULA>
C6H11NO3

>  <PUBCHEM_MOLECULAR_WEIGHT>
145.158

>  <PUBCHEM_OPENEYE_CAN_SMILES>
C1C(CNC1C(=O)O)CO

>  <PUBCHEM_OPENEYE_ISO_SMILES>
C1C(CNC1C(=O)O)CO

>  <PUBCHEM_CACTVS_TPSA>
69.6

>  <PUBCHEM_MONOISOTOPIC_WEIGHT>
145.074

>  <PUBCHEM_TOTAL_CHARGE>
0

>  <PUBCHEM_HEAVY_ATOM_COUNT>
10

>  <PUBCHEM_ATOM_DEF_STEREO_COUNT>
0

>  <PUBCHEM_ATOM_UDEF_STEREO_COUNT>
2

>  <PUBCHEM_BOND_DEF_STEREO_COUNT>
0

>  <PUBCHEM_BOND_UDEF_STEREO_COUNT>
0

>  <PUBCHEM_ISOTOPIC_ATOM_COUNT>
0

>  <PUBCHEM_COMPONENT_COUNT>
1

>  <PUBCHEM_CACTVS_TAUTO_COUNT>
1

>  <PUBCHEM_COORDINATE_TYPE>
1
5
255

>  <PUBCHEM_BONDANNOTATIONS>
5  11  3
7  14  3

$$$$
