5319407
 OpenBabel06101807152D

 19 20  0  0  0  0  0  0  0  0999 V2000
    5.2619   -0.7500    0.0000 O   0  0  0  0  0  0  0  0  0  0  0  0
    4.6783   -1.5547    0.0000 O   0  0  0  0  0  0  0  0  0  0  0  0
    2.8660    1.2500    0.0000 O   0  0  0  0  0  0  0  0  0  0  0  0
    3.7320   -0.2500    0.0000 C   0  0  0  0  0  0  0  0  0  0  0  0
    4.6783    0.0547    0.0000 C   0  0  0  0  0  0  0  0  0  0  0  0
    3.7320   -1.2500    0.0000 C   0  0  0  0  0  0  0  0  0  0  0  0
    2.8660    0.2500    0.0000 C   0  0  0  0  0  0  0  0  0  0  0  0
    2.8660   -1.7500    0.0000 C   0  0  0  0  0  0  0  0  0  0  0  0
    2.0000   -0.2500    0.0000 C   0  0  0  0  0  0  0  0  0  0  0  0
    2.0000   -1.2500    0.0000 C   0  0  0  0  0  0  0  0  0  0  0  0
    2.0000    1.7500    0.0000 C   0  0  0  0  0  0  0  0  0  0  0  0
    5.2156    0.3640    0.0000 H   0  0  0  0  0  0  0  0  0  0  0  0
    4.4272    0.6216    0.0000 H   0  0  0  0  0  0  0  0  0  0  0  0
    2.8660   -2.3700    0.0000 H   0  0  0  0  0  0  0  0  0  0  0  0
    1.4631    0.0600    0.0000 H   0  0  0  0  0  0  0  0  0  0  0  0
    1.4631   -1.5600    0.0000 H   0  0  0  0  0  0  0  0  0  0  0  0
    2.3100    2.2869    0.0000 H   0  0  0  0  0  0  0  0  0  0  0  0
    1.4631    2.0600    0.0000 H   0  0  0  0  0  0  0  0  0  0  0  0
    1.6900    1.2131    0.0000 H   0  0  0  0  0  0  0  0  0  0  0  0
  1  2  1  0  0  0  0
  1  5  1  0  0  0  0
  2  6  1  0  0  0  0
  3  7  1  0  0  0  0
  3 11  1  0  0  0  0
  4  5  1  0  0  0  0
  4  6  2  0  0  0  0
  4  7  1  0  0  0  0
  5 12  1  0  0  0  0
  5 13  1  0  0  0  0
  6  8  1  0  0  0  0
  7  9  2  0  0  0  0
  8 10  2  0  0  0  0
  8 14  1  0  0  0  0
  9 10  1  0  0  0  0
  9 15  1  0  0  0  0
 10 16  1  0  0  0  0
 11 17  1  0  0  0  0
 11 18  1  0  0  0  0
 11 19  1  0  0  0  0
M  END
>  <PUBCHEM_COMPOUND_CID>
5319407

>  <PUBCHEM_COMPOUND_CANONICALIZED>
1

>  <PUBCHEM_CACTVS_COMPLEXITY>
137

>  <PUBCHEM_CACTVS_HBOND_ACCEPTOR>
3

>  <PUBCHEM_CACTVS_HBOND_DONOR>
0

>  <PUBCHEM_CACTVS_ROTATABLE_BOND>
1

>  <PUBCHEM_CACTVS_SUBSKEYS>
AAADccBwMAAAAAAAAAAAAAAAAAAAASAAAAAwAAAAAAAAAEgBAAAAGgAABAAADASgmAIyBoAABACAAiBCAAACCAAgIAAIiAAGCIgMJyKEMRqAMCAlwBUIqAeA4CwOAAAACAAIAAAAAAAQABAAAAAAAAAAAA==

>  <PUBCHEM_IUPAC_OPENEYE_NAME>
4-methoxy-3H-1,2-benzodioxole

>  <PUBCHEM_IUPAC_CAS_NAME>
4-methoxy-3H-1,2-benzodioxole

>  <PUBCHEM_IUPAC_NAME>
4-methoxy-3H-1,2-benzodioxole

>  <PUBCHEM_IUPAC_SYSTEMATIC_NAME>
4-methoxy-3H-1,2-benzodioxole

>  <PUBCHEM_IUPAC_TRADITIONAL_NAME>
4-methoxy-3H-1,2-benzodioxole

>  <PUBCHEM_IUPAC_INCHI>
InChI=1S/C8H8O3/c1-9-7-3-2-4-8-6(7)5-10-11-8/h2-4H,5H2,1H3

>  <PUBCHEM_IUPAC_INCHIKEY>
SMUNJBNGTHEKIO-UHFFFAOYSA-N

>  <PUBCHEM_XLOGP3_AA>
1.5

>  <PUBCHEM_EXACT_MASS>
152.047

>  <PUBCHEM_MOLECULAR_FORMULA>
C8H8O3

>  <PUBCHEM_MOLECULAR_WEIGHT>
152.149

>  <PUBCHEM_OPENEYE_CAN_SMILES>
COC1=CC=CC2=C1COO2

>  <PUBCHEM_OPENEYE_ISO_SMILES>
COC1=CC=CC2=C1COO2

>  <PUBCHEM_CACTVS_TPSA>
27.7

>  <PUBCHEM_MONOISOTOPIC_WEIGHT>
152.047

>  <PUBCHEM_TOTAL_CHARGE>
0

>  <PUBCHEM_HEAVY_ATOM_COUNT>
11

>  <PUBCHEM_ATOM_DEF_STEREO_COUNT>
0

>  <PUBCHEM_ATOM_UDEF_STEREO_COUNT>
0

>  <PUBCHEM_BOND_DEF_STEREO_COUNT>
0

>  <PUBCHEM_BOND_UDEF_STEREO_COUNT>
0

>  <PUBCHEM_ISOTOPIC_ATOM_COUNT>
0

>  <PUBCHEM_COMPONENT_COUNT>
1

>  <PUBCHEM_CACTVS_TAUTO_COUNT>
1

>  <PUBCHEM_COORDINATE_TYPE>
1
5
255

>  <PUBCHEM_BONDANNOTATIONS>
4  6  8
4  7  8
6  8  8
7  9  8
8  10  8
9  10  8

$$$$
