5319801
 OpenBabel06101807152D

 30 32  0  0  0  0  0  0  0  0999 V2000
    7.8167    1.8592    0.0000 O   0  0  0  0  0  0  0  0  0  0  0  0
    6.0682    1.8246    0.0000 O   0  0  0  0  0  0  0  0  0  0  0  0
    6.0682   -2.1754    0.0000 O   0  0  0  0  0  0  0  0  0  0  0  0
    9.5984   -1.1995    0.0000 O   0  0  0  0  0  0  0  0  0  0  0  0
    2.5381   -1.1995    0.0000 O   0  0  0  0  0  0  0  0  0  0  0  0
    6.9343    0.3246    0.0000 C   0  0  0  0  0  0  0  0  0  0  0  0
    6.9343   -0.6754    0.0000 C   0  0  0  0  0  0  0  0  0  0  0  0
    5.2022    0.3246    0.0000 C   0  0  0  0  0  0  0  0  0  0  0  0
    5.2022   -0.6754    0.0000 C   0  0  0  0  0  0  0  0  0  0  0  0
    6.0682    0.8246    0.0000 C   0  0  0  0  0  0  0  0  0  0  0  0
    6.0682   -1.1754    0.0000 C   0  0  0  0  0  0  0  0  0  0  0  0
    7.8282    0.8593    0.0000 C   0  0  0  0  0  0  0  0  0  0  0  0
    8.7343    0.3454    0.0000 C   0  0  0  0  0  0  0  0  0  0  0  0
    7.8282   -1.2100    0.0000 C   0  0  0  0  0  0  0  0  0  0  0  0
    8.7343   -0.6962    0.0000 C   0  0  0  0  0  0  0  0  0  0  0  0
    4.3083   -1.2100    0.0000 C   0  0  0  0  0  0  0  0  0  0  0  0
    4.3083    0.8593    0.0000 C   0  0  0  0  0  0  0  0  0  0  0  0
    9.5984    0.8488    0.0000 C   0  0  0  0  0  0  0  0  0  0  0  0
    3.4022   -0.6962    0.0000 C   0  0  0  0  0  0  0  0  0  0  0  0
    3.4022    0.3454    0.0000 C   0  0  0  0  0  0  0  0  0  0  0  0
    7.8210   -1.8300    0.0000 H   0  0  0  0  0  0  0  0  0  0  0  0
    4.3154   -1.8300    0.0000 H   0  0  0  0  0  0  0  0  0  0  0  0
    4.3154    1.4792    0.0000 H   0  0  0  0  0  0  0  0  0  0  0  0
    9.9105    0.3130    0.0000 H   0  0  0  0  0  0  0  0  0  0  0  0
   10.1341    1.1608    0.0000 H   0  0  0  0  0  0  0  0  0  0  0  0
    9.2863    1.3845    0.0000 H   0  0  0  0  0  0  0  0  0  0  0  0
    2.8665    0.6575    0.0000 H   0  0  0  0  0  0  0  0  0  0  0  0
    8.3500    2.1754    0.0000 H   0  0  0  0  0  0  0  0  0  0  0  0
    9.5960   -1.8195    0.0000 H   0  0  0  0  0  0  0  0  0  0  0  0
    2.0000   -0.8916    0.0000 H   0  0  0  0  0  0  0  0  0  0  0  0
  1 12  1  0  0  0  0
  1 28  1  0  0  0  0
  2 10  2  0  0  0  0
  3 11  2  0  0  0  0
  4 15  1  0  0  0  0
  4 29  1  0  0  0  0
  5 19  1  0  0  0  0
  5 30  1  0  0  0  0
  6  7  1  0  0  0  0
  6 10  1  0  0  0  0
  6 12  2  0  0  0  0
  7 11  1  0  0  0  0
  7 14  2  0  0  0  0
  8  9  2  0  0  0  0
  8 10  1  0  0  0  0
  8 17  1  0  0  0  0
  9 11  1  0  0  0  0
  9 16  1  0  0  0  0
 12 13  1  0  0  0  0
 13 15  2  0  0  0  0
 13 18  1  0  0  0  0
 14 15  1  0  0  0  0
 14 21  1  0  0  0  0
 16 19  2  0  0  0  0
 16 22  1  0  0  0  0
 17 20  2  0  0  0  0
 17 23  1  0  0  0  0
 18 24  1  0  0  0  0
 18 25  1  0  0  0  0
 18 26  1  0  0  0  0
 19 20  1  0  0  0  0
 20 27  1  0  0  0  0
M  END
>  <PUBCHEM_COMPOUND_CID>
5319801

>  <PUBCHEM_COMPOUND_CANONICALIZED>
1

>  <PUBCHEM_CACTVS_COMPLEXITY>
434

>  <PUBCHEM_CACTVS_HBOND_ACCEPTOR>
5

>  <PUBCHEM_CACTVS_HBOND_DONOR>
3

>  <PUBCHEM_CACTVS_ROTATABLE_BOND>
0

>  <PUBCHEM_CACTVS_SUBSKEYS>
AAADccBwOAAAAAAAAAAAAAAAAAAAAAAAAAAwYMAAAAAAAADBQAAAGgAACAAADASAmAAyBoAAAgCIAqBSAAACAAAkIAAIiAEGCMgIJzaCFRKAcUAl4BUImYeL7PTO4AADCAAYAADAAAYQADAAAAAAAAAAAA==

>  <PUBCHEM_IUPAC_OPENEYE_NAME>
1,3,6-trihydroxy-2-methyl-anthracene-9,10-dione

>  <PUBCHEM_IUPAC_CAS_NAME>
1,3,6-trihydroxy-2-methylanthracene-9,10-dione

>  <PUBCHEM_IUPAC_NAME>
1,3,6-trihydroxy-2-methylanthracene-9,10-dione

>  <PUBCHEM_IUPAC_SYSTEMATIC_NAME>
2-methyl-1,3,6-tris(oxidanyl)anthracene-9,10-dione

>  <PUBCHEM_IUPAC_TRADITIONAL_NAME>
1,3,6-trihydroxy-2-methyl-9,10-anthraquinone

>  <PUBCHEM_IUPAC_INCHI>
InChI=1S/C15H10O5/c1-6-11(17)5-10-12(13(6)18)15(20)8-3-2-7(16)4-9(8)14(10)19/h2-5,16-18H,1H3

>  <PUBCHEM_IUPAC_INCHIKEY>
JKJVBHYKKRDSPP-UHFFFAOYSA-N

>  <PUBCHEM_XLOGP3_AA>
2.7

>  <PUBCHEM_EXACT_MASS>
270.053

>  <PUBCHEM_MOLECULAR_FORMULA>
C15H10O5

>  <PUBCHEM_MOLECULAR_WEIGHT>
270.24

>  <PUBCHEM_OPENEYE_CAN_SMILES>
CC1=C(C=C2C(=C1O)C(=O)C3=C(C2=O)C=C(C=C3)O)O

>  <PUBCHEM_OPENEYE_ISO_SMILES>
CC1=C(C=C2C(=C1O)C(=O)C3=C(C2=O)C=C(C=C3)O)O

>  <PUBCHEM_CACTVS_TPSA>
94.8

>  <PUBCHEM_MONOISOTOPIC_WEIGHT>
270.053

>  <PUBCHEM_TOTAL_CHARGE>
0

>  <PUBCHEM_HEAVY_ATOM_COUNT>
20

>  <PUBCHEM_ATOM_DEF_STEREO_COUNT>
0

>  <PUBCHEM_ATOM_UDEF_STEREO_COUNT>
0

>  <PUBCHEM_BOND_DEF_STEREO_COUNT>
0

>  <PUBCHEM_BOND_UDEF_STEREO_COUNT>
0

>  <PUBCHEM_ISOTOPIC_ATOM_COUNT>
0

>  <PUBCHEM_COMPONENT_COUNT>
1

>  <PUBCHEM_CACTVS_TAUTO_COUNT>
208

>  <PUBCHEM_COORDINATE_TYPE>
1
5
255

>  <PUBCHEM_BONDANNOTATIONS>
12  13  8
13  15  8
14  15  8
16  19  8
17  20  8
19  20  8
6  12  8
6  7  8
7  14  8
8  17  8
8  9  8
9  16  8

$$$$
