5319715
 OpenBabel06101807152D

 63 65  0  0  0  0  0  0  0  0999 V2000
    8.1301   -2.4182    0.0000 O   0  0  0  0  0  0  0  0  0  0  0  0
   11.6602   -0.3941    0.0000 O   0  0  0  0  0  0  0  0  0  0  0  0
    4.6000   -2.4424    0.0000 O   0  0  0  0  0  0  0  0  0  0  0  0
    6.3817    0.6164    0.0000 O   0  0  0  0  0  0  0  0  0  0  0  0
    8.1301    0.5818    0.0000 O   0  0  0  0  0  0  0  0  0  0  0  0
   11.6602   -2.4424    0.0000 O   0  0  0  0  0  0  0  0  0  0  0  0
   10.7156    3.1262    0.0000 O   0  0  0  0  0  0  0  0  0  0  0  0
    8.9961   -0.9182    0.0000 C   0  0  0  0  0  0  0  0  0  0  0  0
    7.2641   -0.9182    0.0000 C   0  0  0  0  0  0  0  0  0  0  0  0
    9.8901   -0.3836    0.0000 C   0  0  0  0  0  0  0  0  0  0  0  0
    7.2641   -1.9182    0.0000 C   0  0  0  0  0  0  0  0  0  0  0  0
    8.9961   -1.9182    0.0000 C   0  0  0  0  0  0  0  0  0  0  0  0
    8.1301   -0.4182    0.0000 C   0  0  0  0  0  0  0  0  0  0  0  0
    5.4641   -0.8974    0.0000 C   0  0  0  0  0  0  0  0  0  0  0  0
    6.3701   -0.3836    0.0000 C   0  0  0  0  0  0  0  0  0  0  0  0
   10.7961   -0.8974    0.0000 C   0  0  0  0  0  0  0  0  0  0  0  0
    5.4641   -1.9391    0.0000 C   0  0  0  0  0  0  0  0  0  0  0  0
    6.3701   -2.4529    0.0000 C   0  0  0  0  0  0  0  0  0  0  0  0
    4.6000   -0.3941    0.0000 C   0  0  0  0  0  0  0  0  0  0  0  0
   10.7271    2.1263    0.0000 C   0  0  0  0  0  0  0  0  0  0  0  0
    9.8901   -2.4529    0.0000 C   0  0  0  0  0  0  0  0  0  0  0  0
    9.8785    0.6164    0.0000 C   0  0  0  0  0  0  0  0  0  0  0  0
   10.7961   -1.9391    0.0000 C   0  0  0  0  0  0  0  0  0  0  0  0
   10.7387    1.1263    0.0000 C   0  0  0  0  0  0  0  0  0  0  0  0
   11.7271    2.1378    0.0000 C   0  0  0  0  0  0  0  0  0  0  0  0
    9.7272    2.1147    0.0000 C   0  0  0  0  0  0  0  0  0  0  0  0
    3.7320   -0.8908    0.0000 C   0  0  0  0  0  0  0  0  0  0  0  0
    2.8680   -0.3874    0.0000 C   0  0  0  0  0  0  0  0  0  0  0  0
   12.5282   -0.8908    0.0000 C   0  0  0  0  0  0  0  0  0  0  0  0
    4.6038   -3.4424    0.0000 C   0  0  0  0  0  0  0  0  0  0  0  0
    2.0000   -0.8841    0.0000 C   0  0  0  0  0  0  0  0  0  0  0  0
    2.8718    0.6126    0.0000 C   0  0  0  0  0  0  0  0  0  0  0  0
   11.6564   -3.4424    0.0000 C   0  0  0  0  0  0  0  0  0  0  0  0
    6.3773   -3.0729    0.0000 H   0  0  0  0  0  0  0  0  0  0  0  0
    5.0003    0.0793    0.0000 H   0  0  0  0  0  0  0  0  0  0  0  0
    4.2033    0.0824    0.0000 H   0  0  0  0  0  0  0  0  0  0  0  0
    9.8829   -3.0729    0.0000 H   0  0  0  0  0  0  0  0  0  0  0  0
    9.3380    0.9201    0.0000 H   0  0  0  0  0  0  0  0  0  0  0  0
   11.2792    0.8226    0.0000 H   0  0  0  0  0  0  0  0  0  0  0  0
    9.7200    2.7347    0.0000 H   0  0  0  0  0  0  0  0  0  0  0  0
    9.1072    2.1075    0.0000 H   0  0  0  0  0  0  0  0  0  0  0  0
    9.7344    1.4947    0.0000 H   0  0  0  0  0  0  0  0  0  0  0  0
   11.7342    1.5179    0.0000 H   0  0  0  0  0  0  0  0  0  0  0  0
   12.3470    2.1450    0.0000 H   0  0  0  0  0  0  0  0  0  0  0  0
   11.7199    2.7578    0.0000 H   0  0  0  0  0  0  0  0  0  0  0  0
    3.7296   -1.5108    0.0000 H   0  0  0  0  0  0  0  0  0  0  0  0
    5.8484    0.9325    0.0000 H   0  0  0  0  0  0  0  0  0  0  0  0
   11.2489    3.4424    0.0000 H   0  0  0  0  0  0  0  0  0  0  0  0
   12.2203   -1.4289    0.0000 H   0  0  0  0  0  0  0  0  0  0  0  0
   13.0663   -1.1987    0.0000 H   0  0  0  0  0  0  0  0  0  0  0  0
   12.8361   -0.3526    0.0000 H   0  0  0  0  0  0  0  0  0  0  0  0
    3.9838   -3.4448    0.0000 H   0  0  0  0  0  0  0  0  0  0  0  0
    4.6062   -4.0624    0.0000 H   0  0  0  0  0  0  0  0  0  0  0  0
    5.2238   -3.4400    0.0000 H   0  0  0  0  0  0  0  0  0  0  0  0
    1.6921   -0.3459    0.0000 H   0  0  0  0  0  0  0  0  0  0  0  0
    3.4918    0.6102    0.0000 H   0  0  0  0  0  0  0  0  0  0  0  0
    2.8742    1.2326    0.0000 H   0  0  0  0  0  0  0  0  0  0  0  0
    2.2518    0.6150    0.0000 H   0  0  0  0  0  0  0  0  0  0  0  0
    1.4619   -1.1920    0.0000 H   0  0  0  0  0  0  0  0  0  0  0  0
    2.3079   -1.4222    0.0000 H   0  0  0  0  0  0  0  0  0  0  0  0
   11.0364   -3.4400    0.0000 H   0  0  0  0  0  0  0  0  0  0  0  0
   11.6540   -4.0624    0.0000 H   0  0  0  0  0  0  0  0  0  0  0  0
   12.2764   -3.4448    0.0000 H   0  0  0  0  0  0  0  0  0  0  0  0
  1 11  1  0  0  0  0
  1 12  1  0  0  0  0
  2 16  1  0  0  0  0
  2 29  1  0  0  0  0
  3 17  1  0  0  0  0
  3 30  1  0  0  0  0
  4 15  1  0  0  0  0
  4 47  1  0  0  0  0
  5 13  2  0  0  0  0
  6 23  1  0  0  0  0
  6 33  1  0  0  0  0
  7 20  1  0  0  0  0
  7 48  1  0  0  0  0
  8 10  2  0  0  0  0
  8 12  1  0  0  0  0
  8 13  1  0  0  0  0
  9 11  1  0  0  0  0
  9 13  1  0  0  0  0
  9 15  2  0  0  0  0
 10 16  1  0  0  0  0
 10 22  1  0  0  0  0
 11 18  2  0  0  0  0
 12 21  2  0  0  0  0
 14 15  1  0  0  0  0
 14 17  2  0  0  0  0
 14 19  1  0  0  0  0
 16 23  2  0  0  0  0
 17 18  1  0  0  0  0
 18 34  1  0  0  0  0
 19 27  1  0  0  0  0
 19 35  1  0  0  0  0
 19 36  1  0  0  0  0
 20 24  1  0  0  0  0
 20 25  1  0  0  0  0
 20 26  1  0  0  0  0
 21 23  1  0  0  0  0
 21 37  1  0  0  0  0
 22 24  2  0  0  0  0
 22 38  1  0  0  0  0
 24 39  1  0  0  0  0
 25 43  1  0  0  0  0
 25 44  1  0  0  0  0
 25 45  1  0  0  0  0
 26 40  1  0  0  0  0
 26 41  1  0  0  0  0
 26 42  1  0  0  0  0
 27 28  2  0  0  0  0
 27 46  1  0  0  0  0
 28 31  1  0  0  0  0
 28 32  1  0  0  0  0
 29 49  1  0  0  0  0
 29 50  1  0  0  0  0
 29 51  1  0  0  0  0
 30 52  1  0  0  0  0
 30 53  1  0  0  0  0
 30 54  1  0  0  0  0
 31 55  1  0  0  0  0
 31 59  1  0  0  0  0
 31 60  1  0  0  0  0
 32 56  1  0  0  0  0
 32 57  1  0  0  0  0
 32 58  1  0  0  0  0
 33 61  1  0  0  0  0
 33 62  1  0  0  0  0
 33 63  1  0  0  0  0
M  END
>  <PUBCHEM_COMPOUND_CID>
5319715

>  <PUBCHEM_COMPOUND_CANONICALIZED>
1

>  <PUBCHEM_CACTVS_COMPLEXITY>
741

>  <PUBCHEM_CACTVS_HBOND_ACCEPTOR>
7

>  <PUBCHEM_CACTVS_HBOND_DONOR>
2

>  <PUBCHEM_CACTVS_ROTATABLE_BOND>
7

>  <PUBCHEM_CACTVS_SUBSKEYS>
AAADceB4OAAAAAAAAAAAAAAAAAAAAAAAAAA0YIAAAAAAAACRQAAAGgAACAAADESAmAIyBoAABgCIAqBSAAACCAAkIAAIiAEGiMgNJzaGNRqCeWKl4BUKuQfK7PzOoQADCAAYQABCAAYQADCAAAAAAAAAAA==

>  <PUBCHEM_IUPAC_OPENEYE_NAME>
1-hydroxy-8-[(E)-3-hydroxy-3-methyl-but-1-enyl]-3,6,7-trimethoxy-2-(3-methylbut-2-enyl)xanthen-9-one

>  <PUBCHEM_IUPAC_CAS_NAME>
1-hydroxy-8-[(E)-3-hydroxy-3-methylbut-1-enyl]-3,6,7-trimethoxy-2-(3-methylbut-2-enyl)-9-xanthenone

>  <PUBCHEM_IUPAC_NAME>
1-hydroxy-8-[(E)-3-hydroxy-3-methylbut-1-enyl]-3,6,7-trimethoxy-2-(3-methylbut-2-enyl)xanthen-9-one

>  <PUBCHEM_IUPAC_SYSTEMATIC_NAME>
2,3,6-trimethoxy-7-(3-methylbut-2-enyl)-1-[(E)-3-methyl-3-oxidanyl-but-1-enyl]-8-oxidanyl-xanthen-9-one

>  <PUBCHEM_IUPAC_TRADITIONAL_NAME>
1-hydroxy-8-[(E)-3-hydroxy-3-methyl-but-1-enyl]-3,6,7-trimethoxy-2-(3-methylbut-2-enyl)xanthone

>  <PUBCHEM_IUPAC_INCHI>
InChI=1S/C26H30O7/c1-14(2)8-9-15-17(30-5)12-19-22(23(15)27)24(28)21-16(10-11-26(3,4)29)25(32-7)20(31-6)13-18(21)33-19/h8,10-13,27,29H,9H2,1-7H3/b11-10+

>  <PUBCHEM_IUPAC_INCHIKEY>
SPRXFHBMQQEVDG-ZHACJKMWSA-N

>  <PUBCHEM_XLOGP3_AA>
5.3

>  <PUBCHEM_EXACT_MASS>
454.199

>  <PUBCHEM_MOLECULAR_FORMULA>
C26H30O7

>  <PUBCHEM_MOLECULAR_WEIGHT>
454.519

>  <PUBCHEM_OPENEYE_CAN_SMILES>
CC(=CCC1=C(C=C2C(=C1O)C(=O)C3=C(C(=C(C=C3O2)OC)OC)C=CC(C)(C)O)OC)C

>  <PUBCHEM_OPENEYE_ISO_SMILES>
CC(=CCC1=C(C=C2C(=C1O)C(=O)C3=C(C(=C(C=C3O2)OC)OC)/C=C/C(C)(C)O)OC)C

>  <PUBCHEM_CACTVS_TPSA>
94.4

>  <PUBCHEM_MONOISOTOPIC_WEIGHT>
454.199

>  <PUBCHEM_TOTAL_CHARGE>
0

>  <PUBCHEM_HEAVY_ATOM_COUNT>
33

>  <PUBCHEM_ATOM_DEF_STEREO_COUNT>
0

>  <PUBCHEM_ATOM_UDEF_STEREO_COUNT>
0

>  <PUBCHEM_BOND_DEF_STEREO_COUNT>
1

>  <PUBCHEM_BOND_UDEF_STEREO_COUNT>
0

>  <PUBCHEM_ISOTOPIC_ATOM_COUNT>
0

>  <PUBCHEM_COMPONENT_COUNT>
1

>  <PUBCHEM_CACTVS_TAUTO_COUNT>
5

>  <PUBCHEM_COORDINATE_TYPE>
1
5
255

>  <PUBCHEM_BONDANNOTATIONS>
1  11  8
1  12  8
10  16  8
11  18  8
12  21  8
14  15  8
14  17  8
16  23  8
17  18  8
21  23  8
8  10  8
8  12  8
8  13  8
9  11  8
9  13  8
9  15  8

$$$$
