5319380
 OpenBabel06101807152D

 51 54  0  0  0  0  0  0  0  0999 V2000
    7.3062    1.5678    0.0000 O   0  0  0  0  0  0  0  0  0  0  0  0
    3.7702    1.5956    0.0000 O   0  0  0  0  0  0  0  0  0  0  0  0
    5.5301   -1.4390    0.0000 O   0  0  0  0  0  0  0  0  0  0  0  0
    7.2622   -1.4390    0.0000 O   0  0  0  0  0  0  0  0  0  0  0  0
    2.0000    1.5851    0.0000 O   0  0  0  0  0  0  0  0  0  0  0  0
    7.3142    2.6094    0.0000 C   0  0  0  0  0  0  0  0  0  0  0  0
    6.3961    1.0610    0.0000 C   0  0  0  0  0  0  0  0  0  0  0  0
    5.5301    1.5610    0.0000 C   0  0  0  0  0  0  0  0  0  0  0  0
    6.3961    0.0610    0.0000 C   0  0  0  0  0  0  0  0  0  0  0  0
    4.6641    0.0610    0.0000 C   0  0  0  0  0  0  0  0  0  0  0  0
    4.6641    1.0610    0.0000 C   0  0  0  0  0  0  0  0  0  0  0  0
    6.4121    3.1302    0.0000 C   0  0  0  0  0  0  0  0  0  0  0  0
    5.5301   -0.4390    0.0000 C   0  0  0  0  0  0  0  0  0  0  0  0
    5.5141    2.6025    0.0000 C   0  0  0  0  0  0  0  0  0  0  0  0
    7.8175    3.4735    0.0000 C   0  0  0  0  0  0  0  0  0  0  0  0
    8.3142    2.6056    0.0000 C   0  0  0  0  0  0  0  0  0  0  0  0
    7.2622   -0.4390    0.0000 C   0  0  0  0  0  0  0  0  0  0  0  0
    8.1282    0.0610    0.0000 C   0  0  0  0  0  0  0  0  0  0  0  0
    3.7702   -0.4737    0.0000 C   0  0  0  0  0  0  0  0  0  0  0  0
    2.8641    0.0401    0.0000 C   0  0  0  0  0  0  0  0  0  0  0  0
    3.7817   -1.4736    0.0000 C   0  0  0  0  0  0  0  0  0  0  0  0
    8.9942   -0.4390    0.0000 C   0  0  0  0  0  0  0  0  0  0  0  0
    8.1282    1.0610    0.0000 C   0  0  0  0  0  0  0  0  0  0  0  0
    2.8641    1.0818    0.0000 C   0  0  0  0  0  0  0  0  0  0  0  0
    2.9215   -1.9836    0.0000 C   0  0  0  0  0  0  0  0  0  0  0  0
    4.6535   -1.9636    0.0000 C   0  0  0  0  0  0  0  0  0  0  0  0
    2.9331   -2.9836    0.0000 C   0  0  0  0  0  0  0  0  0  0  0  0
    4.6650   -2.9635    0.0000 C   0  0  0  0  0  0  0  0  0  0  0  0
    3.8048   -3.4735    0.0000 C   0  0  0  0  0  0  0  0  0  0  0  0
    6.4097    3.7502    0.0000 H   0  0  0  0  0  0  0  0  0  0  0  0
    4.9736    2.9062    0.0000 H   0  0  0  0  0  0  0  0  0  0  0  0
    8.3118    1.9856    0.0000 H   0  0  0  0  0  0  0  0  0  0  0  0
    8.9342    2.6032    0.0000 H   0  0  0  0  0  0  0  0  0  0  0  0
    8.3166    3.2256    0.0000 H   0  0  0  0  0  0  0  0  0  0  0  0
    8.3532    3.1614    0.0000 H   0  0  0  0  0  0  0  0  0  0  0  0
    8.1296    4.0092    0.0000 H   0  0  0  0  0  0  0  0  0  0  0  0
    7.2818    3.7856    0.0000 H   0  0  0  0  0  0  0  0  0  0  0  0
    8.6651    0.3710    0.0000 H   0  0  0  0  0  0  0  0  0  0  0  0
    2.3284   -0.2719    0.0000 H   0  0  0  0  0  0  0  0  0  0  0  0
    8.6842   -0.9760    0.0000 H   0  0  0  0  0  0  0  0  0  0  0  0
    8.7482    1.0610    0.0000 H   0  0  0  0  0  0  0  0  0  0  0  0
    9.5312   -0.7490    0.0000 H   0  0  0  0  0  0  0  0  0  0  0  0
    9.3042    0.0979    0.0000 H   0  0  0  0  0  0  0  0  0  0  0  0
    8.1282    1.6810    0.0000 H   0  0  0  0  0  0  0  0  0  0  0  0
    7.5082    1.0610    0.0000 H   0  0  0  0  0  0  0  0  0  0  0  0
    6.0671   -1.7490    0.0000 H   0  0  0  0  0  0  0  0  0  0  0  0
    2.3810   -1.6798    0.0000 H   0  0  0  0  0  0  0  0  0  0  0  0
    5.1868   -1.6474    0.0000 H   0  0  0  0  0  0  0  0  0  0  0  0
    2.3998   -3.2997    0.0000 H   0  0  0  0  0  0  0  0  0  0  0  0
    5.2055   -3.2673    0.0000 H   0  0  0  0  0  0  0  0  0  0  0  0
    3.8120   -4.0935    0.0000 H   0  0  0  0  0  0  0  0  0  0  0  0
  1  6  1  0  0  0  0
  1  7  1  0  0  0  0
  2 11  1  0  0  0  0
  2 24  1  0  0  0  0
  3 13  1  0  0  0  0
  3 46  1  0  0  0  0
  4 17  2  0  0  0  0
  5 24  2  0  0  0  0
  6 12  1  0  0  0  0
  6 15  1  0  0  0  0
  6 16  1  0  0  0  0
  7  8  1  0  0  0  0
  7  9  2  0  0  0  0
  8 11  2  0  0  0  0
  8 14  1  0  0  0  0
  9 13  1  0  0  0  0
  9 17  1  0  0  0  0
 10 11  1  0  0  0  0
 10 13  2  0  0  0  0
 10 19  1  0  0  0  0
 12 14  2  0  0  0  0
 12 30  1  0  0  0  0
 14 31  1  0  0  0  0
 15 35  1  0  0  0  0
 15 36  1  0  0  0  0
 15 37  1  0  0  0  0
 16 32  1  0  0  0  0
 16 33  1  0  0  0  0
 16 34  1  0  0  0  0
 17 18  1  0  0  0  0
 18 22  1  0  0  0  0
 18 23  1  0  0  0  0
 18 38  1  0  0  0  0
 19 20  2  0  0  0  0
 19 21  1  0  0  0  0
 20 24  1  0  0  0  0
 20 39  1  0  0  0  0
 21 25  2  0  0  0  0
 21 26  1  0  0  0  0
 22 40  1  0  0  0  0
 22 42  1  0  0  0  0
 22 43  1  0  0  0  0
 23 41  1  0  0  0  0
 23 44  1  0  0  0  0
 23 45  1  0  0  0  0
 25 27  1  0  0  0  0
 25 47  1  0  0  0  0
 26 28  2  0  0  0  0
 26 48  1  0  0  0  0
 27 29  2  0  0  0  0
 27 49  1  0  0  0  0
 28 29  1  0  0  0  0
 28 50  1  0  0  0  0
 29 51  1  0  0  0  0
M  END
>  <PUBCHEM_COMPOUND_CID>
5319380

>  <PUBCHEM_COMPOUND_CANONICALIZED>
1

>  <PUBCHEM_CACTVS_COMPLEXITY>
728

>  <PUBCHEM_CACTVS_HBOND_ACCEPTOR>
5

>  <PUBCHEM_CACTVS_HBOND_DONOR>
1

>  <PUBCHEM_CACTVS_ROTATABLE_BOND>
3

>  <PUBCHEM_CACTVS_SUBSKEYS>
AAADceB4OAAAAAAAAAAAAAAAAAAAAAAAAAAwYIEAAAAAAACBQAAAGgAACAAADUSAmAAyDoAABgCIAqDSCAACCAAkIAAIiAEECMgMJzaGNRqCe2Cl4BUIuQeI7OzOIAACCAAIAABAAAQQABAAAAAAAAAAAA==

>  <PUBCHEM_IUPAC_OPENEYE_NAME>
5-hydroxy-8,8-dimethyl-6-(2-methylpropanoyl)-4-phenyl-pyrano[2,3-h]chromen-2-one

>  <PUBCHEM_IUPAC_CAS_NAME>
5-hydroxy-8,8-dimethyl-6-(2-methyl-1-oxopropyl)-4-phenyl-2-pyrano[2,3-h][1]benzopyranone

>  <PUBCHEM_IUPAC_NAME>
5-hydroxy-8,8-dimethyl-6-(2-methylpropanoyl)-4-phenylpyrano[2,3-h]chromen-2-one

>  <PUBCHEM_IUPAC_SYSTEMATIC_NAME>
8,8-dimethyl-6-(2-methylpropanoyl)-5-oxidanyl-4-phenyl-pyrano[2,3-h]chromen-2-one

>  <PUBCHEM_IUPAC_TRADITIONAL_NAME>
5-hydroxy-6-isobutyryl-8,8-dimethyl-4-phenyl-pyrano[2,3-h]chromen-2-one

>  <PUBCHEM_IUPAC_INCHI>
InChI=1S/C24H22O5/c1-13(2)20(26)19-21(27)18-16(14-8-6-5-7-9-14)12-17(25)28-22(18)15-10-11-24(3,4)29-23(15)19/h5-13,27H,1-4H3

>  <PUBCHEM_IUPAC_INCHIKEY>
SVCPILBFQWTZFW-UHFFFAOYSA-N

>  <PUBCHEM_XLOGP3_AA>
4.9

>  <PUBCHEM_EXACT_MASS>
390.147

>  <PUBCHEM_MOLECULAR_FORMULA>
C24H22O5

>  <PUBCHEM_MOLECULAR_WEIGHT>
390.435

>  <PUBCHEM_OPENEYE_CAN_SMILES>
CC(C)C(=O)C1=C(C2=C(C3=C1OC(C=C3)(C)C)OC(=O)C=C2C4=CC=CC=C4)O

>  <PUBCHEM_OPENEYE_ISO_SMILES>
CC(C)C(=O)C1=C(C2=C(C3=C1OC(C=C3)(C)C)OC(=O)C=C2C4=CC=CC=C4)O

>  <PUBCHEM_CACTVS_TPSA>
72.8

>  <PUBCHEM_MONOISOTOPIC_WEIGHT>
390.147

>  <PUBCHEM_TOTAL_CHARGE>
0

>  <PUBCHEM_HEAVY_ATOM_COUNT>
29

>  <PUBCHEM_ATOM_DEF_STEREO_COUNT>
0

>  <PUBCHEM_ATOM_UDEF_STEREO_COUNT>
0

>  <PUBCHEM_BOND_DEF_STEREO_COUNT>
0

>  <PUBCHEM_BOND_UDEF_STEREO_COUNT>
0

>  <PUBCHEM_ISOTOPIC_ATOM_COUNT>
0

>  <PUBCHEM_COMPONENT_COUNT>
1

>  <PUBCHEM_CACTVS_TAUTO_COUNT>
15

>  <PUBCHEM_COORDINATE_TYPE>
1
5
255

>  <PUBCHEM_BONDANNOTATIONS>
10  11  8
10  13  8
10  19  8
19  20  8
2  11  8
2  24  8
20  24  8
21  25  8
21  26  8
25  27  8
26  28  8
27  29  8
28  29  8
7  8  8
7  9  8
8  11  8
9  13  8

$$$$
