5319744
 OpenBabel06101807152D

 34 36  0  0  0  0  0  0  0  0999 V2000
    5.5301   -1.7379    0.0000 O   0  0  0  0  0  0  0  0  0  0  0  0
    5.5301    1.2621    0.0000 O   0  0  0  0  0  0  0  0  0  0  0  0
    3.7817    1.2967    0.0000 O   0  0  0  0  0  0  0  0  0  0  0  0
    9.8602   -0.2379    0.0000 O   0  0  0  0  0  0  0  0  0  0  0  0
    2.0000   -1.7621    0.0000 O   0  0  0  0  0  0  0  0  0  0  0  0
    9.8602    1.7621    0.0000 O   0  0  0  0  0  0  0  0  0  0  0  0
    6.3961   -0.2379    0.0000 C   0  0  0  0  0  0  0  0  0  0  0  0
    4.6641   -0.2379    0.0000 C   0  0  0  0  0  0  0  0  0  0  0  0
    7.2622    0.2621    0.0000 C   0  0  0  0  0  0  0  0  0  0  0  0
    5.5301    0.2621    0.0000 C   0  0  0  0  0  0  0  0  0  0  0  0
    4.6641   -1.2379    0.0000 C   0  0  0  0  0  0  0  0  0  0  0  0
    3.7702    0.2967    0.0000 C   0  0  0  0  0  0  0  0  0  0  0  0
    6.3961   -1.2379    0.0000 C   0  0  0  0  0  0  0  0  0  0  0  0
    8.1282   -0.2379    0.0000 C   0  0  0  0  0  0  0  0  0  0  0  0
    3.7702   -1.7726    0.0000 C   0  0  0  0  0  0  0  0  0  0  0  0
    7.2622    1.2621    0.0000 C   0  0  0  0  0  0  0  0  0  0  0  0
    2.8641   -0.2171    0.0000 C   0  0  0  0  0  0  0  0  0  0  0  0
    8.9942    0.2621    0.0000 C   0  0  0  0  0  0  0  0  0  0  0  0
    2.8641   -1.2587    0.0000 C   0  0  0  0  0  0  0  0  0  0  0  0
    8.1282    1.7621    0.0000 C   0  0  0  0  0  0  0  0  0  0  0  0
    8.9942    1.2621    0.0000 C   0  0  0  0  0  0  0  0  0  0  0  0
    9.8602   -1.2379    0.0000 C   0  0  0  0  0  0  0  0  0  0  0  0
    6.9331   -1.5479    0.0000 H   0  0  0  0  0  0  0  0  0  0  0  0
    8.1282   -0.8579    0.0000 H   0  0  0  0  0  0  0  0  0  0  0  0
    3.7773   -2.3926    0.0000 H   0  0  0  0  0  0  0  0  0  0  0  0
    6.7252    1.5721    0.0000 H   0  0  0  0  0  0  0  0  0  0  0  0
    2.3284    0.0950    0.0000 H   0  0  0  0  0  0  0  0  0  0  0  0
    8.1282    2.3821    0.0000 H   0  0  0  0  0  0  0  0  0  0  0  0
    3.2484    1.6129    0.0000 H   0  0  0  0  0  0  0  0  0  0  0  0
    2.0024   -2.3821    0.0000 H   0  0  0  0  0  0  0  0  0  0  0  0
    9.8602    2.3821    0.0000 H   0  0  0  0  0  0  0  0  0  0  0  0
    9.2402   -1.2379    0.0000 H   0  0  0  0  0  0  0  0  0  0  0  0
    9.8602   -1.8579    0.0000 H   0  0  0  0  0  0  0  0  0  0  0  0
   10.4803   -1.2379    0.0000 H   0  0  0  0  0  0  0  0  0  0  0  0
  1 11  1  0  0  0  0
  1 13  1  0  0  0  0
  2 10  2  0  0  0  0
  3 12  1  0  0  0  0
  3 29  1  0  0  0  0
  4 18  1  0  0  0  0
  4 22  1  0  0  0  0
  5 19  1  0  0  0  0
  5 30  1  0  0  0  0
  6 21  1  0  0  0  0
  6 31  1  0  0  0  0
  7  9  1  0  0  0  0
  7 10  1  0  0  0  0
  7 13  2  0  0  0  0
  8 10  1  0  0  0  0
  8 11  1  0  0  0  0
  8 12  2  0  0  0  0
  9 14  2  0  0  0  0
  9 16  1  0  0  0  0
 11 15  2  0  0  0  0
 12 17  1  0  0  0  0
 13 23  1  0  0  0  0
 14 18  1  0  0  0  0
 14 24  1  0  0  0  0
 15 19  1  0  0  0  0
 15 25  1  0  0  0  0
 16 20  2  0  0  0  0
 16 26  1  0  0  0  0
 17 19  2  0  0  0  0
 17 27  1  0  0  0  0
 18 21  2  0  0  0  0
 20 21  1  0  0  0  0
 20 28  1  0  0  0  0
 22 32  1  0  0  0  0
 22 33  1  0  0  0  0
 22 34  1  0  0  0  0
M  END
>  <PUBCHEM_COMPOUND_CID>
5319744

>  <PUBCHEM_COMPOUND_CANONICALIZED>
1

>  <PUBCHEM_CACTVS_COMPLEXITY>
462

>  <PUBCHEM_CACTVS_HBOND_ACCEPTOR>
6

>  <PUBCHEM_CACTVS_HBOND_DONOR>
3

>  <PUBCHEM_CACTVS_ROTATABLE_BOND>
2

>  <PUBCHEM_CACTVS_SUBSKEYS>
AAADccB4OAAAAAAAAAAAAAAAAAAAAAAAAAAwYIAAAAAAAACBQAAAGgAACAAADASgmAIyBoAABgCIAqBSAAACCAAkIAAIiAEGiMgNJzaGNRqAcWMl4BULuYeI7PzOIAABCAAIQABAAAIQABCAAAAAAAAAAA==

>  <PUBCHEM_IUPAC_OPENEYE_NAME>
5,7-dihydroxy-3-(4-hydroxy-3-methoxy-phenyl)chromen-4-one

>  <PUBCHEM_IUPAC_CAS_NAME>
5,7-dihydroxy-3-(4-hydroxy-3-methoxyphenyl)-1-benzopyran-4-one

>  <PUBCHEM_IUPAC_NAME>
5,7-dihydroxy-3-(4-hydroxy-3-methoxyphenyl)chromen-4-one

>  <PUBCHEM_IUPAC_SYSTEMATIC_NAME>
3-(3-methoxy-4-oxidanyl-phenyl)-5,7-bis(oxidanyl)chromen-4-one

>  <PUBCHEM_IUPAC_TRADITIONAL_NAME>
5,7-dihydroxy-3-(4-hydroxy-3-methoxy-phenyl)chromone

>  <PUBCHEM_IUPAC_INCHI>
InChI=1S/C16H12O6/c1-21-13-4-8(2-3-11(13)18)10-7-22-14-6-9(17)5-12(19)15(14)16(10)20/h2-7,17-19H,1H3

>  <PUBCHEM_IUPAC_INCHIKEY>
ZMFBGWWGXBNJAC-UHFFFAOYSA-N

>  <PUBCHEM_XLOGP3_AA>
2.6

>  <PUBCHEM_EXACT_MASS>
300.063

>  <PUBCHEM_MOLECULAR_FORMULA>
C16H12O6

>  <PUBCHEM_MOLECULAR_WEIGHT>
300.266

>  <PUBCHEM_OPENEYE_CAN_SMILES>
COC1=C(C=CC(=C1)C2=COC3=CC(=CC(=C3C2=O)O)O)O

>  <PUBCHEM_OPENEYE_ISO_SMILES>
COC1=C(C=CC(=C1)C2=COC3=CC(=CC(=C3C2=O)O)O)O

>  <PUBCHEM_CACTVS_TPSA>
96.2

>  <PUBCHEM_MONOISOTOPIC_WEIGHT>
300.063

>  <PUBCHEM_TOTAL_CHARGE>
0

>  <PUBCHEM_HEAVY_ATOM_COUNT>
22

>  <PUBCHEM_ATOM_DEF_STEREO_COUNT>
0

>  <PUBCHEM_ATOM_UDEF_STEREO_COUNT>
0

>  <PUBCHEM_BOND_DEF_STEREO_COUNT>
0

>  <PUBCHEM_BOND_UDEF_STEREO_COUNT>
0

>  <PUBCHEM_ISOTOPIC_ATOM_COUNT>
0

>  <PUBCHEM_COMPONENT_COUNT>
1

>  <PUBCHEM_CACTVS_TAUTO_COUNT>
36

>  <PUBCHEM_COORDINATE_TYPE>
1
5
255

>  <PUBCHEM_BONDANNOTATIONS>
1  11  8
1  13  8
11  15  8
12  17  8
14  18  8
15  19  8
16  20  8
17  19  8
18  21  8
20  21  8
7  10  8
7  13  8
8  10  8
8  11  8
8  12  8
9  14  8
9  16  8

$$$$
