5319901
 OpenBabel06101807152D

 42 45  0  0  1  0  0  0  0  0999 V2000
   10.4728   -1.8578    0.0000 O   0  0  0  0  0  0  0  0  0  0  0  0
    6.9006   -2.0877    0.0000 O   0  0  0  0  0  0  0  0  0  0  0  0
    8.6605    0.9469    0.0000 O   0  0  0  0  0  0  0  0  0  0  0  0
    6.9121    0.9815    0.0000 O   0  0  0  0  0  0  0  0  0  0  0  0
    6.0022    1.4677    0.0000 O   0  0  0  0  0  0  0  0  0  0  0  0
    2.5381    1.4811    0.0000 O   0  0  0  0  0  0  0  0  0  0  0  0
   11.0564   -1.0531    0.0000 C   0  0  3  0  0  0  0  0  0  0  0  0
   10.4728   -0.2483    0.0000 C   0  0  0  0  0  0  0  0  0  0  0  0
    9.5266   -0.5531    0.0000 C   0  0  0  0  0  0  0  0  0  0  0  0
    9.5266   -1.5531    0.0000 C   0  0  0  0  0  0  0  0  0  0  0  0
    8.6605   -0.0531    0.0000 C   0  0  0  0  0  0  0  0  0  0  0  0
    7.7945   -0.5531    0.0000 C   0  0  0  0  0  0  0  0  0  0  0  0
   12.0564   -1.0531    0.0000 C   0  0  0  0  0  0  0  0  0  0  0  0
    8.6605   -2.0531    0.0000 C   0  0  0  0  0  0  0  0  0  0  0  0
    7.7945   -1.5531    0.0000 C   0  0  0  0  0  0  0  0  0  0  0  0
    6.9006   -0.0184    0.0000 C   0  0  0  0  0  0  0  0  0  0  0  0
    5.9945   -0.5323    0.0000 C   0  0  0  0  0  0  0  0  0  0  0  0
   12.5564   -1.9191    0.0000 C   0  0  0  0  0  0  0  0  0  0  0  0
    5.9945   -1.5739    0.0000 C   0  0  0  0  0  0  0  0  0  0  0  0
    5.1304   -0.0289    0.0000 C   0  0  0  0  0  0  0  0  0  0  0  0
   12.5564   -0.1870    0.0000 C   0  0  0  0  0  0  0  0  0  0  0  0
    5.1343    0.9711    0.0000 C   0  0  0  0  0  0  0  0  0  0  0  0
    4.2625   -0.5256    0.0000 C   0  0  0  0  0  0  0  0  0  0  0  0
    4.2702    1.4744    0.0000 C   0  0  0  0  0  0  0  0  0  0  0  0
    3.3984   -0.0222    0.0000 C   0  0  0  0  0  0  0  0  0  0  0  0
    3.4022    0.9778    0.0000 C   0  0  0  0  0  0  0  0  0  0  0  0
   11.4426   -1.8103    0.0000 H   0  0  0  0  0  0  0  0  0  0  0  0
   11.0102    0.0609    0.0000 H   0  0  0  0  0  0  0  0  0  0  0  0
   10.2217    0.3186    0.0000 H   0  0  0  0  0  0  0  0  0  0  0  0
    8.6605   -2.6731    0.0000 H   0  0  0  0  0  0  0  0  0  0  0  0
   12.0194   -2.2291    0.0000 H   0  0  0  0  0  0  0  0  0  0  0  0
   12.8664   -2.4560    0.0000 H   0  0  0  0  0  0  0  0  0  0  0  0
   13.0933   -1.6091    0.0000 H   0  0  0  0  0  0  0  0  0  0  0  0
    5.4588   -1.8860    0.0000 H   0  0  0  0  0  0  0  0  0  0  0  0
   13.1764   -0.1870    0.0000 H   0  0  0  0  0  0  0  0  0  0  0  0
   12.2464    0.3499    0.0000 H   0  0  0  0  0  0  0  0  0  0  0  0
    9.1975    1.2569    0.0000 H   0  0  0  0  0  0  0  0  0  0  0  0
    4.2601   -1.1456    0.0000 H   0  0  0  0  0  0  0  0  0  0  0  0
    4.2726    2.0944    0.0000 H   0  0  0  0  0  0  0  0  0  0  0  0
    2.8602   -0.3302    0.0000 H   0  0  0  0  0  0  0  0  0  0  0  0
    6.0046    2.0877    0.0000 H   0  0  0  0  0  0  0  0  0  0  0  0
    2.0000    1.1732    0.0000 H   0  0  0  0  0  0  0  0  0  0  0  0
  1  7  1  0  0  0  0
  1 10  1  0  0  0  0
  2 15  1  0  0  0  0
  2 19  1  0  0  0  0
  3 11  1  0  0  0  0
  3 37  1  0  0  0  0
  4 16  2  0  0  0  0
  5 22  1  0  0  0  0
  5 41  1  0  0  0  0
  6 26  1  0  0  0  0
  6 42  1  0  0  0  0
  7  8  1  0  0  0  0
  7 13  1  0  0  0  0
  7 27  1  0  0  0  0
  8  9  1  0  0  0  0
  8 28  1  0  0  0  0
  8 29  1  0  0  0  0
  9 10  2  0  0  0  0
  9 11  1  0  0  0  0
 10 14  1  0  0  0  0
 11 12  2  0  0  0  0
 12 15  1  0  0  0  0
 12 16  1  0  0  0  0
 13 18  1  0  0  0  0
 13 21  2  0  0  0  0
 14 15  2  0  0  0  0
 14 30  1  0  0  0  0
 16 17  1  0  0  0  0
 17 19  2  0  0  0  0
 17 20  1  0  0  0  0
 18 31  1  0  0  0  0
 18 32  1  0  0  0  0
 18 33  1  0  0  0  0
 19 34  1  0  0  0  0
 20 22  2  0  0  0  0
 20 23  1  0  0  0  0
 21 35  1  0  0  0  0
 21 36  1  0  0  0  0
 22 24  1  0  0  0  0
 23 25  2  0  0  0  0
 23 38  1  0  0  0  0
 24 26  2  0  0  0  0
 24 39  1  0  0  0  0
 25 26  1  0  0  0  0
 25 40  1  0  0  0  0
M  END
>  <PUBCHEM_COMPOUND_CID>
5319901

>  <PUBCHEM_COMPOUND_CANONICALIZED>
1

>  <PUBCHEM_CACTVS_COMPLEXITY>
628

>  <PUBCHEM_CACTVS_HBOND_ACCEPTOR>
6

>  <PUBCHEM_CACTVS_HBOND_DONOR>
3

>  <PUBCHEM_CACTVS_ROTATABLE_BOND>
2

>  <PUBCHEM_CACTVS_SUBSKEYS>
AAADceB4OAAAAAAAAAAAAAAAAAAAASAAAAAwYIAAAAAAAEiBQAAAGgAACAAADBSgmAIyBoAABgCIAqBSAAACCAAkIAAIiAEGCMgMJzaGNRqCeWCl4BUIuYfK7PzOIAACCAAIAABAAAQQABAAAAAAAAAAAA==

>  <PUBCHEM_IUPAC_OPENEYE_NAME>
6-(2,4-dihydroxyphenyl)-4-hydroxy-2-isopropenyl-2,3-dihydrofuro[3,2-g]chromen-5-one

>  <PUBCHEM_IUPAC_CAS_NAME>
6-(2,4-dihydroxyphenyl)-4-hydroxy-2-(1-methylethenyl)-2,3-dihydrofuro[3,2-g][1]benzopyran-5-one

>  <PUBCHEM_IUPAC_NAME>
6-(2,4-dihydroxyphenyl)-4-hydroxy-2-prop-1-en-2-yl-2,3-dihydrofuro[3,2-g]chromen-5-one

>  <PUBCHEM_IUPAC_SYSTEMATIC_NAME>
6-[2,4-bis(oxidanyl)phenyl]-4-oxidanyl-2-prop-1-en-2-yl-2,3-dihydrofuro[3,2-g]chromen-5-one

>  <PUBCHEM_IUPAC_TRADITIONAL_NAME>
6-(2,4-dihydroxyphenyl)-4-hydroxy-2-isopropenyl-2,3-dihydrofuro[3,2-g]chromen-5-one

>  <PUBCHEM_IUPAC_INCHI>
InChI=1S/C20H16O6/c1-9(2)15-6-12-16(26-15)7-17-18(19(12)23)20(24)13(8-25-17)11-4-3-10(21)5-14(11)22/h3-5,7-8,15,21-23H,1,6H2,2H3

>  <PUBCHEM_IUPAC_INCHIKEY>
DOGAHANJPKBCGB-UHFFFAOYSA-N

>  <PUBCHEM_XLOGP3_AA>
4

>  <PUBCHEM_EXACT_MASS>
352.095

>  <PUBCHEM_MOLECULAR_FORMULA>
C20H16O6

>  <PUBCHEM_MOLECULAR_WEIGHT>
352.342

>  <PUBCHEM_OPENEYE_CAN_SMILES>
CC(=C)C1CC2=C(O1)C=C3C(=C2O)C(=O)C(=CO3)C4=C(C=C(C=C4)O)O

>  <PUBCHEM_OPENEYE_ISO_SMILES>
CC(=C)C1CC2=C(O1)C=C3C(=C2O)C(=O)C(=CO3)C4=C(C=C(C=C4)O)O

>  <PUBCHEM_CACTVS_TPSA>
96.2

>  <PUBCHEM_MONOISOTOPIC_WEIGHT>
352.095

>  <PUBCHEM_TOTAL_CHARGE>
0

>  <PUBCHEM_HEAVY_ATOM_COUNT>
26

>  <PUBCHEM_ATOM_DEF_STEREO_COUNT>
0

>  <PUBCHEM_ATOM_UDEF_STEREO_COUNT>
1

>  <PUBCHEM_BOND_DEF_STEREO_COUNT>
0

>  <PUBCHEM_BOND_UDEF_STEREO_COUNT>
0

>  <PUBCHEM_ISOTOPIC_ATOM_COUNT>
0

>  <PUBCHEM_COMPONENT_COUNT>
1

>  <PUBCHEM_CACTVS_TAUTO_COUNT>
45

>  <PUBCHEM_COORDINATE_TYPE>
1
5
255

>  <PUBCHEM_BONDANNOTATIONS>
10  14  8
11  12  8
12  15  8
12  16  8
14  15  8
16  17  8
17  19  8
2  15  8
2  19  8
20  22  8
20  23  8
22  24  8
23  25  8
24  26  8
25  26  8
7  27  3
9  10  8
9  11  8

$$$$
