5319771
 OpenBabel06101807152D

 36 38  0  0  0  0  0  0  0  0999 V2000
    6.0682   -0.9777    0.0000 O   0  0  0  0  0  0  0  0  0  0  0  0
    4.3198   -2.0123    0.0000 O   0  0  0  0  0  0  0  0  0  0  0  0
    6.0682    2.0223    0.0000 O   0  0  0  0  0  0  0  0  0  0  0  0
    2.5381   -1.0019    0.0000 O   0  0  0  0  0  0  0  0  0  0  0  0
   10.3984    2.5223    0.0000 O   0  0  0  0  0  0  0  0  0  0  0  0
    5.2022    0.5223    0.0000 C   0  0  0  0  0  0  0  0  0  0  0  0
    6.9343    0.5223    0.0000 C   0  0  0  0  0  0  0  0  0  0  0  0
    5.2022   -0.4777    0.0000 C   0  0  0  0  0  0  0  0  0  0  0  0
    6.0682    1.0223    0.0000 C   0  0  0  0  0  0  0  0  0  0  0  0
    7.8003    1.0223    0.0000 C   0  0  0  0  0  0  0  0  0  0  0  0
    4.3083   -1.0124    0.0000 C   0  0  0  0  0  0  0  0  0  0  0  0
    4.3083    1.0570    0.0000 C   0  0  0  0  0  0  0  0  0  0  0  0
    6.9343   -0.4777    0.0000 C   0  0  0  0  0  0  0  0  0  0  0  0
    3.4022   -0.4985    0.0000 C   0  0  0  0  0  0  0  0  0  0  0  0
    3.4022    0.5431    0.0000 C   0  0  0  0  0  0  0  0  0  0  0  0
    8.6663    0.5223    0.0000 C   0  0  0  0  0  0  0  0  0  0  0  0
    7.8003    2.0223    0.0000 C   0  0  0  0  0  0  0  0  0  0  0  0
    9.5323    1.0223    0.0000 C   0  0  0  0  0  0  0  0  0  0  0  0
    8.6663    2.5223    0.0000 C   0  0  0  0  0  0  0  0  0  0  0  0
    9.5323    2.0223    0.0000 C   0  0  0  0  0  0  0  0  0  0  0  0
    3.4597   -2.5223    0.0000 C   0  0  0  0  0  0  0  0  0  0  0  0
   11.2644    2.0223    0.0000 C   0  0  0  0  0  0  0  0  0  0  0  0
    4.3154    1.6769    0.0000 H   0  0  0  0  0  0  0  0  0  0  0  0
    7.4712   -0.7877    0.0000 H   0  0  0  0  0  0  0  0  0  0  0  0
    2.8665    0.8552    0.0000 H   0  0  0  0  0  0  0  0  0  0  0  0
    8.6663   -0.0977    0.0000 H   0  0  0  0  0  0  0  0  0  0  0  0
    7.2634    2.3323    0.0000 H   0  0  0  0  0  0  0  0  0  0  0  0
   10.0693    0.7123    0.0000 H   0  0  0  0  0  0  0  0  0  0  0  0
    8.6663    3.1423    0.0000 H   0  0  0  0  0  0  0  0  0  0  0  0
    2.0000   -0.6939    0.0000 H   0  0  0  0  0  0  0  0  0  0  0  0
    3.1435   -1.9890    0.0000 H   0  0  0  0  0  0  0  0  0  0  0  0
    2.9263   -2.8385    0.0000 H   0  0  0  0  0  0  0  0  0  0  0  0
    3.7758   -3.0556    0.0000 H   0  0  0  0  0  0  0  0  0  0  0  0
   10.9544    1.4854    0.0000 H   0  0  0  0  0  0  0  0  0  0  0  0
   11.8013    1.7123    0.0000 H   0  0  0  0  0  0  0  0  0  0  0  0
   11.5744    2.5592    0.0000 H   0  0  0  0  0  0  0  0  0  0  0  0
  1  8  1  0  0  0  0
  1 13  1  0  0  0  0
  2 11  1  0  0  0  0
  2 21  1  0  0  0  0
  3  9  2  0  0  0  0
  4 14  1  0  0  0  0
  4 30  1  0  0  0  0
  5 20  1  0  0  0  0
  5 22  1  0  0  0  0
  6  8  2  0  0  0  0
  6  9  1  0  0  0  0
  6 12  1  0  0  0  0
  7  9  1  0  0  0  0
  7 10  1  0  0  0  0
  7 13  2  0  0  0  0
  8 11  1  0  0  0  0
 10 16  2  0  0  0  0
 10 17  1  0  0  0  0
 11 14  2  0  0  0  0
 12 15  2  0  0  0  0
 12 23  1  0  0  0  0
 13 24  1  0  0  0  0
 14 15  1  0  0  0  0
 15 25  1  0  0  0  0
 16 18  1  0  0  0  0
 16 26  1  0  0  0  0
 17 19  2  0  0  0  0
 17 27  1  0  0  0  0
 18 20  2  0  0  0  0
 18 28  1  0  0  0  0
 19 20  1  0  0  0  0
 19 29  1  0  0  0  0
 21 31  1  0  0  0  0
 21 32  1  0  0  0  0
 21 33  1  0  0  0  0
 22 34  1  0  0  0  0
 22 35  1  0  0  0  0
 22 36  1  0  0  0  0
M  END
>  <PUBCHEM_COMPOUND_CID>
5319771

>  <PUBCHEM_COMPOUND_CANONICALIZED>
1

>  <PUBCHEM_CACTVS_COMPLEXITY>
438

>  <PUBCHEM_CACTVS_HBOND_ACCEPTOR>
5

>  <PUBCHEM_CACTVS_HBOND_DONOR>
1

>  <PUBCHEM_CACTVS_ROTATABLE_BOND>
3

>  <PUBCHEM_CACTVS_SUBSKEYS>
AAADccB4OAAAAAAAAAAAAAAAAAAAAAAAAAAwYIAAAAAAAACBQAAAGgAACAAADASgmAIyBoAABgCIAqBSAAACCAAkIAAIiAEGiMgNJzaGNRqAcWMl4BULuYeK7PzOIAABCAAIQABAAAIQABCAAAAAAAAAAA==

>  <PUBCHEM_IUPAC_OPENEYE_NAME>
7-hydroxy-8-methoxy-3-(4-methoxyphenyl)chromen-4-one

>  <PUBCHEM_IUPAC_CAS_NAME>
7-hydroxy-8-methoxy-3-(4-methoxyphenyl)-1-benzopyran-4-one

>  <PUBCHEM_IUPAC_NAME>
7-hydroxy-8-methoxy-3-(4-methoxyphenyl)chromen-4-one

>  <PUBCHEM_IUPAC_SYSTEMATIC_NAME>
8-methoxy-3-(4-methoxyphenyl)-7-oxidanyl-chromen-4-one

>  <PUBCHEM_IUPAC_TRADITIONAL_NAME>
7-hydroxy-8-methoxy-3-(4-methoxyphenyl)chromone

>  <PUBCHEM_IUPAC_INCHI>
InChI=1S/C17H14O5/c1-20-11-5-3-10(4-6-11)13-9-22-16-12(15(13)19)7-8-14(18)17(16)21-2/h3-9,18H,1-2H3

>  <PUBCHEM_IUPAC_INCHIKEY>
SELGEUSJRWRBQR-UHFFFAOYSA-N

>  <PUBCHEM_XLOGP3_AA>
2.8

>  <PUBCHEM_EXACT_MASS>
298.084

>  <PUBCHEM_MOLECULAR_FORMULA>
C17H14O5

>  <PUBCHEM_MOLECULAR_WEIGHT>
298.294

>  <PUBCHEM_OPENEYE_CAN_SMILES>
COC1=CC=C(C=C1)C2=COC3=C(C2=O)C=CC(=C3OC)O

>  <PUBCHEM_OPENEYE_ISO_SMILES>
COC1=CC=C(C=C1)C2=COC3=C(C2=O)C=CC(=C3OC)O

>  <PUBCHEM_CACTVS_TPSA>
65

>  <PUBCHEM_MONOISOTOPIC_WEIGHT>
298.084

>  <PUBCHEM_TOTAL_CHARGE>
0

>  <PUBCHEM_HEAVY_ATOM_COUNT>
22

>  <PUBCHEM_ATOM_DEF_STEREO_COUNT>
0

>  <PUBCHEM_ATOM_UDEF_STEREO_COUNT>
0

>  <PUBCHEM_BOND_DEF_STEREO_COUNT>
0

>  <PUBCHEM_BOND_UDEF_STEREO_COUNT>
0

>  <PUBCHEM_ISOTOPIC_ATOM_COUNT>
0

>  <PUBCHEM_COMPONENT_COUNT>
1

>  <PUBCHEM_CACTVS_TAUTO_COUNT>
5

>  <PUBCHEM_COORDINATE_TYPE>
1
5
255

>  <PUBCHEM_BONDANNOTATIONS>
1  13  8
1  8  8
10  16  8
10  17  8
11  14  8
12  15  8
14  15  8
16  18  8
17  19  8
18  20  8
19  20  8
6  12  8
6  8  8
6  9  8
7  13  8
7  9  8
8  11  8

$$$$
