5319978
 OpenBabel06101807152D

 52 54  0  0  1  0  0  0  0  0999 V2000
    6.2635   -1.1296    0.0000 O   0  0  0  0  0  0  0  0  0  0  0  0
    2.8660   -0.1751    0.0000 O   0  0  0  0  0  0  0  0  0  0  0  0
    4.5806    2.7947    0.0000 O   0  0  0  0  0  0  0  0  0  0  0  0
    2.8660    1.8048    0.0000 O   0  0  0  0  0  0  0  0  0  0  0  0
    2.8660   -1.1349    0.0000 O   0  0  0  0  0  0  0  0  0  0  0  0
    7.8034   -0.6877    0.0000 C   0  0  0  0  0  0  0  0  0  0  0  0
    7.1265   -1.6349    0.0000 C   0  0  3  0  0  0  0  0  0  0  0  0
    7.1265    0.3249    0.0000 C   0  0  0  0  0  0  0  0  0  0  0  0
    7.1265   -2.6148    0.0000 C   0  0  0  0  0  0  0  0  0  0  0  0
    7.1265    1.3048    0.0000 C   0  0  0  0  0  0  0  0  0  0  0  0
    6.2779    1.7947    0.0000 C   0  0  0  0  0  0  0  0  0  0  0  0
    6.2779   -3.1047    0.0000 C   0  0  0  0  0  0  0  0  0  0  0  0
    5.4293    1.3048    0.0000 C   0  0  0  0  0  0  0  0  0  0  0  0
    5.4293   -2.6148    0.0000 C   0  0  0  0  0  0  0  0  0  0  0  0
    4.5806   -0.1651    0.0000 C   0  0  0  0  0  0  0  0  0  0  0  0
    4.5806   -1.1449    0.0000 C   0  0  0  0  0  0  0  0  0  0  0  0
    5.4293    0.3249    0.0000 C   0  0  0  0  0  0  0  0  0  0  0  0
    5.4293   -1.6349    0.0000 C   0  0  0  0  0  0  0  0  0  0  0  0
    4.5806    1.7947    0.0000 C   0  0  0  0  0  0  0  0  0  0  0  0
    3.7320    0.3249    0.0000 C   0  0  0  0  0  0  0  0  0  0  0  0
    3.7320    1.3048    0.0000 C   0  0  0  0  0  0  0  0  0  0  0  0
    4.5806   -3.1047    0.0000 C   0  0  0  0  0  0  0  0  0  0  0  0
    3.7320   -1.6349    0.0000 C   0  0  0  0  0  0  0  0  0  0  0  0
    3.7320   -2.6148    0.0000 C   0  0  0  0  0  0  0  0  0  0  0  0
    2.0000    0.3249    0.0000 C   0  0  0  0  0  0  0  0  0  0  0  0
    2.8660    2.8048    0.0000 C   0  0  0  0  0  0  0  0  0  0  0  0
    8.2609   -1.1061    0.0000 H   0  0  0  0  0  0  0  0  0  0  0  0
    8.2737   -0.2837    0.0000 H   0  0  0  0  0  0  0  0  0  0  0  0
    6.5886   -1.9432    0.0000 H   0  0  0  0  0  0  0  0  0  0  0  0
    6.5394    0.5241    0.0000 H   0  0  0  0  0  0  0  0  0  0  0  0
    7.7198    0.5049    0.0000 H   0  0  0  0  0  0  0  0  0  0  0  0
    7.3385   -3.1974    0.0000 H   0  0  0  0  0  0  0  0  0  0  0  0
    7.7370   -2.5071    0.0000 H   0  0  0  0  0  0  0  0  0  0  0  0
    7.7370    1.1971    0.0000 H   0  0  0  0  0  0  0  0  0  0  0  0
    7.3385    1.8874    0.0000 H   0  0  0  0  0  0  0  0  0  0  0  0
    6.6764    2.2697    0.0000 H   0  0  0  0  0  0  0  0  0  0  0  0
    5.8793    2.2697    0.0000 H   0  0  0  0  0  0  0  0  0  0  0  0
    5.8793   -3.5797    0.0000 H   0  0  0  0  0  0  0  0  0  0  0  0
    6.6764   -3.5797    0.0000 H   0  0  0  0  0  0  0  0  0  0  0  0
    5.9662    0.0149    0.0000 H   0  0  0  0  0  0  0  0  0  0  0  0
    5.9662   -1.3249    0.0000 H   0  0  0  0  0  0  0  0  0  0  0  0
    4.5806   -3.7247    0.0000 H   0  0  0  0  0  0  0  0  0  0  0  0
    6.2674   -0.5096    0.0000 H   0  0  0  0  0  0  0  0  0  0  0  0
    3.1951   -2.9248    0.0000 H   0  0  0  0  0  0  0  0  0  0  0  0
    5.1176    3.1047    0.0000 H   0  0  0  0  0  0  0  0  0  0  0  0
    2.3291   -1.4449    0.0000 H   0  0  0  0  0  0  0  0  0  0  0  0
    2.3100    0.8618    0.0000 H   0  0  0  0  0  0  0  0  0  0  0  0
    1.4631    0.6349    0.0000 H   0  0  0  0  0  0  0  0  0  0  0  0
    1.6900   -0.2121    0.0000 H   0  0  0  0  0  0  0  0  0  0  0  0
    3.4860    2.8048    0.0000 H   0  0  0  0  0  0  0  0  0  0  0  0
    2.8660    3.4248    0.0000 H   0  0  0  0  0  0  0  0  0  0  0  0
    2.2460    2.8048    0.0000 H   0  0  0  0  0  0  0  0  0  0  0  0
  1  7  1  0  0  0  0
  1 43  1  0  0  0  0
  2 20  1  0  0  0  0
  2 25  1  0  0  0  0
  3 19  1  0  0  0  0
  3 45  1  0  0  0  0
  4 21  1  0  0  0  0
  4 26  1  0  0  0  0
  5 23  1  0  0  0  0
  5 46  1  0  0  0  0
  6  7  1  0  0  0  0
  6  8  1  0  0  0  0
  6 27  1  0  0  0  0
  6 28  1  0  0  0  0
  7  9  1  0  0  0  0
  7 29  1  0  0  0  0
  8 10  1  0  0  0  0
  8 30  1  0  0  0  0
  8 31  1  0  0  0  0
  9 12  1  0  0  0  0
  9 32  1  0  0  0  0
  9 33  1  0  0  0  0
 10 11  1  0  0  0  0
 10 34  1  0  0  0  0
 10 35  1  0  0  0  0
 11 13  1  0  0  0  0
 11 36  1  0  0  0  0
 11 37  1  0  0  0  0
 12 14  1  0  0  0  0
 12 38  1  0  0  0  0
 12 39  1  0  0  0  0
 13 17  2  0  0  0  0
 13 19  1  0  0  0  0
 14 18  2  0  0  0  0
 14 22  1  0  0  0  0
 15 16  1  0  0  0  0
 15 17  1  0  0  0  0
 15 20  2  0  0  0  0
 16 18  1  0  0  0  0
 16 23  2  0  0  0  0
 17 40  1  0  0  0  0
 18 41  1  0  0  0  0
 19 21  2  0  0  0  0
 20 21  1  0  0  0  0
 22 24  2  0  0  0  0
 22 42  1  0  0  0  0
 23 24  1  0  0  0  0
 24 44  1  0  0  0  0
 25 47  1  0  0  0  0
 25 48  1  0  0  0  0
 25 49  1  0  0  0  0
 26 50  1  0  0  0  0
 26 51  1  0  0  0  0
 26 52  1  0  0  0  0
M  END
>  <PUBCHEM_COMPOUND_CID>
5319978

>  <PUBCHEM_COMPOUND_CANONICALIZED>
1

>  <PUBCHEM_CACTVS_COMPLEXITY>
431

>  <PUBCHEM_CACTVS_HBOND_ACCEPTOR>
5

>  <PUBCHEM_CACTVS_HBOND_DONOR>
3

>  <PUBCHEM_CACTVS_ROTATABLE_BOND>
2

>  <PUBCHEM_CACTVS_SUBSKEYS>
AAADceB4OAAAAAAAAAAAAAAAAAAAAAAAAAAwYAAAAAAAAAABQAAAGgAACAAADBSgmAIyBoAABgCAAiBCAAACCAAgIAAIiAAGiIgNNyKGMRqAcCMlwBULuAfA4PwOoAADCAAIQABAAAYQABCAAAAAAAAAAA==

>  <PUBCHEM_IUPAC_INCHI>
InChI=1S/C21H26O5/c1-25-20-17-12-14(19(24)21(20)26-2)5-3-4-6-15(22)9-7-13-8-10-18(23)16(17)11-13/h8,10-12,15,22-24H,3-7,9H2,1-2H3

>  <PUBCHEM_IUPAC_INCHIKEY>
SBGBAZQAEOWGFT-UHFFFAOYSA-N

>  <PUBCHEM_XLOGP3_AA>
4.1

>  <PUBCHEM_EXACT_MASS>
358.178

>  <PUBCHEM_MOLECULAR_FORMULA>
C21H26O5

>  <PUBCHEM_MOLECULAR_WEIGHT>
358.434

>  <PUBCHEM_OPENEYE_CAN_SMILES>
COC1=C(C(=C2CCCCC(CCC3=CC(=C(C=C3)O)C1=C2)O)O)OC

>  <PUBCHEM_OPENEYE_ISO_SMILES>
COC1=C(C(=C2CCCCC(CCC3=CC(=C(C=C3)O)C1=C2)O)O)OC

>  <PUBCHEM_CACTVS_TPSA>
79.2

>  <PUBCHEM_MONOISOTOPIC_WEIGHT>
358.178

>  <PUBCHEM_TOTAL_CHARGE>
0

>  <PUBCHEM_HEAVY_ATOM_COUNT>
26

>  <PUBCHEM_ATOM_DEF_STEREO_COUNT>
0

>  <PUBCHEM_ATOM_UDEF_STEREO_COUNT>
1

>  <PUBCHEM_BOND_DEF_STEREO_COUNT>
0

>  <PUBCHEM_BOND_UDEF_STEREO_COUNT>
0

>  <PUBCHEM_ISOTOPIC_ATOM_COUNT>
0

>  <PUBCHEM_COMPONENT_COUNT>
1

>  <PUBCHEM_CACTVS_TAUTO_COUNT>
1

>  <PUBCHEM_COORDINATE_TYPE>
1
5
255

>  <PUBCHEM_BONDANNOTATIONS>
7  1  3
13  17  8
13  19  8
14  18  8
14  22  8
15  17  8
15  20  8
16  18  8
16  23  8
19  21  8
20  21  8
22  24  8
23  24  8

$$$$
