5319411
 OpenBabel06101807152D

 65 70  0  0  0  0  0  0  0  0999 V2000
    6.3580    2.0010    0.0000 O   0  0  0  0  0  0  0  0  0  0  0  0
    6.3301   -1.9643    0.0000 O   0  0  0  0  0  0  0  0  0  0  0  0
    2.8660    1.0357    0.0000 O   0  0  0  0  0  0  0  0  0  0  0  0
    2.8660   -0.9643    0.0000 O   0  0  0  0  0  0  0  0  0  0  0  0
    2.8660    2.0357    0.0000 O   0  0  0  0  0  0  0  0  0  0  0  0
    4.5981    5.0357    0.0000 O   0  0  0  0  0  0  0  0  0  0  0  0
    6.3465    5.0702    0.0000 O   0  0  0  0  0  0  0  0  0  0  0  0
    8.9282   -0.4643    0.0000 O   0  0  0  0  0  0  0  0  0  0  0  0
    9.8324   -1.9612    0.0000 O   0  0  0  0  0  0  0  0  0  0  0  0
    8.0743   -5.0336    0.0000 O   0  0  0  0  0  0  0  0  0  0  0  0
   10.7205    0.5015    0.0000 O   0  0  0  0  0  0  0  0  0  0  0  0
    4.5981    2.0357    0.0000 C   0  0  0  0  0  0  0  0  0  0  0  0
    4.5981    1.0357    0.0000 C   0  0  0  0  0  0  0  0  0  0  0  0
    5.4641    2.5357    0.0000 C   0  0  0  0  0  0  0  0  0  0  0  0
    5.4641    3.5357    0.0000 C   0  0  0  0  0  0  0  0  0  0  0  0
    5.4641   -0.4643    0.0000 C   0  0  0  0  0  0  0  0  0  0  0  0
    5.4641    0.5357    0.0000 C   0  0  0  0  0  0  0  0  0  0  0  0
    3.7320    0.5357    0.0000 C   0  0  0  0  0  0  0  0  0  0  0  0
    3.7320    2.5357    0.0000 C   0  0  0  0  0  0  0  0  0  0  0  0
    3.7320   -0.4643    0.0000 C   0  0  0  0  0  0  0  0  0  0  0  0
    4.5981    4.0357    0.0000 C   0  0  0  0  0  0  0  0  0  0  0  0
    4.5981   -0.9643    0.0000 C   0  0  0  0  0  0  0  0  0  0  0  0
    6.3301   -0.9643    0.0000 C   0  0  0  0  0  0  0  0  0  0  0  0
    3.7320    3.5357    0.0000 C   0  0  0  0  0  0  0  0  0  0  0  0
    6.3580    4.0703    0.0000 C   0  0  0  0  0  0  0  0  0  0  0  0
    7.2641    2.5148    0.0000 C   0  0  0  0  0  0  0  0  0  0  0  0
    7.2641    3.5565    0.0000 C   0  0  0  0  0  0  0  0  0  0  0  0
    8.0622   -1.9643    0.0000 C   0  0  0  0  0  0  0  0  0  0  0  0
    7.1962   -2.4643    0.0000 C   0  0  0  0  0  0  0  0  0  0  0  0
    7.1962   -0.4643    0.0000 C   0  0  0  0  0  0  0  0  0  0  0  0
    8.1282    2.0115    0.0000 C   0  0  0  0  0  0  0  0  0  0  0  0
    8.0622   -0.9643    0.0000 C   0  0  0  0  0  0  0  0  0  0  0  0
    8.9722   -2.4712    0.0000 C   0  0  0  0  0  0  0  0  0  0  0  0
    7.1801   -3.5058    0.0000 C   0  0  0  0  0  0  0  0  0  0  0  0
    8.1244    1.0115    0.0000 C   0  0  0  0  0  0  0  0  0  0  0  0
    8.9962    2.5082    0.0000 C   0  0  0  0  0  0  0  0  0  0  0  0
    8.0781   -4.0336    0.0000 C   0  0  0  0  0  0  0  0  0  0  0  0
    8.9802   -3.5128    0.0000 C   0  0  0  0  0  0  0  0  0  0  0  0
    2.0000    0.5357    0.0000 C   0  0  0  0  0  0  0  0  0  0  0  0
    8.9884    0.5082    0.0000 C   0  0  0  0  0  0  0  0  0  0  0  0
    9.8602    2.0048    0.0000 C   0  0  0  0  0  0  0  0  0  0  0  0
    2.8660   -1.9643    0.0000 C   0  0  0  0  0  0  0  0  0  0  0  0
    9.8564    1.0048    0.0000 C   0  0  0  0  0  0  0  0  0  0  0  0
    6.0010    0.8457    0.0000 H   0  0  0  0  0  0  0  0  0  0  0  0
    4.5981   -1.5843    0.0000 H   0  0  0  0  0  0  0  0  0  0  0  0
    3.1951    3.8457    0.0000 H   0  0  0  0  0  0  0  0  0  0  0  0
    7.7998    3.8685    0.0000 H   0  0  0  0  0  0  0  0  0  0  0  0
    7.1962    0.1557    0.0000 H   0  0  0  0  0  0  0  0  0  0  0  0
    6.6396   -3.8096    0.0000 H   0  0  0  0  0  0  0  0  0  0  0  0
    2.3291    2.3457    0.0000 H   0  0  0  0  0  0  0  0  0  0  0  0
    7.5862    0.7036    0.0000 H   0  0  0  0  0  0  0  0  0  0  0  0
    8.9985    3.1282    0.0000 H   0  0  0  0  0  0  0  0  0  0  0  0
    9.5183   -3.8207    0.0000 H   0  0  0  0  0  0  0  0  0  0  0  0
    4.0611    5.3457    0.0000 H   0  0  0  0  0  0  0  0  0  0  0  0
    1.6900    1.0726    0.0000 H   0  0  0  0  0  0  0  0  0  0  0  0
    1.4631    0.2257    0.0000 H   0  0  0  0  0  0  0  0  0  0  0  0
    2.3100   -0.0013    0.0000 H   0  0  0  0  0  0  0  0  0  0  0  0
    8.9860   -0.1118    0.0000 H   0  0  0  0  0  0  0  0  0  0  0  0
   10.3984    2.3128    0.0000 H   0  0  0  0  0  0  0  0  0  0  0  0
    2.2460   -1.9643    0.0000 H   0  0  0  0  0  0  0  0  0  0  0  0
    2.8660   -2.5843    0.0000 H   0  0  0  0  0  0  0  0  0  0  0  0
    3.4860   -1.9643    0.0000 H   0  0  0  0  0  0  0  0  0  0  0  0
   10.3728   -2.2650    0.0000 H   0  0  0  0  0  0  0  0  0  0  0  0
    8.6100   -5.3457    0.0000 H   0  0  0  0  0  0  0  0  0  0  0  0
   11.2586    0.8094    0.0000 H   0  0  0  0  0  0  0  0  0  0  0  0
  1 14  1  0  0  0  0
  1 26  1  0  0  0  0
  2 23  1  0  0  0  0
  2 29  1  0  0  0  0
  3 18  1  0  0  0  0
  3 39  1  0  0  0  0
  4 20  1  0  0  0  0
  4 42  1  0  0  0  0
  5 19  1  0  0  0  0
  5 50  1  0  0  0  0
  6 21  1  0  0  0  0
  6 54  1  0  0  0  0
  7 25  2  0  0  0  0
  8 32  2  0  0  0  0
  9 33  1  0  0  0  0
  9 63  1  0  0  0  0
 10 37  1  0  0  0  0
 10 64  1  0  0  0  0
 11 43  1  0  0  0  0
 11 65  1  0  0  0  0
 12 13  1  0  0  0  0
 12 14  1  0  0  0  0
 12 19  2  0  0  0  0
 13 17  1  0  0  0  0
 13 18  2  0  0  0  0
 14 15  2  0  0  0  0
 15 21  1  0  0  0  0
 15 25  1  0  0  0  0
 16 17  2  0  0  0  0
 16 22  1  0  0  0  0
 16 23  1  0  0  0  0
 17 44  1  0  0  0  0
 18 20  1  0  0  0  0
 19 24  1  0  0  0  0
 20 22  2  0  0  0  0
 21 24  2  0  0  0  0
 22 45  1  0  0  0  0
 23 30  2  0  0  0  0
 24 46  1  0  0  0  0
 25 27  1  0  0  0  0
 26 27  2  0  0  0  0
 26 31  1  0  0  0  0
 27 47  1  0  0  0  0
 28 29  1  0  0  0  0
 28 32  1  0  0  0  0
 28 33  2  0  0  0  0
 29 34  2  0  0  0  0
 30 32  1  0  0  0  0
 30 48  1  0  0  0  0
 31 35  2  0  0  0  0
 31 36  1  0  0  0  0
 33 38  1  0  0  0  0
 34 37  1  0  0  0  0
 34 49  1  0  0  0  0
 35 40  1  0  0  0  0
 35 51  1  0  0  0  0
 36 41  2  0  0  0  0
 36 52  1  0  0  0  0
 37 38  2  0  0  0  0
 38 53  1  0  0  0  0
 39 55  1  0  0  0  0
 39 56  1  0  0  0  0
 39 57  1  0  0  0  0
 40 43  2  0  0  0  0
 40 58  1  0  0  0  0
 41 43  1  0  0  0  0
 41 59  1  0  0  0  0
 42 60  1  0  0  0  0
 42 61  1  0  0  0  0
 42 62  1  0  0  0  0
M  END
>  <PUBCHEM_COMPOUND_CID>
5319411

>  <PUBCHEM_COMPOUND_CANONICALIZED>
1

>  <PUBCHEM_CACTVS_COMPLEXITY>
1110

>  <PUBCHEM_CACTVS_HBOND_ACCEPTOR>
11

>  <PUBCHEM_CACTVS_HBOND_DONOR>
5

>  <PUBCHEM_CACTVS_ROTATABLE_BOND>
5

>  <PUBCHEM_CACTVS_SUBSKEYS>
AAADceB8PAAAAAAAAAAAAAAAAAAAAAAAAAAwYMGCAAAAAACBVAAAGgAACAAADASAmAIyBoAABgCIAqBSAAACCAAkIAAIiAEGiMgNJzaGNRqCeWKl4BUKuQfI7PzOoAADCAAIQABAAAYQABCAAAAAAAAAAA==

>  <PUBCHEM_IUPAC_OPENEYE_NAME>
8-[5-(5,7-dihydroxy-4-oxo-chromen-2-yl)-2,3-dimethoxy-phenyl]-5,7-dihydroxy-2-(4-hydroxyphenyl)chromen-4-one

>  <PUBCHEM_IUPAC_CAS_NAME>
8-[5-(5,7-dihydroxy-4-oxo-1-benzopyran-2-yl)-2,3-dimethoxyphenyl]-5,7-dihydroxy-2-(4-hydroxyphenyl)-1-benzopyran-4-one

>  <PUBCHEM_IUPAC_NAME>
8-[5-(5,7-dihydroxy-4-oxochromen-2-yl)-2,3-dimethoxyphenyl]-5,7-dihydroxy-2-(4-hydroxyphenyl)chromen-4-one

>  <PUBCHEM_IUPAC_SYSTEMATIC_NAME>
8-[5-[5,7-bis(oxidanyl)-4-oxidanylidene-chromen-2-yl]-2,3-dimethoxy-phenyl]-2-(4-hydroxyphenyl)-5,7-bis(oxidanyl)chromen-4-one

>  <PUBCHEM_IUPAC_TRADITIONAL_NAME>
8-[5-(5,7-dihydroxy-4-keto-chromen-2-yl)-2,3-dimethoxy-phenyl]-5,7-dihydroxy-2-(4-hydroxyphenyl)chromone

>  <PUBCHEM_IUPAC_INCHI>
InChI=1S/C32H22O11/c1-40-27-8-15(25-12-22(38)29-19(35)9-17(34)10-26(29)42-25)7-18(31(27)41-2)28-20(36)11-21(37)30-23(39)13-24(43-32(28)30)14-3-5-16(33)6-4-14/h3-13,33-37H,1-2H3

>  <PUBCHEM_IUPAC_INCHIKEY>
RQNXAFVREOYDNA-UHFFFAOYSA-N

>  <PUBCHEM_XLOGP3_AA>
5.3

>  <PUBCHEM_EXACT_MASS>
582.116

>  <PUBCHEM_MOLECULAR_FORMULA>
C32H22O11

>  <PUBCHEM_MOLECULAR_WEIGHT>
582.517

>  <PUBCHEM_OPENEYE_CAN_SMILES>
COC1=CC(=CC(=C1OC)C2=C(C=C(C3=C2OC(=CC3=O)C4=CC=C(C=C4)O)O)O)C5=CC(=O)C6=C(C=C(C=C6O5)O)O

>  <PUBCHEM_OPENEYE_ISO_SMILES>
COC1=CC(=CC(=C1OC)C2=C(C=C(C3=C2OC(=CC3=O)C4=CC=C(C=C4)O)O)O)C5=CC(=O)C6=C(C=C(C=C6O5)O)O

>  <PUBCHEM_CACTVS_TPSA>
172

>  <PUBCHEM_MONOISOTOPIC_WEIGHT>
582.116

>  <PUBCHEM_TOTAL_CHARGE>
0

>  <PUBCHEM_HEAVY_ATOM_COUNT>
43

>  <PUBCHEM_ATOM_DEF_STEREO_COUNT>
0

>  <PUBCHEM_ATOM_UDEF_STEREO_COUNT>
0

>  <PUBCHEM_BOND_DEF_STEREO_COUNT>
0

>  <PUBCHEM_BOND_UDEF_STEREO_COUNT>
0

>  <PUBCHEM_ISOTOPIC_ATOM_COUNT>
0

>  <PUBCHEM_COMPONENT_COUNT>
1

>  <PUBCHEM_CACTVS_TAUTO_COUNT>
684

>  <PUBCHEM_COORDINATE_TYPE>
1
5
255

>  <PUBCHEM_BONDANNOTATIONS>
1  14  8
1  26  8
12  14  8
12  19  8
13  17  8
13  18  8
14  15  8
15  21  8
15  25  8
16  17  8
16  22  8
18  20  8
19  24  8
2  23  8
2  29  8
20  22  8
21  24  8
23  30  8
25  27  8
26  27  8
28  29  8
28  32  8
28  33  8
29  34  8
30  32  8
31  35  8
31  36  8
33  38  8
34  37  8
35  40  8
36  41  8
37  38  8
40  43  8
41  43  8

$$$$
