5320834
 OpenBabel06101807152D

 74 78  0  0  1  0  0  0  0  0999 V2000
    6.9343   -0.2500    0.0000 O   0  0  0  0  0  0  0  0  0  0  0  0
    4.3362   -2.7500    0.0000 O   0  0  0  0  0  0  0  0  0  0  0  0
    6.0682   -2.7500    0.0000 O   0  0  0  0  0  0  0  0  0  0  0  0
    7.8003   -2.7500    0.0000 O   0  0  0  0  0  0  0  0  0  0  0  0
    9.5323   -1.7500    0.0000 O   0  0  0  0  0  0  0  0  0  0  0  0
    7.8003    1.2500    0.0000 O   0  0  0  0  0  0  0  0  0  0  0  0
    6.0682   -4.7500    0.0000 O   0  0  0  0  0  0  0  0  0  0  0  0
    9.5323    0.2500    0.0000 O   0  0  0  0  0  0  0  0  0  0  0  0
    4.3362   -5.7500    0.0000 O   0  0  0  0  0  0  0  0  0  0  0  0
    2.6042   -4.7500    0.0000 O   0  0  0  0  0  0  0  0  0  0  0  0
    2.6042   -1.7500    0.0000 O   0  0  0  0  0  0  0  0  0  0  0  0
    6.0682    3.2500    0.0000 O   0  0  0  0  0  0  0  0  0  0  0  0
    6.0682    0.2500    0.0000 O   0  0  0  0  0  0  0  0  0  0  0  0
    4.3198    0.2154    0.0000 O   0  0  0  0  0  0  0  0  0  0  0  0
    2.5381    3.2742    0.0000 O   0  0  0  0  0  0  0  0  0  0  0  0
    8.6663    5.7500    0.0000 O   0  0  0  0  0  0  0  0  0  0  0  0
   10.3984    4.7500    0.0000 O   0  0  0  0  0  0  0  0  0  0  0  0
    6.9343   -1.2500    0.0000 C   0  0  1  0  0  0  0  0  0  0  0  0
    7.8003   -1.7500    0.0000 C   0  0  2  0  0  0  0  0  0  0  0  0
    8.6663   -1.2500    0.0000 C   0  0  1  0  0  0  0  0  0  0  0  0
    5.2022   -4.2500    0.0000 C   0  0  2  0  0  0  0  0  0  0  0  0
    8.6663   -0.2500    0.0000 C   0  0  2  0  0  0  0  0  0  0  0  0
    4.3362   -4.7500    0.0000 C   0  0  2  0  0  0  0  0  0  0  0  0
    5.2022   -3.2500    0.0000 C   0  0  1  0  0  0  0  0  0  0  0  0
    3.4702   -4.2500    0.0000 C   0  0  1  0  0  0  0  0  0  0  0  0
    3.4702   -3.2500    0.0000 C   0  0  1  0  0  0  0  0  0  0  0  0
    7.8003    0.2500    0.0000 C   0  0  1  0  0  0  0  0  0  0  0  0
    6.0682   -1.7500    0.0000 C   0  0  0  0  0  0  0  0  0  0  0  0
    2.6042   -2.7500    0.0000 C   0  0  0  0  0  0  0  0  0  0  0  0
    6.9343    1.7500    0.0000 C   0  0  0  0  0  0  0  0  0  0  0  0
    6.9343    2.7500    0.0000 C   0  0  0  0  0  0  0  0  0  0  0  0
    6.0682    1.2500    0.0000 C   0  0  0  0  0  0  0  0  0  0  0  0
    5.2022    1.7500    0.0000 C   0  0  0  0  0  0  0  0  0  0  0  0
    7.8003    3.2500    0.0000 C   0  0  0  0  0  0  0  0  0  0  0  0
    5.2022    2.7500    0.0000 C   0  0  0  0  0  0  0  0  0  0  0  0
    4.3083    1.2153    0.0000 C   0  0  0  0  0  0  0  0  0  0  0  0
    4.3083    3.2847    0.0000 C   0  0  0  0  0  0  0  0  0  0  0  0
    7.8003    4.2500    0.0000 C   0  0  0  0  0  0  0  0  0  0  0  0
    8.6663    2.7500    0.0000 C   0  0  0  0  0  0  0  0  0  0  0  0
    3.4022    1.7292    0.0000 C   0  0  0  0  0  0  0  0  0  0  0  0
    3.4022    2.7708    0.0000 C   0  0  0  0  0  0  0  0  0  0  0  0
    8.6663    4.7500    0.0000 C   0  0  0  0  0  0  0  0  0  0  0  0
    9.5323    3.2500    0.0000 C   0  0  0  0  0  0  0  0  0  0  0  0
    9.5323    4.2500    0.0000 C   0  0  0  0  0  0  0  0  0  0  0  0
    6.3973   -0.9400    0.0000 H   0  0  0  0  0  0  0  0  0  0  0  0
    8.3372   -2.0600    0.0000 H   0  0  0  0  0  0  0  0  0  0  0  0
    9.2033   -0.9400    0.0000 H   0  0  0  0  0  0  0  0  0  0  0  0
    5.2022   -4.8700    0.0000 H   0  0  0  0  0  0  0  0  0  0  0  0
    8.6663    0.3700    0.0000 H   0  0  0  0  0  0  0  0  0  0  0  0
    3.7993   -5.0600    0.0000 H   0  0  0  0  0  0  0  0  0  0  0  0
    5.2022   -2.6300    0.0000 H   0  0  0  0  0  0  0  0  0  0  0  0
    2.9332   -3.9400    0.0000 H   0  0  0  0  0  0  0  0  0  0  0  0
    3.4702   -2.6300    0.0000 H   0  0  0  0  0  0  0  0  0  0  0  0
    7.2634    0.5600    0.0000 H   0  0  0  0  0  0  0  0  0  0  0  0
    5.8562   -1.1674    0.0000 H   0  0  0  0  0  0  0  0  0  0  0  0
    5.4577   -1.8577    0.0000 H   0  0  0  0  0  0  0  0  0  0  0  0
    1.9936   -2.6423    0.0000 H   0  0  0  0  0  0  0  0  0  0  0  0
    2.3921   -3.3326    0.0000 H   0  0  0  0  0  0  0  0  0  0  0  0
    7.2634   -3.0600    0.0000 H   0  0  0  0  0  0  0  0  0  0  0  0
    9.5323   -2.3700    0.0000 H   0  0  0  0  0  0  0  0  0  0  0  0
    6.6052   -4.4400    0.0000 H   0  0  0  0  0  0  0  0  0  0  0  0
   10.0693   -0.0600    0.0000 H   0  0  0  0  0  0  0  0  0  0  0  0
    3.7993   -6.0600    0.0000 H   0  0  0  0  0  0  0  0  0  0  0  0
    2.0672   -4.4400    0.0000 H   0  0  0  0  0  0  0  0  0  0  0  0
    2.0672   -1.4400    0.0000 H   0  0  0  0  0  0  0  0  0  0  0  0
    4.3154    3.9046    0.0000 H   0  0  0  0  0  0  0  0  0  0  0  0
    7.2634    4.5600    0.0000 H   0  0  0  0  0  0  0  0  0  0  0  0
    8.6663    2.1300    0.0000 H   0  0  0  0  0  0  0  0  0  0  0  0
    2.8665    1.4171    0.0000 H   0  0  0  0  0  0  0  0  0  0  0  0
   10.0693    2.9400    0.0000 H   0  0  0  0  0  0  0  0  0  0  0  0
    3.7865   -0.1008    0.0000 H   0  0  0  0  0  0  0  0  0  0  0  0
    2.0000    2.9662    0.0000 H   0  0  0  0  0  0  0  0  0  0  0  0
    8.1294    6.0600    0.0000 H   0  0  0  0  0  0  0  0  0  0  0  0
   10.3984    5.3700    0.0000 H   0  0  0  0  0  0  0  0  0  0  0  0
  1 18  1  0  0  0  0
  1 27  1  0  0  0  0
  2 24  1  0  0  0  0
  2 26  1  0  0  0  0
  3 28  1  0  0  0  0
  4 59  1  0  0  0  0
  5 60  1  0  0  0  0
  6 30  1  0  0  0  0
  7 61  1  0  0  0  0
  8 62  1  0  0  0  0
  9 63  1  0  0  0  0
 10 64  1  0  0  0  0
 11 29  1  0  0  0  0
 11 65  1  0  0  0  0
 12 31  1  0  0  0  0
 12 35  1  0  0  0  0
 13 32  2  0  0  0  0
 14 36  1  0  0  0  0
 14 71  1  0  0  0  0
 15 41  1  0  0  0  0
 15 72  1  0  0  0  0
 16 42  1  0  0  0  0
 16 73  1  0  0  0  0
 17 44  1  0  0  0  0
 17 74  1  0  0  0  0
 18 19  1  6  0  0  0
 18 28  1  0  0  0  0
 18 45  1  0  0  0  0
 19  4  1  0  0  0  0
 19 20  1  6  0  0  0
 19 46  1  0  0  0  0
 20  5  1  0  0  0  0
 20 22  1  1  0  0  0
 20 47  1  0  0  0  0
 21  7  1  0  0  0  0
 21 23  1  6  0  0  0
 21 48  1  0  0  0  0
 22  8  1  0  0  0  0
 22 27  1  6  0  0  0
 22 49  1  0  0  0  0
 23  9  1  0  0  0  0
 23 25  1  1  0  0  0
 23 50  1  0  0  0  0
 24  3  1  0  0  0  0
 24 21  1  6  0  0  0
 24 51  1  0  0  0  0
 25 10  1  0  0  0  0
 25 26  1  6  0  0  0
 25 52  1  0  0  0  0
 26 29  1  0  0  0  0
 26 53  1  6  0  0  0
 27  6  1  0  0  0  0
 27 54  1  6  0  0  0
 28 55  1  0  0  0  0
 28 56  1  0  0  0  0
 29 57  1  0  0  0  0
 29 58  1  0  0  0  0
 30 31  2  0  0  0  0
 30 32  1  0  0  0  0
 31 34  1  0  0  0  0
 32 33  1  0  0  0  0
 33 35  1  0  0  0  0
 33 36  2  0  0  0  0
 34 38  2  0  0  0  0
 34 39  1  0  0  0  0
 35 37  2  0  0  0  0
 36 40  1  0  0  0  0
 37 41  1  0  0  0  0
 37 66  1  0  0  0  0
 38 42  1  0  0  0  0
 38 67  1  0  0  0  0
 39 43  2  0  0  0  0
 39 68  1  0  0  0  0
 40 41  2  0  0  0  0
 40 69  1  0  0  0  0
 42 44  2  0  0  0  0
 43 44  1  0  0  0  0
 43 70  1  0  0  0  0
M  END
>  <PUBCHEM_COMPOUND_CID>
5320834

>  <PUBCHEM_COMPOUND_CANONICALIZED>
1

>  <PUBCHEM_CACTVS_COMPLEXITY>
1040

>  <PUBCHEM_CACTVS_HBOND_ACCEPTOR>
17

>  <PUBCHEM_CACTVS_HBOND_DONOR>
11

>  <PUBCHEM_CACTVS_ROTATABLE_BOND>
7

>  <PUBCHEM_CACTVS_SUBSKEYS>
AAADceB4PgAAAAAAAAAAAAAAAAAAAAAAAAA0aIECAAAAAACBQAAAGgAACAAADBSwmAMwDoAABgCIAqBSAAICCAAkIAAIiAFGiMgdNzaGNR6ieWGl4BUPuQfI7LzOIAABCAAIQABAAAIQABCAAAAAAAAAAA==

>  <PUBCHEM_IUPAC_OPENEYE_NAME>
2-(3,4-dihydroxyphenyl)-5,7-dihydroxy-3-[(2S,3R,4S,5S,6R)-3,4,5-trihydroxy-6-[[(2R,3R,4S,5S,6R)-3,4,5-trihydroxy-6-(hydroxymethyl)tetrahydropyran-2-yl]oxymethyl]tetrahydropyran-2-yl]oxy-chromen-4-one

>  <PUBCHEM_IUPAC_CAS_NAME>
2-(3,4-dihydroxyphenyl)-5,7-dihydroxy-3-[[(2S,3R,4S,5S,6R)-3,4,5-trihydroxy-6-[[(2R,3R,4S,5S,6R)-3,4,5-trihydroxy-6-(hydroxymethyl)-2-oxanyl]oxymethyl]-2-oxanyl]oxy]-1-benzopyran-4-one

>  <PUBCHEM_IUPAC_NAME>
2-(3,4-dihydroxyphenyl)-5,7-dihydroxy-3-[(2S,3R,4S,5S,6R)-3,4,5-trihydroxy-6-[[(2R,3R,4S,5S,6R)-3,4,5-trihydroxy-6-(hydroxymethyl)oxan-2-yl]oxymethyl]oxan-2-yl]oxychromen-4-one

>  <PUBCHEM_IUPAC_SYSTEMATIC_NAME>
2-[3,4-bis(oxidanyl)phenyl]-3-[(2S,3R,4S,5S,6R)-6-[[(2R,3R,4S,5S,6R)-6-(hydroxymethyl)-3,4,5-tris(oxidanyl)oxan-2-yl]oxymethyl]-3,4,5-tris(oxidanyl)oxan-2-yl]oxy-5,7-bis(oxidanyl)chromen-4-one

>  <PUBCHEM_IUPAC_TRADITIONAL_NAME>
2-(3,4-dihydroxyphenyl)-5,7-dihydroxy-3-[(2S,3R,4S,5S,6R)-3,4,5-trihydroxy-6-[[(2R,3R,4S,5S,6R)-3,4,5-trihydroxy-6-methylol-tetrahydropyran-2-yl]oxymethyl]tetrahydropyran-2-yl]oxy-chromone

>  <PUBCHEM_IUPAC_INCHI>
InChI=1S/C27H30O17/c28-6-14-17(33)20(36)22(38)26(42-14)40-7-15-18(34)21(37)23(39)27(43-15)44-25-19(35)16-12(32)4-9(29)5-13(16)41-24(25)8-1-2-10(30)11(31)3-8/h1-5,14-15,17-18,20-23,26-34,36-39H,6-7H2/t14-,15-,17-,18-,20+,21+,22-,23-,26-,27+/m1/s1

>  <PUBCHEM_IUPAC_INCHIKEY>
FDRQPMVGJOQVTL-DEFKTLOSSA-N

>  <PUBCHEM_XLOGP3_AA>
-1.8

>  <PUBCHEM_EXACT_MASS>
626.148

>  <PUBCHEM_MOLECULAR_FORMULA>
C27H30O17

>  <PUBCHEM_MOLECULAR_WEIGHT>
626.52

>  <PUBCHEM_OPENEYE_CAN_SMILES>
C1=CC(=C(C=C1C2=C(C(=O)C3=C(C=C(C=C3O2)O)O)OC4C(C(C(C(O4)COC5C(C(C(C(O5)CO)O)O)O)O)O)O)O)O

>  <PUBCHEM_OPENEYE_ISO_SMILES>
C1=CC(=C(C=C1C2=C(C(=O)C3=C(C=C(C=C3O2)O)O)O[C@H]4[C@@H]([C@H]([C@@H]([C@H](O4)CO[C@H]5[C@@H]([C@H]([C@@H]([C@H](O5)CO)O)O)O)O)O)O)O)O

>  <PUBCHEM_CACTVS_TPSA>
286

>  <PUBCHEM_MONOISOTOPIC_WEIGHT>
626.148

>  <PUBCHEM_TOTAL_CHARGE>
0

>  <PUBCHEM_HEAVY_ATOM_COUNT>
44

>  <PUBCHEM_ATOM_DEF_STEREO_COUNT>
10

>  <PUBCHEM_ATOM_UDEF_STEREO_COUNT>
0

>  <PUBCHEM_BOND_DEF_STEREO_COUNT>
0

>  <PUBCHEM_BOND_UDEF_STEREO_COUNT>
0

>  <PUBCHEM_ISOTOPIC_ATOM_COUNT>
0

>  <PUBCHEM_COMPONENT_COUNT>
1

>  <PUBCHEM_CACTVS_TAUTO_COUNT>
162

>  <PUBCHEM_COORDINATE_TYPE>
1
5
255

>  <PUBCHEM_BONDANNOTATIONS>
25  10  6
12  31  8
12  35  8
18  28  5
26  29  5
24  3  5
30  31  8
30  32  8
32  33  8
33  35  8
33  36  8
34  38  8
34  39  8
35  37  8
36  40  8
37  41  8
38  42  8
39  43  8
19  4  6
40  41  8
42  44  8
43  44  8
20  5  5
27  6  5
21  7  6
22  8  6
23  9  5

$$$$
