5320399
 OpenBabel06101807152D

 37 39  0  0  0  0  0  0  0  0999 V2000
    6.3580   -0.6193    0.0000 O   0  0  0  0  0  0  0  0  0  0  0  0
    4.5981   -1.5846    0.0000 O   0  0  0  0  0  0  0  0  0  0  0  0
    2.8660   -0.5846    0.0000 O   0  0  0  0  0  0  0  0  0  0  0  0
    4.5981    2.4154    0.0000 O   0  0  0  0  0  0  0  0  0  0  0  0
    6.3465    2.4500    0.0000 O   0  0  0  0  0  0  0  0  0  0  0  0
    7.2564   -2.1054    0.0000 O   0  0  0  0  0  0  0  0  0  0  0  0
    5.4641    0.9154    0.0000 C   0  0  0  0  0  0  0  0  0  0  0  0
    5.4641   -0.0846    0.0000 C   0  0  0  0  0  0  0  0  0  0  0  0
    4.5981   -0.5846    0.0000 C   0  0  0  0  0  0  0  0  0  0  0  0
    7.2641   -0.1054    0.0000 C   0  0  0  0  0  0  0  0  0  0  0  0
    4.5981    1.4154    0.0000 C   0  0  0  0  0  0  0  0  0  0  0  0
    6.3580    1.4501    0.0000 C   0  0  0  0  0  0  0  0  0  0  0  0
    3.7320   -0.0846    0.0000 C   0  0  0  0  0  0  0  0  0  0  0  0
    7.2641    0.9362    0.0000 C   0  0  0  0  0  0  0  0  0  0  0  0
    8.1282   -0.6088    0.0000 C   0  0  0  0  0  0  0  0  0  0  0  0
    3.7320    0.9154    0.0000 C   0  0  0  0  0  0  0  0  0  0  0  0
    8.1244   -1.6087    0.0000 C   0  0  0  0  0  0  0  0  0  0  0  0
    8.9962   -0.1121    0.0000 C   0  0  0  0  0  0  0  0  0  0  0  0
    8.9884   -2.1121    0.0000 C   0  0  0  0  0  0  0  0  0  0  0  0
    9.8602   -0.6154    0.0000 C   0  0  0  0  0  0  0  0  0  0  0  0
    9.8564   -1.6154    0.0000 C   0  0  0  0  0  0  0  0  0  0  0  0
    3.7320   -2.0846    0.0000 C   0  0  0  0  0  0  0  0  0  0  0  0
    2.0000   -0.0846    0.0000 C   0  0  0  0  0  0  0  0  0  0  0  0
    7.7998    1.2483    0.0000 H   0  0  0  0  0  0  0  0  0  0  0  0
    3.1951    1.2254    0.0000 H   0  0  0  0  0  0  0  0  0  0  0  0
    8.9985    0.5079    0.0000 H   0  0  0  0  0  0  0  0  0  0  0  0
    8.9860   -2.7321    0.0000 H   0  0  0  0  0  0  0  0  0  0  0  0
   10.3984   -0.3075    0.0000 H   0  0  0  0  0  0  0  0  0  0  0  0
   10.3921   -1.9275    0.0000 H   0  0  0  0  0  0  0  0  0  0  0  0
    4.0611    2.7254    0.0000 H   0  0  0  0  0  0  0  0  0  0  0  0
    3.4220   -1.5477    0.0000 H   0  0  0  0  0  0  0  0  0  0  0  0
    3.1951   -2.3946    0.0000 H   0  0  0  0  0  0  0  0  0  0  0  0
    4.0420   -2.6215    0.0000 H   0  0  0  0  0  0  0  0  0  0  0  0
    2.3100    0.4523    0.0000 H   0  0  0  0  0  0  0  0  0  0  0  0
    1.4631    0.2254    0.0000 H   0  0  0  0  0  0  0  0  0  0  0  0
    1.6900   -0.6215    0.0000 H   0  0  0  0  0  0  0  0  0  0  0  0
    7.2540   -2.7254    0.0000 H   0  0  0  0  0  0  0  0  0  0  0  0
  1  8  1  0  0  0  0
  1 10  1  0  0  0  0
  2  9  1  0  0  0  0
  2 22  1  0  0  0  0
  3 13  1  0  0  0  0
  3 23  1  0  0  0  0
  4 11  1  0  0  0  0
  4 30  1  0  0  0  0
  5 12  2  0  0  0  0
  6 17  1  0  0  0  0
  6 37  1  0  0  0  0
  7  8  2  0  0  0  0
  7 11  1  0  0  0  0
  7 12  1  0  0  0  0
  8  9  1  0  0  0  0
  9 13  2  0  0  0  0
 10 14  2  0  0  0  0
 10 15  1  0  0  0  0
 11 16  2  0  0  0  0
 12 14  1  0  0  0  0
 13 16  1  0  0  0  0
 14 24  1  0  0  0  0
 15 17  1  0  0  0  0
 15 18  2  0  0  0  0
 16 25  1  0  0  0  0
 17 19  2  0  0  0  0
 18 20  1  0  0  0  0
 18 26  1  0  0  0  0
 19 21  1  0  0  0  0
 19 27  1  0  0  0  0
 20 21  2  0  0  0  0
 20 28  1  0  0  0  0
 21 29  1  0  0  0  0
 22 31  1  0  0  0  0
 22 32  1  0  0  0  0
 22 33  1  0  0  0  0
 23 34  1  0  0  0  0
 23 35  1  0  0  0  0
 23 36  1  0  0  0  0
M  END
>  <PUBCHEM_COMPOUND_CID>
5320399

>  <PUBCHEM_COMPOUND_CANONICALIZED>
1

>  <PUBCHEM_CACTVS_COMPLEXITY>
476

>  <PUBCHEM_CACTVS_HBOND_ACCEPTOR>
6

>  <PUBCHEM_CACTVS_HBOND_DONOR>
2

>  <PUBCHEM_CACTVS_ROTATABLE_BOND>
3

>  <PUBCHEM_CACTVS_SUBSKEYS>
AAADccB4OAAAAAAAAAAAAAAAAAAAAAAAAAAwYIAAAAAAAACBQAAAGgAACAAADASAmAIyBoAABgCIAqBSAAACCAAkIAAIiAEGiMgNJzaGNRqCeWKl4BUKuQfK7LzOIQABCAAIQABCAAIQABCAAAAAAAAAAA==

>  <PUBCHEM_IUPAC_OPENEYE_NAME>
5-hydroxy-2-(2-hydroxyphenyl)-7,8-dimethoxy-chromen-4-one

>  <PUBCHEM_IUPAC_CAS_NAME>
5-hydroxy-2-(2-hydroxyphenyl)-7,8-dimethoxy-1-benzopyran-4-one

>  <PUBCHEM_IUPAC_NAME>
5-hydroxy-2-(2-hydroxyphenyl)-7,8-dimethoxychromen-4-one

>  <PUBCHEM_IUPAC_SYSTEMATIC_NAME>
2-(2-hydroxyphenyl)-7,8-dimethoxy-5-oxidanyl-chromen-4-one

>  <PUBCHEM_IUPAC_TRADITIONAL_NAME>
5-hydroxy-2-(2-hydroxyphenyl)-7,8-dimethoxy-chromone

>  <PUBCHEM_IUPAC_INCHI>
InChI=1S/C17H14O6/c1-21-14-8-12(20)15-11(19)7-13(23-17(15)16(14)22-2)9-5-3-4-6-10(9)18/h3-8,18,20H,1-2H3

>  <PUBCHEM_IUPAC_INCHIKEY>
CZRGNFVQUYWGKP-UHFFFAOYSA-N

>  <PUBCHEM_XLOGP3_AA>
3

>  <PUBCHEM_EXACT_MASS>
314.079

>  <PUBCHEM_MOLECULAR_FORMULA>
C17H14O6

>  <PUBCHEM_MOLECULAR_WEIGHT>
314.293

>  <PUBCHEM_OPENEYE_CAN_SMILES>
COC1=C(C2=C(C(=C1)O)C(=O)C=C(O2)C3=CC=CC=C3O)OC

>  <PUBCHEM_OPENEYE_ISO_SMILES>
COC1=C(C2=C(C(=C1)O)C(=O)C=C(O2)C3=CC=CC=C3O)OC

>  <PUBCHEM_CACTVS_TPSA>
85.2

>  <PUBCHEM_MONOISOTOPIC_WEIGHT>
314.079

>  <PUBCHEM_TOTAL_CHARGE>
0

>  <PUBCHEM_HEAVY_ATOM_COUNT>
23

>  <PUBCHEM_ATOM_DEF_STEREO_COUNT>
0

>  <PUBCHEM_ATOM_UDEF_STEREO_COUNT>
0

>  <PUBCHEM_BOND_DEF_STEREO_COUNT>
0

>  <PUBCHEM_BOND_UDEF_STEREO_COUNT>
0

>  <PUBCHEM_ISOTOPIC_ATOM_COUNT>
0

>  <PUBCHEM_COMPONENT_COUNT>
1

>  <PUBCHEM_CACTVS_TAUTO_COUNT>
23

>  <PUBCHEM_COORDINATE_TYPE>
1
5
255

>  <PUBCHEM_BONDANNOTATIONS>
1  10  8
1  8  8
10  14  8
11  16  8
12  14  8
13  16  8
15  17  8
15  18  8
17  19  8
18  20  8
19  21  8
20  21  8
7  11  8
7  12  8
7  8  8
8  9  8
9  13  8

$$$$
