5320118
 OpenBabel06101807152D

 45 47  0  0  0  0  0  0  0  0999 V2000
    5.5301    0.5000    0.0000 O   0  0  0  0  0  0  0  0  0  0  0  0
    8.1282   -2.0000    0.0000 O   0  0  0  0  0  0  0  0  0  0  0  0
    7.2622    2.5000    0.0000 O   0  0  0  0  0  0  0  0  0  0  0  0
    9.8602   -1.0000    0.0000 O   0  0  0  0  0  0  0  0  0  0  0  0
    5.5301    3.5000    0.0000 O   0  0  0  0  0  0  0  0  0  0  0  0
    2.0000    2.5242    0.0000 O   0  0  0  0  0  0  0  0  0  0  0  0
    2.0000    0.4758    0.0000 O   0  0  0  0  0  0  0  0  0  0  0  0
    7.2622   -0.5000    0.0000 C   0  0  0  0  0  0  0  0  0  0  0  0
    7.2622    0.5000    0.0000 C   0  0  0  0  0  0  0  0  0  0  0  0
    6.3961    1.0000    0.0000 C   0  0  0  0  0  0  0  0  0  0  0  0
    6.3961   -1.0000    0.0000 C   0  0  0  0  0  0  0  0  0  0  0  0
    8.1282   -1.0000    0.0000 C   0  0  0  0  0  0  0  0  0  0  0  0
    4.6641    2.0000    0.0000 C   0  0  0  0  0  0  0  0  0  0  0  0
    4.6641    1.0000    0.0000 C   0  0  0  0  0  0  0  0  0  0  0  0
    8.1282    1.0000    0.0000 C   0  0  0  0  0  0  0  0  0  0  0  0
    6.3961    2.0000    0.0000 C   0  0  0  0  0  0  0  0  0  0  0  0
    5.5301    2.5000    0.0000 C   0  0  0  0  0  0  0  0  0  0  0  0
    8.9942   -0.5000    0.0000 C   0  0  0  0  0  0  0  0  0  0  0  0
    6.3961   -2.0000    0.0000 C   0  0  0  0  0  0  0  0  0  0  0  0
    8.9942    0.5000    0.0000 C   0  0  0  0  0  0  0  0  0  0  0  0
    3.7702    2.5347    0.0000 C   0  0  0  0  0  0  0  0  0  0  0  0
    3.7702    0.4653    0.0000 C   0  0  0  0  0  0  0  0  0  0  0  0
    5.5301   -2.5000    0.0000 C   0  0  0  0  0  0  0  0  0  0  0  0
    2.8641    2.0208    0.0000 C   0  0  0  0  0  0  0  0  0  0  0  0
    2.8641    0.9792    0.0000 C   0  0  0  0  0  0  0  0  0  0  0  0
    5.5301   -3.5000    0.0000 C   0  0  0  0  0  0  0  0  0  0  0  0
    4.6641   -2.0000    0.0000 C   0  0  0  0  0  0  0  0  0  0  0  0
    6.1841   -0.4174    0.0000 H   0  0  0  0  0  0  0  0  0  0  0  0
    5.7856   -1.1077    0.0000 H   0  0  0  0  0  0  0  0  0  0  0  0
    8.1282    1.6200    0.0000 H   0  0  0  0  0  0  0  0  0  0  0  0
    6.9331   -2.3100    0.0000 H   0  0  0  0  0  0  0  0  0  0  0  0
    9.5312    0.8100    0.0000 H   0  0  0  0  0  0  0  0  0  0  0  0
    3.7773    3.1546    0.0000 H   0  0  0  0  0  0  0  0  0  0  0  0
    3.7773   -0.1546    0.0000 H   0  0  0  0  0  0  0  0  0  0  0  0
    4.9101   -3.5000    0.0000 H   0  0  0  0  0  0  0  0  0  0  0  0
    4.9741   -1.4631    0.0000 H   0  0  0  0  0  0  0  0  0  0  0  0
    4.1272   -1.6900    0.0000 H   0  0  0  0  0  0  0  0  0  0  0  0
    4.3541   -2.5369    0.0000 H   0  0  0  0  0  0  0  0  0  0  0  0
    5.5301   -4.1200    0.0000 H   0  0  0  0  0  0  0  0  0  0  0  0
    6.1501   -3.5000    0.0000 H   0  0  0  0  0  0  0  0  0  0  0  0
    8.6651   -2.3100    0.0000 H   0  0  0  0  0  0  0  0  0  0  0  0
    7.2622    3.1200    0.0000 H   0  0  0  0  0  0  0  0  0  0  0  0
   10.3972   -0.6900    0.0000 H   0  0  0  0  0  0  0  0  0  0  0  0
    2.0024    3.1441    0.0000 H   0  0  0  0  0  0  0  0  0  0  0  0
    2.0024   -0.1441    0.0000 H   0  0  0  0  0  0  0  0  0  0  0  0
  1 10  1  0  0  0  0
  1 14  1  0  0  0  0
  2 12  1  0  0  0  0
  2 41  1  0  0  0  0
  3 16  1  0  0  0  0
  3 42  1  0  0  0  0
  4 18  1  0  0  0  0
  4 43  1  0  0  0  0
  5 17  2  0  0  0  0
  6 24  1  0  0  0  0
  6 44  1  0  0  0  0
  7 25  1  0  0  0  0
  7 45  1  0  0  0  0
  8  9  2  0  0  0  0
  8 11  1  0  0  0  0
  8 12  1  0  0  0  0
  9 10  1  0  0  0  0
  9 15  1  0  0  0  0
 10 16  2  0  0  0  0
 11 19  1  0  0  0  0
 11 28  1  0  0  0  0
 11 29  1  0  0  0  0
 12 18  2  0  0  0  0
 13 14  1  0  0  0  0
 13 17  1  0  0  0  0
 13 21  2  0  0  0  0
 14 22  2  0  0  0  0
 15 20  2  0  0  0  0
 15 30  1  0  0  0  0
 16 17  1  0  0  0  0
 18 20  1  0  0  0  0
 19 23  2  0  0  0  0
 19 31  1  0  0  0  0
 20 32  1  0  0  0  0
 21 24  1  0  0  0  0
 21 33  1  0  0  0  0
 22 25  1  0  0  0  0
 22 34  1  0  0  0  0
 23 26  1  0  0  0  0
 23 27  1  0  0  0  0
 24 25  2  0  0  0  0
 26 35  1  0  0  0  0
 26 39  1  0  0  0  0
 26 40  1  0  0  0  0
 27 36  1  0  0  0  0
 27 37  1  0  0  0  0
 27 38  1  0  0  0  0
M  END
>  <PUBCHEM_COMPOUND_CID>
5320118

>  <PUBCHEM_COMPOUND_CANONICALIZED>
1

>  <PUBCHEM_CACTVS_COMPLEXITY>
636

>  <PUBCHEM_CACTVS_HBOND_ACCEPTOR>
7

>  <PUBCHEM_CACTVS_HBOND_DONOR>
5

>  <PUBCHEM_CACTVS_ROTATABLE_BOND>
3

>  <PUBCHEM_CACTVS_SUBSKEYS>
AAADceB4OAAAAAAAAAAAAAAAAAAAAAAAAAAwYIAAAAAAAACBQAAAGgAACAAADASAmAAyBoAABgCIAqBSAAICCAAkIAAIiAFGiMgNJzaGNRqCeWGl4BUJuYfK7LzOoQABCAAYQABCAAIQADCAAAAAAAAAAA==

>  <PUBCHEM_IUPAC_OPENEYE_NAME>
2-[3,4-dihydroxy-2-(3-methylbut-2-enyl)phenyl]-3,6,7-trihydroxy-chromen-4-one

>  <PUBCHEM_IUPAC_CAS_NAME>
2-[3,4-dihydroxy-2-(3-methylbut-2-enyl)phenyl]-3,6,7-trihydroxy-1-benzopyran-4-one

>  <PUBCHEM_IUPAC_NAME>
2-[3,4-dihydroxy-2-(3-methylbut-2-enyl)phenyl]-3,6,7-trihydroxychromen-4-one

>  <PUBCHEM_IUPAC_SYSTEMATIC_NAME>
2-[2-(3-methylbut-2-enyl)-3,4-bis(oxidanyl)phenyl]-3,6,7-tris(oxidanyl)chromen-4-one

>  <PUBCHEM_IUPAC_TRADITIONAL_NAME>
2-[3,4-dihydroxy-2-(3-methylbut-2-enyl)phenyl]-3,6,7-trihydroxy-chromone

>  <PUBCHEM_IUPAC_INCHI>
InChI=1S/C20H18O7/c1-9(2)3-4-10-11(5-6-13(21)17(10)24)20-19(26)18(25)12-7-14(22)15(23)8-16(12)27-20/h3,5-8,21-24,26H,4H2,1-2H3

>  <PUBCHEM_IUPAC_INCHIKEY>
NACBYUYHTLUWAI-UHFFFAOYSA-N

>  <PUBCHEM_XLOGP3_AA>
3.5

>  <PUBCHEM_EXACT_MASS>
370.105

>  <PUBCHEM_MOLECULAR_FORMULA>
C20H18O7

>  <PUBCHEM_MOLECULAR_WEIGHT>
370.357

>  <PUBCHEM_OPENEYE_CAN_SMILES>
CC(=CCC1=C(C=CC(=C1O)O)C2=C(C(=O)C3=CC(=C(C=C3O2)O)O)O)C

>  <PUBCHEM_OPENEYE_ISO_SMILES>
CC(=CCC1=C(C=CC(=C1O)O)C2=C(C(=O)C3=CC(=C(C=C3O2)O)O)O)C

>  <PUBCHEM_CACTVS_TPSA>
127

>  <PUBCHEM_MONOISOTOPIC_WEIGHT>
370.105

>  <PUBCHEM_TOTAL_CHARGE>
0

>  <PUBCHEM_HEAVY_ATOM_COUNT>
27

>  <PUBCHEM_ATOM_DEF_STEREO_COUNT>
0

>  <PUBCHEM_ATOM_UDEF_STEREO_COUNT>
0

>  <PUBCHEM_BOND_DEF_STEREO_COUNT>
0

>  <PUBCHEM_BOND_UDEF_STEREO_COUNT>
0

>  <PUBCHEM_ISOTOPIC_ATOM_COUNT>
0

>  <PUBCHEM_COMPONENT_COUNT>
1

>  <PUBCHEM_CACTVS_TAUTO_COUNT>
998

>  <PUBCHEM_COORDINATE_TYPE>
1
5
255

>  <PUBCHEM_BONDANNOTATIONS>
1  10  8
1  14  8
10  16  8
12  18  8
13  14  8
13  17  8
13  21  8
14  22  8
15  20  8
16  17  8
18  20  8
21  24  8
22  25  8
24  25  8
8  12  8
8  9  8
9  15  8

$$$$
