5320177
 OpenBabel06101807152D

 53 55  0  0  1  0  0  0  0  0999 V2000
    8.1797    1.4782    0.0000 O   0  0  0  0  0  0  0  0  0  0  0  0
    7.6932    3.1493    0.0000 O   0  0  0  0  0  0  0  0  0  0  0  0
    9.9359    0.9756    0.0000 O   0  0  0  0  0  0  0  0  0  0  0  0
    5.2552   -0.3230    0.0000 O   0  0  0  0  0  0  0  0  0  0  0  0
    7.6424   -2.3508    0.0000 O   0  0  0  0  0  0  0  0  0  0  0  0
    6.3446   -3.5637    0.0000 O   0  0  0  0  0  0  0  0  0  0  0  0
    4.9544    1.3827    0.0000 O   0  0  0  0  0  0  0  0  0  0  0  0
    7.1797    1.4782    0.0000 C   0  0  1  0  0  0  0  0  0  0  0  0
    7.9000    2.1709    0.0000 C   0  0  2  0  0  0  0  0  0  0  0  0
    6.4136    0.8354    0.0000 C   0  0  0  0  0  0  0  0  0  0  0  0
    8.9457    0.8354    0.0000 C   0  0  2  0  0  0  0  0  0  0  0  0
    8.8392    1.8291    0.0000 C   0  0  0  0  0  0  0  0  0  0  0  0
    6.2400   -0.1494    0.0000 C   0  0  2  0  0  0  0  0  0  0  0  0
    6.7400   -1.0154    0.0000 C   0  0  2  0  0  0  0  0  0  0  0  0
    7.6797   -1.3574    0.0000 C   0  0  1  0  0  0  0  0  0  0  0  0
    6.5113    2.2221    0.0000 C   0  0  0  0  0  0  0  0  0  0  0  0
    9.1194   -0.1494    0.0000 C   0  0  0  0  0  0  0  0  0  0  0  0
    8.6194   -1.0154    0.0000 C   0  0  0  0  0  0  0  0  0  0  0  0
    6.1300   -1.8003    0.0000 C   0  0  0  0  0  0  0  0  0  0  0  0
   10.1042   -0.3230    0.0000 C   0  0  0  0  0  0  0  0  0  0  0  0
    6.6866   -2.6240    0.0000 C   0  0  0  0  0  0  0  0  0  0  0  0
    5.1306   -1.7672    0.0000 C   0  0  0  0  0  0  0  0  0  0  0  0
    4.6124    0.4430    0.0000 C   0  0  0  0  0  0  0  0  0  0  0  0
    3.6276    0.2694    0.0000 C   0  0  0  0  0  0  0  0  0  0  0  0
    3.2856   -0.6703    0.0000 C   0  0  0  0  0  0  0  0  0  0  0  0
    2.9848    1.0354    0.0000 C   0  0  0  0  0  0  0  0  0  0  0  0
    2.0000    0.8618    0.0000 C   0  0  0  0  0  0  0  0  0  0  0  0
    7.3074    2.3531    0.0000 H   0  0  0  0  0  0  0  0  0  0  0  0
    6.1681    1.4047    0.0000 H   0  0  0  0  0  0  0  0  0  0  0  0
    5.7978    0.7634    0.0000 H   0  0  0  0  0  0  0  0  0  0  0  0
    9.4586    1.8012    0.0000 H   0  0  0  0  0  0  0  0  0  0  0  0
    8.9606    2.4371    0.0000 H   0  0  0  0  0  0  0  0  0  0  0  0
    5.8016    0.2890    0.0000 H   0  0  0  0  0  0  0  0  0  0  0  0
    5.9413   -0.7247    0.0000 H   0  0  0  0  0  0  0  0  0  0  0  0
    8.4784   -1.6481    0.0000 H   0  0  0  0  0  0  0  0  0  0  0  0
    6.9725    2.6364    0.0000 H   0  0  0  0  0  0  0  0  0  0  0  0
    6.0970    2.6832    0.0000 H   0  0  0  0  0  0  0  0  0  0  0  0
    6.0502    1.8077    0.0000 H   0  0  0  0  0  0  0  0  0  0  0  0
    9.0179   -1.4904    0.0000 H   0  0  0  0  0  0  0  0  0  0  0  0
    8.1544    3.5637    0.0000 H   0  0  0  0  0  0  0  0  0  0  0  0
   10.1675    1.5507    0.0000 H   0  0  0  0  0  0  0  0  0  0  0  0
    9.9965   -0.9336    0.0000 H   0  0  0  0  0  0  0  0  0  0  0  0
   10.7148   -0.4307    0.0000 H   0  0  0  0  0  0  0  0  0  0  0  0
   10.2119    0.2876    0.0000 H   0  0  0  0  0  0  0  0  0  0  0  0
    4.8386   -1.2202    0.0000 H   0  0  0  0  0  0  0  0  0  0  0  0
    4.8029   -2.2935    0.0000 H   0  0  0  0  0  0  0  0  0  0  0  0
    2.7030   -0.4583    0.0000 H   0  0  0  0  0  0  0  0  0  0  0  0
    3.0735   -1.2529    0.0000 H   0  0  0  0  0  0  0  0  0  0  0  0
    3.8682   -0.8824    0.0000 H   0  0  0  0  0  0  0  0  0  0  0  0
    3.1969    1.6180    0.0000 H   0  0  0  0  0  0  0  0  0  0  0  0
    1.8923    1.4723    0.0000 H   0  0  0  0  0  0  0  0  0  0  0  0
    1.3894    0.7541    0.0000 H   0  0  0  0  0  0  0  0  0  0  0  0
    2.1077    0.2512    0.0000 H   0  0  0  0  0  0  0  0  0  0  0  0
  1  8  1  0  0  0  0
  1 11  1  0  0  0  0
  2 40  1  0  0  0  0
  3 41  1  0  0  0  0
  4 23  1  0  0  0  0
  5 15  1  0  0  0  0
  5 21  1  0  0  0  0
  6 21  2  0  0  0  0
  7 23  2  0  0  0  0
  8  9  1  6  0  0  0
  8 10  1  0  0  0  0
  8 16  1  0  0  0  0
  9  2  1  0  0  0  0
  9 12  1  0  0  0  0
  9 28  1  6  0  0  0
 10 13  1  0  0  0  0
 10 29  1  0  0  0  0
 10 30  1  0  0  0  0
 11  3  1  1  0  0  0
 11 12  1  0  0  0  0
 11 17  1  0  0  0  0
 12 31  1  0  0  0  0
 12 32  1  0  0  0  0
 13  4  1  0  0  0  0
 13 14  1  1  0  0  0
 13 33  1  0  0  0  0
 14 15  1  1  0  0  0
 14 19  1  0  0  0  0
 14 34  1  0  0  0  0
 15 18  1  0  0  0  0
 15 35  1  6  0  0  0
 16 36  1  0  0  0  0
 16 37  1  0  0  0  0
 16 38  1  0  0  0  0
 17 18  2  0  0  0  0
 17 20  1  0  0  0  0
 18 39  1  0  0  0  0
 19 21  1  0  0  0  0
 19 22  2  0  0  0  0
 20 42  1  0  0  0  0
 20 43  1  0  0  0  0
 20 44  1  0  0  0  0
 22 45  1  0  0  0  0
 22 46  1  0  0  0  0
 23 24  1  0  0  0  0
 24 25  1  0  0  0  0
 24 26  2  0  0  0  0
 25 47  1  0  0  0  0
 25 48  1  0  0  0  0
 25 49  1  0  0  0  0
 26 27  1  0  0  0  0
 26 50  1  0  0  0  0
 27 51  1  0  0  0  0
 27 52  1  0  0  0  0
 27 53  1  0  0  0  0
M  END
>  <PUBCHEM_COMPOUND_CID>
5320177

>  <PUBCHEM_COMPOUND_CANONICALIZED>
1

>  <PUBCHEM_CACTVS_COMPLEXITY>
751

>  <PUBCHEM_CACTVS_HBOND_ACCEPTOR>
7

>  <PUBCHEM_CACTVS_HBOND_DONOR>
2

>  <PUBCHEM_CACTVS_ROTATABLE_BOND>
3

>  <PUBCHEM_CACTVS_SUBSKEYS>
AAADceB4OAAAAAAAAAAAAAAAAAAAASJAAAAAAAAAAAAAAECAAAAAGgAACAAADVSggAICCAAABgCIAiDSCAAAAAAgAAAACAEAAEgRFBIAIQACUAAFwAAPMYPK6PyOAAAAAAAAAAAAAAAAAAAAAAAAAAAAAA==

>  <PUBCHEM_IUPAC_INCHI>
InChI=1S/C20H26O7/c1-6-10(2)17(22)26-14-8-19(5)15(21)9-20(24,27-19)11(3)7-13-16(14)12(4)18(23)25-13/h6-7,13-16,21,24H,4,8-9H2,1-3,5H3/b10-6+,11-7-/t13-,14-,15+,16+,19-,20-/m1/s1

>  <PUBCHEM_IUPAC_INCHIKEY>
WGVJNQGTZSPMCY-RPBBZJPTSA-N

>  <PUBCHEM_XLOGP3_AA>
1.1

>  <PUBCHEM_EXACT_MASS>
378.168

>  <PUBCHEM_MOLECULAR_FORMULA>
C20H26O7

>  <PUBCHEM_MOLECULAR_WEIGHT>
378.421

>  <PUBCHEM_OPENEYE_CAN_SMILES>
CC=C(C)C(=O)OC1CC2(C(CC(O2)(C(=CC3C1C(=C)C(=O)O3)C)O)O)C

>  <PUBCHEM_OPENEYE_ISO_SMILES>
C/C=C(\C)/C(=O)O[C@@H]1C[C@@]2([C@H](C[C@@](O2)(/C(=C\[C@@H]3[C@@H]1C(=C)C(=O)O3)/C)O)O)C

>  <PUBCHEM_CACTVS_TPSA>
102

>  <PUBCHEM_MONOISOTOPIC_WEIGHT>
378.168

>  <PUBCHEM_TOTAL_CHARGE>
0

>  <PUBCHEM_HEAVY_ATOM_COUNT>
27

>  <PUBCHEM_ATOM_DEF_STEREO_COUNT>
6

>  <PUBCHEM_ATOM_UDEF_STEREO_COUNT>
0

>  <PUBCHEM_BOND_DEF_STEREO_COUNT>
2

>  <PUBCHEM_BOND_UDEF_STEREO_COUNT>
0

>  <PUBCHEM_ISOTOPIC_ATOM_COUNT>
0

>  <PUBCHEM_COMPONENT_COUNT>
1

>  <PUBCHEM_CACTVS_TAUTO_COUNT>
1

>  <PUBCHEM_COORDINATE_TYPE>
1
5
255

>  <PUBCHEM_BONDANNOTATIONS>
14  34  5
15  35  6
9  2  5
11  3  5
13  4  6
8  16  5

$$$$
