5320202
 OpenBabel06101807152D

 84 88  0  0  1  0  0  0  0  0999 V2000
    2.5381   -3.3802    0.0000 O   0  0  0  0  0  0  0  0  0  0  0  0
    6.0682   -1.3560    0.0000 C   0  0  1  0  0  0  0  0  0  0  0  0
    5.2022   -1.8560    0.0000 C   0  0  2  0  0  0  0  0  0  0  0  0
    5.2020   -0.8556    0.0000 C   0  0  0  0  0  0  0  0  0  0  0  0
    6.9343   -1.8560    0.0000 C   0  0  2  0  0  0  0  0  0  0  0  0
    7.8443   -1.3492    0.0000 C   0  0  3  0  0  0  0  0  0  0  0  0
    5.2022   -2.8560    0.0000 C   0  0  3  0  0  0  0  0  0  0  0  0
    6.0522   -0.3145    0.0000 C   0  0  0  0  0  0  0  0  0  0  0  0
    7.8523   -0.3076    0.0000 C   0  0  2  0  0  0  0  0  0  0  0  0
    4.3083   -1.3214    0.0000 C   0  0  0  0  0  0  0  0  0  0  0  0
    6.9343   -2.8560    0.0000 C   0  0  0  0  0  0  0  0  0  0  0  0
    6.9502    0.2132    0.0000 C   0  0  0  0  0  0  0  0  0  0  0  0
    6.0682   -3.3560    0.0000 C   0  0  0  0  0  0  0  0  0  0  0  0
    4.3083   -3.3907    0.0000 C   0  0  3  0  0  0  0  0  0  0  0  0
    8.8403    0.0022    0.0000 C   0  0  3  0  0  0  0  0  0  0  0  0
    8.8274   -1.6742    0.0000 C   0  0  0  0  0  0  0  0  0  0  0  0
    3.4022   -1.8352    0.0000 C   0  0  0  0  0  0  0  0  0  0  0  0
    9.4418   -0.8407    0.0000 C   0  0  0  0  0  0  0  0  0  0  0  0
    7.8366   -2.3492    0.0000 C   0  0  0  0  0  0  0  0  0  0  0  0
    3.4022   -2.8768    0.0000 C   0  0  2  0  0  0  0  0  0  0  0  0
    7.8600    0.6924    0.0000 C   0  0  0  0  0  0  0  0  0  0  0  0
    9.1583    0.9503    0.0000 C   0  0  3  0  0  0  0  0  0  0  0  0
    4.3198   -4.3906    0.0000 C   0  0  0  0  0  0  0  0  0  0  0  0
   10.1384    1.1490    0.0000 C   0  0  0  0  0  0  0  0  0  0  0  0
    8.4962    1.6998    0.0000 C   0  0  0  0  0  0  0  0  0  0  0  0
   10.4564    2.0971    0.0000 C   0  0  0  0  0  0  0  0  0  0  0  0
   11.4364    2.2958    0.0000 C   0  0  0  0  0  0  0  0  0  0  0  0
   11.7544    3.2439    0.0000 C   0  0  3  0  0  0  0  0  0  0  0  0
   11.0923    3.9933    0.0000 C   0  0  0  0  0  0  0  0  0  0  0  0
   12.7345    3.4425    0.0000 C   0  0  0  0  0  0  0  0  0  0  0  0
   13.0525    4.3906    0.0000 C   0  0  0  0  0  0  0  0  0  0  0  0
   13.3966    2.6931    0.0000 C   0  0  0  0  0  0  0  0  0  0  0  0
    5.4141   -0.2730    0.0000 H   0  0  0  0  0  0  0  0  0  0  0  0
    4.5914   -0.7480    0.0000 H   0  0  0  0  0  0  0  0  0  0  0  0
    7.6671   -2.2867    0.0000 H   0  0  0  0  0  0  0  0  0  0  0  0
    5.2088   -3.7060    0.0000 H   0  0  0  0  0  0  0  0  0  0  0  0
    5.8342    0.2659    0.0000 H   0  0  0  0  0  0  0  0  0  0  0  0
    5.4431   -0.4300    0.0000 H   0  0  0  0  0  0  0  0  0  0  0  0
    4.7129   -0.8516    0.0000 H   0  0  0  0  0  0  0  0  0  0  0  0
    3.9147   -0.8424    0.0000 H   0  0  0  0  0  0  0  0  0  0  0  0
    7.1463   -3.4386    0.0000 H   0  0  0  0  0  0  0  0  0  0  0  0
    7.5449   -2.7484    0.0000 H   0  0  0  0  0  0  0  0  0  0  0  0
    7.3475    0.6892    0.0000 H   0  0  0  0  0  0  0  0  0  0  0  0
    6.5493    0.6861    0.0000 H   0  0  0  0  0  0  0  0  0  0  0  0
    5.6697   -3.8310    0.0000 H   0  0  0  0  0  0  0  0  0  0  0  0
    6.4668   -3.8310    0.0000 H   0  0  0  0  0  0  0  0  0  0  0  0
    5.0501   -3.8057    0.0000 H   0  0  0  0  0  0  0  0  0  0  0  0
    9.6810    0.1276    0.0000 H   0  0  0  0  0  0  0  0  0  0  0  0
    8.5720   -2.2392    0.0000 H   0  0  0  0  0  0  0  0  0  0  0  0
    9.3624   -1.9876    0.0000 H   0  0  0  0  0  0  0  0  0  0  0  0
    3.1932   -1.2515    0.0000 H   0  0  0  0  0  0  0  0  0  0  0  0
    2.7914   -1.9413    0.0000 H   0  0  0  0  0  0  0  0  0  0  0  0
    9.8994   -1.2589    0.0000 H   0  0  0  0  0  0  0  0  0  0  0  0
    9.9058   -0.4295    0.0000 H   0  0  0  0  0  0  0  0  0  0  0  0
    7.2166   -2.3444    0.0000 H   0  0  0  0  0  0  0  0  0  0  0  0
    7.8318   -2.9691    0.0000 H   0  0  0  0  0  0  0  0  0  0  0  0
    8.4566   -2.3539    0.0000 H   0  0  0  0  0  0  0  0  0  0  0  0
    3.4058   -3.4968    0.0000 H   0  0  0  0  0  0  0  0  0  0  0  0
    8.4800    0.6876    0.0000 H   0  0  0  0  0  0  0  0  0  0  0  0
    7.8648    1.3124    0.0000 H   0  0  0  0  0  0  0  0  0  0  0  0
    7.2400    0.6972    0.0000 H   0  0  0  0  0  0  0  0  0  0  0  0
    9.4286    1.7562    0.0000 H   0  0  0  0  0  0  0  0  0  0  0  0
    3.6999   -4.3978    0.0000 H   0  0  0  0  0  0  0  0  0  0  0  0
    4.3270   -5.0106    0.0000 H   0  0  0  0  0  0  0  0  0  0  0  0
    4.9398   -4.3834    0.0000 H   0  0  0  0  0  0  0  0  0  0  0  0
   10.1542    0.5292    0.0000 H   0  0  0  0  0  0  0  0  0  0  0  0
   10.7515    1.0569    0.0000 H   0  0  0  0  0  0  0  0  0  0  0  0
    2.0000   -3.0722    0.0000 H   0  0  0  0  0  0  0  0  0  0  0  0
    8.9609    2.1102    0.0000 H   0  0  0  0  0  0  0  0  0  0  0  0
    8.0857    2.1644    0.0000 H   0  0  0  0  0  0  0  0  0  0  0  0
    8.0316    1.2893    0.0000 H   0  0  0  0  0  0  0  0  0  0  0  0
   10.4406    2.7169    0.0000 H   0  0  0  0  0  0  0  0  0  0  0  0
    9.8432    2.1892    0.0000 H   0  0  0  0  0  0  0  0  0  0  0  0
   11.4522    1.6760    0.0000 H   0  0  0  0  0  0  0  0  0  0  0  0
   12.0496    2.2037    0.0000 H   0  0  0  0  0  0  0  0  0  0  0  0
   12.0247    4.0497    0.0000 H   0  0  0  0  0  0  0  0  0  0  0  0
   11.5570    4.4038    0.0000 H   0  0  0  0  0  0  0  0  0  0  0  0
   10.6818    4.4579    0.0000 H   0  0  0  0  0  0  0  0  0  0  0  0
   10.6277    3.5828    0.0000 H   0  0  0  0  0  0  0  0  0  0  0  0
   13.6403    4.1935    0.0000 H   0  0  0  0  0  0  0  0  0  0  0  0
   13.2496    4.9784    0.0000 H   0  0  0  0  0  0  0  0  0  0  0  0
   12.4646    4.5878    0.0000 H   0  0  0  0  0  0  0  0  0  0  0  0
   13.1994    2.1053    0.0000 H   0  0  0  0  0  0  0  0  0  0  0  0
   14.0042    2.8163    0.0000 H   0  0  0  0  0  0  0  0  0  0  0  0
  1 68  1  0  0  0  0
  2  3  1  6  0  0  0
  2  4  1  0  0  0  0
  2  8  1  0  0  0  0
  3  4  1  0  0  0  0
  3  7  1  1  0  0  0
  3 10  1  0  0  0  0
  4 33  1  0  0  0  0
  4 34  1  0  0  0  0
  5  2  1  1  0  0  0
  5  6  1  0  0  0  0
  5 11  1  0  0  0  0
  5 35  1  0  0  0  0
  6 16  1  0  0  0  0
  6 19  1  0  0  0  0
  7 13  1  0  0  0  0
  7 14  1  0  0  0  0
  7 36  1  0  0  0  0
  8 12  1  0  0  0  0
  8 37  1  0  0  0  0
  8 38  1  0  0  0  0
  9  6  1  1  0  0  0
  9 12  1  0  0  0  0
  9 15  1  0  0  0  0
  9 21  1  0  0  0  0
 10 17  1  0  0  0  0
 10 39  1  0  0  0  0
 10 40  1  0  0  0  0
 11 13  1  0  0  0  0
 11 41  1  0  0  0  0
 11 42  1  0  0  0  0
 12 43  1  0  0  0  0
 12 44  1  0  0  0  0
 13 45  1  0  0  0  0
 13 46  1  0  0  0  0
 14 23  1  0  0  0  0
 14 47  1  0  0  0  0
 15 18  1  0  0  0  0
 15 22  1  0  0  0  0
 15 48  1  0  0  0  0
 16 18  1  0  0  0  0
 16 49  1  0  0  0  0
 16 50  1  0  0  0  0
 17 20  1  0  0  0  0
 17 51  1  0  0  0  0
 17 52  1  0  0  0  0
 18 53  1  0  0  0  0
 18 54  1  0  0  0  0
 19 55  1  0  0  0  0
 19 56  1  0  0  0  0
 19 57  1  0  0  0  0
 20  1  1  0  0  0  0
 20 14  1  1  0  0  0
 20 58  1  0  0  0  0
 21 59  1  0  0  0  0
 21 60  1  0  0  0  0
 21 61  1  0  0  0  0
 22 24  1  0  0  0  0
 22 25  1  0  0  0  0
 22 62  1  0  0  0  0
 23 63  1  0  0  0  0
 23 64  1  0  0  0  0
 23 65  1  0  0  0  0
 24 26  1  0  0  0  0
 24 66  1  0  0  0  0
 24 67  1  0  0  0  0
 25 69  1  0  0  0  0
 25 70  1  0  0  0  0
 25 71  1  0  0  0  0
 26 27  1  0  0  0  0
 26 72  1  0  0  0  0
 26 73  1  0  0  0  0
 27 28  1  0  0  0  0
 27 74  1  0  0  0  0
 27 75  1  0  0  0  0
 28 29  1  0  0  0  0
 28 30  1  0  0  0  0
 28 76  1  0  0  0  0
 29 77  1  0  0  0  0
 29 78  1  0  0  0  0
 29 79  1  0  0  0  0
 30 31  1  0  0  0  0
 30 32  2  0  0  0  0
 31 80  1  0  0  0  0
 31 81  1  0  0  0  0
 31 82  1  0  0  0  0
 32 83  1  0  0  0  0
 32 84  1  0  0  0  0
M  END
>  <PUBCHEM_COMPOUND_CID>
5320202

>  <PUBCHEM_COMPOUND_CANONICALIZED>
1

>  <PUBCHEM_CACTVS_COMPLEXITY>
756

>  <PUBCHEM_CACTVS_HBOND_ACCEPTOR>
1

>  <PUBCHEM_CACTVS_HBOND_DONOR>
1

>  <PUBCHEM_CACTVS_ROTATABLE_BOND>
6

>  <PUBCHEM_CACTVS_SUBSKEYS>
AAADcfB4IAAAAAAAAAAAAAAAGAAAAYAAAAAwYMAABgAAAGDAAAAAGgAACAAADxSggAICAAAAAgCAAgBCAAAAAAAgAAAAAAAAAAgAEAIAAQAAQAAEgAAAAAGAwPAPgAAAAAAAAADAAAYAADAAAQAACAAAAA==

>  <PUBCHEM_IUPAC_INCHI>
InChI=1S/C31H52O/c1-20(2)21(3)9-8-10-22(4)24-13-15-29(7)27-12-11-25-23(5)26(32)14-16-30(25)19-31(27,30)18-17-28(24,29)6/h21-27,32H,1,8-19H2,2-7H3/t21?,22?,23?,24?,25?,26-,27-,28+,29?,30+,31-/m0/s1

>  <PUBCHEM_IUPAC_INCHIKEY>
OSKBBWPZDJRQMS-TXEQYBBNSA-N

>  <PUBCHEM_XLOGP3_AA>
10.6

>  <PUBCHEM_EXACT_MASS>
440.402

>  <PUBCHEM_MOLECULAR_FORMULA>
C31H52O

>  <PUBCHEM_MOLECULAR_WEIGHT>
440.756

>  <PUBCHEM_OPENEYE_CAN_SMILES>
CC1C2CCC3C4(CCC(C4(CCC35C2(C5)CCC1O)C)C(C)CCCC(C)C(=C)C)C

>  <PUBCHEM_OPENEYE_ISO_SMILES>
CC1[C@H](CC[C@@]23C1CC[C@@H]4[C@@]2(C3)CC[C@]5(C4(CCC5C(C)CCCC(C)C(=C)C)C)C)O

>  <PUBCHEM_CACTVS_TPSA>
20.2

>  <PUBCHEM_MONOISOTOPIC_WEIGHT>
440.402

>  <PUBCHEM_TOTAL_CHARGE>
0

>  <PUBCHEM_HEAVY_ATOM_COUNT>
32

>  <PUBCHEM_ATOM_DEF_STEREO_COUNT>
5

>  <PUBCHEM_ATOM_UDEF_STEREO_COUNT>
6

>  <PUBCHEM_BOND_DEF_STEREO_COUNT>
0

>  <PUBCHEM_BOND_UDEF_STEREO_COUNT>
0

>  <PUBCHEM_ISOTOPIC_ATOM_COUNT>
0

>  <PUBCHEM_COMPONENT_COUNT>
1

>  <PUBCHEM_CACTVS_TAUTO_COUNT>
1

>  <PUBCHEM_COORDINATE_TYPE>
1
5
255

>  <PUBCHEM_BONDANNOTATIONS>
20  1  5
14  47  3
15  48  3
2  4  5
22  62  3
28  76  3
3  4  5
5  35  5
6  19  3
7  36  3
9  21  5

$$$$
