5320256
 OpenBabel06101807152D

 78 78  0  0  0  0  0  0  0  0999 V2000
    6.3301   -3.5950    0.0000 O   0  0  0  0  0  0  0  0  0  0  0  0
    4.5981   -3.5950    0.0000 O   0  0  0  0  0  0  0  0  0  0  0  0
    2.8660   -8.5950    0.0000 O   0  0  0  0  0  0  0  0  0  0  0  0
    4.5981   -9.5950    0.0000 O   0  0  0  0  0  0  0  0  0  0  0  0
    9.7942    3.4050    0.0000 C   0  0  0  0  0  0  0  0  0  0  0  0
   10.6603    3.9050    0.0000 C   0  0  0  0  0  0  0  0  0  0  0  0
    9.7942    2.4050    0.0000 C   0  0  0  0  0  0  0  0  0  0  0  0
   10.6603    4.9050    0.0000 C   0  0  0  0  0  0  0  0  0  0  0  0
    8.9282    1.9050    0.0000 C   0  0  0  0  0  0  0  0  0  0  0  0
   11.5263    5.4050    0.0000 C   0  0  0  0  0  0  0  0  0  0  0  0
    8.9282    0.9050    0.0000 C   0  0  0  0  0  0  0  0  0  0  0  0
   11.5263    6.4050    0.0000 C   0  0  0  0  0  0  0  0  0  0  0  0
    8.0622    0.4050    0.0000 C   0  0  0  0  0  0  0  0  0  0  0  0
   12.3923    6.9050    0.0000 C   0  0  0  0  0  0  0  0  0  0  0  0
    8.0622   -0.5950    0.0000 C   0  0  0  0  0  0  0  0  0  0  0  0
   12.3923    7.9050    0.0000 C   0  0  0  0  0  0  0  0  0  0  0  0
    7.1962   -1.0950    0.0000 C   0  0  0  0  0  0  0  0  0  0  0  0
   13.2583    8.4050    0.0000 C   0  0  0  0  0  0  0  0  0  0  0  0
    7.1962   -2.0950    0.0000 C   0  0  0  0  0  0  0  0  0  0  0  0
   13.2583    9.4050    0.0000 C   0  0  0  0  0  0  0  0  0  0  0  0
    6.3301   -2.5950    0.0000 C   0  0  0  0  0  0  0  0  0  0  0  0
   14.1244    9.9050    0.0000 C   0  0  0  0  0  0  0  0  0  0  0  0
    5.4641   -4.0950    0.0000 C   0  0  0  0  0  0  0  0  0  0  0  0
    5.4641   -5.0950    0.0000 C   0  0  0  0  0  0  0  0  0  0  0  0
    4.5981   -5.5950    0.0000 C   0  0  0  0  0  0  0  0  0  0  0  0
    4.5981   -6.5950    0.0000 C   0  0  0  0  0  0  0  0  0  0  0  0
    3.7320   -7.0950    0.0000 C   0  0  0  0  0  0  0  0  0  0  0  0
    5.4641   -7.0950    0.0000 C   0  0  0  0  0  0  0  0  0  0  0  0
    3.7320   -8.0950    0.0000 C   0  0  0  0  0  0  0  0  0  0  0  0
    5.4641   -8.0950    0.0000 C   0  0  0  0  0  0  0  0  0  0  0  0
    4.5981   -8.5950    0.0000 C   0  0  0  0  0  0  0  0  0  0  0  0
    2.0000   -8.0950    0.0000 C   0  0  0  0  0  0  0  0  0  0  0  0
    9.5822    3.9876    0.0000 H   0  0  0  0  0  0  0  0  0  0  0  0
    9.1836    3.2973    0.0000 H   0  0  0  0  0  0  0  0  0  0  0  0
   10.8723    3.3224    0.0000 H   0  0  0  0  0  0  0  0  0  0  0  0
   11.2708    4.0127    0.0000 H   0  0  0  0  0  0  0  0  0  0  0  0
   10.0063    1.8224    0.0000 H   0  0  0  0  0  0  0  0  0  0  0  0
   10.4048    2.5127    0.0000 H   0  0  0  0  0  0  0  0  0  0  0  0
   10.4482    5.4876    0.0000 H   0  0  0  0  0  0  0  0  0  0  0  0
   10.0497    4.7973    0.0000 H   0  0  0  0  0  0  0  0  0  0  0  0
    8.7162    2.4876    0.0000 H   0  0  0  0  0  0  0  0  0  0  0  0
    8.3176    1.7973    0.0000 H   0  0  0  0  0  0  0  0  0  0  0  0
   11.7383    4.8224    0.0000 H   0  0  0  0  0  0  0  0  0  0  0  0
   12.1369    5.5127    0.0000 H   0  0  0  0  0  0  0  0  0  0  0  0
    9.1403    0.3224    0.0000 H   0  0  0  0  0  0  0  0  0  0  0  0
    9.5388    1.0127    0.0000 H   0  0  0  0  0  0  0  0  0  0  0  0
   11.3142    6.9876    0.0000 H   0  0  0  0  0  0  0  0  0  0  0  0
   10.9157    6.2973    0.0000 H   0  0  0  0  0  0  0  0  0  0  0  0
    7.8501    0.9876    0.0000 H   0  0  0  0  0  0  0  0  0  0  0  0
    7.4516    0.2973    0.0000 H   0  0  0  0  0  0  0  0  0  0  0  0
   12.6044    6.3224    0.0000 H   0  0  0  0  0  0  0  0  0  0  0  0
   13.0029    7.0127    0.0000 H   0  0  0  0  0  0  0  0  0  0  0  0
    8.2742   -1.1776    0.0000 H   0  0  0  0  0  0  0  0  0  0  0  0
    8.6728   -0.4873    0.0000 H   0  0  0  0  0  0  0  0  0  0  0  0
   12.1803    8.4876    0.0000 H   0  0  0  0  0  0  0  0  0  0  0  0
   11.7817    7.7973    0.0000 H   0  0  0  0  0  0  0  0  0  0  0  0
    6.9841   -0.5124    0.0000 H   0  0  0  0  0  0  0  0  0  0  0  0
    6.5856   -1.2027    0.0000 H   0  0  0  0  0  0  0  0  0  0  0  0
   13.4704    7.8224    0.0000 H   0  0  0  0  0  0  0  0  0  0  0  0
   13.8689    8.5127    0.0000 H   0  0  0  0  0  0  0  0  0  0  0  0
    7.4082   -2.6776    0.0000 H   0  0  0  0  0  0  0  0  0  0  0  0
    7.8067   -1.9873    0.0000 H   0  0  0  0  0  0  0  0  0  0  0  0
   13.0463    9.9876    0.0000 H   0  0  0  0  0  0  0  0  0  0  0  0
   12.6477    9.2973    0.0000 H   0  0  0  0  0  0  0  0  0  0  0  0
    6.1181   -2.0124    0.0000 H   0  0  0  0  0  0  0  0  0  0  0  0
    5.7196   -2.7027    0.0000 H   0  0  0  0  0  0  0  0  0  0  0  0
   14.4344    9.3681    0.0000 H   0  0  0  0  0  0  0  0  0  0  0  0
   14.6613   10.2150    0.0000 H   0  0  0  0  0  0  0  0  0  0  0  0
   13.8144   10.4419    0.0000 H   0  0  0  0  0  0  0  0  0  0  0  0
    6.0010   -5.4050    0.0000 H   0  0  0  0  0  0  0  0  0  0  0  0
    4.0611   -5.2850    0.0000 H   0  0  0  0  0  0  0  0  0  0  0  0
    3.1951   -6.7850    0.0000 H   0  0  0  0  0  0  0  0  0  0  0  0
    6.0010   -6.7850    0.0000 H   0  0  0  0  0  0  0  0  0  0  0  0
    6.0010   -8.4050    0.0000 H   0  0  0  0  0  0  0  0  0  0  0  0
    5.1350   -9.9050    0.0000 H   0  0  0  0  0  0  0  0  0  0  0  0
    2.3100   -7.5581    0.0000 H   0  0  0  0  0  0  0  0  0  0  0  0
    1.4631   -7.7850    0.0000 H   0  0  0  0  0  0  0  0  0  0  0  0
    1.6900   -8.6319    0.0000 H   0  0  0  0  0  0  0  0  0  0  0  0
  1 21  1  0  0  0  0
  1 23  1  0  0  0  0
  2 23  2  0  0  0  0
  3 29  1  0  0  0  0
  3 32  1  0  0  0  0
  4 31  1  0  0  0  0
  4 75  1  0  0  0  0
  5  6  1  0  0  0  0
  5  7  1  0  0  0  0
  5 33  1  0  0  0  0
  5 34  1  0  0  0  0
  6  8  1  0  0  0  0
  6 35  1  0  0  0  0
  6 36  1  0  0  0  0
  7  9  1  0  0  0  0
  7 37  1  0  0  0  0
  7 38  1  0  0  0  0
  8 10  1  0  0  0  0
  8 39  1  0  0  0  0
  8 40  1  0  0  0  0
  9 11  1  0  0  0  0
  9 41  1  0  0  0  0
  9 42  1  0  0  0  0
 10 12  1  0  0  0  0
 10 43  1  0  0  0  0
 10 44  1  0  0  0  0
 11 13  1  0  0  0  0
 11 45  1  0  0  0  0
 11 46  1  0  0  0  0
 12 14  1  0  0  0  0
 12 47  1  0  0  0  0
 12 48  1  0  0  0  0
 13 15  1  0  0  0  0
 13 49  1  0  0  0  0
 13 50  1  0  0  0  0
 14 16  1  0  0  0  0
 14 51  1  0  0  0  0
 14 52  1  0  0  0  0
 15 17  1  0  0  0  0
 15 53  1  0  0  0  0
 15 54  1  0  0  0  0
 16 18  1  0  0  0  0
 16 55  1  0  0  0  0
 16 56  1  0  0  0  0
 17 19  1  0  0  0  0
 17 57  1  0  0  0  0
 17 58  1  0  0  0  0
 18 20  1  0  0  0  0
 18 59  1  0  0  0  0
 18 60  1  0  0  0  0
 19 21  1  0  0  0  0
 19 61  1  0  0  0  0
 19 62  1  0  0  0  0
 20 22  1  0  0  0  0
 20 63  1  0  0  0  0
 20 64  1  0  0  0  0
 21 65  1  0  0  0  0
 21 66  1  0  0  0  0
 22 67  1  0  0  0  0
 22 68  1  0  0  0  0
 22 69  1  0  0  0  0
 23 24  1  0  0  0  0
 24 25  2  0  0  0  0
 24 70  1  0  0  0  0
 25 26  1  0  0  0  0
 25 71  1  0  0  0  0
 26 27  2  0  0  0  0
 26 28  1  0  0  0  0
 27 29  1  0  0  0  0
 27 72  1  0  0  0  0
 28 30  2  0  0  0  0
 28 73  1  0  0  0  0
 29 31  2  0  0  0  0
 30 31  1  0  0  0  0
 30 74  1  0  0  0  0
 32 76  1  0  0  0  0
 32 77  1  0  0  0  0
 32 78  1  0  0  0  0
M  END
>  <PUBCHEM_COMPOUND_CID>
5320256

>  <PUBCHEM_COMPOUND_CANONICALIZED>
1

>  <PUBCHEM_CACTVS_COMPLEXITY>
462

>  <PUBCHEM_CACTVS_HBOND_ACCEPTOR>
4

>  <PUBCHEM_CACTVS_HBOND_DONOR>
1

>  <PUBCHEM_CACTVS_ROTATABLE_BOND>
21

>  <PUBCHEM_CACTVS_SUBSKEYS>
AAADcfB4OAAAAAAAAAAAAAAAAAAAAAAAAAAwAAAAAAAAAAABAAAAGgAACAAADASgmAIyDoAABgCIAiDSCAACCAAgIAAIiAAGiMgNJiKGMRqCcCMkwBELuYeAwLAOIAABAAAAQABAAAIAAACAAAAAAAAAAA==

>  <PUBCHEM_IUPAC_OPENEYE_NAME>
octadecyl (E)-3-(4-hydroxy-3-methoxy-phenyl)prop-2-enoate

>  <PUBCHEM_IUPAC_CAS_NAME>
(E)-3-(4-hydroxy-3-methoxyphenyl)-2-propenoic acid octadecyl ester

>  <PUBCHEM_IUPAC_NAME>
octadecyl (E)-3-(4-hydroxy-3-methoxyphenyl)prop-2-enoate

>  <PUBCHEM_IUPAC_SYSTEMATIC_NAME>
octadecyl (E)-3-(3-methoxy-4-oxidanyl-phenyl)prop-2-enoate

>  <PUBCHEM_IUPAC_TRADITIONAL_NAME>
(E)-3-(4-hydroxy-3-methoxy-phenyl)acrylic acid stearyl ester

>  <PUBCHEM_IUPAC_INCHI>
InChI=1S/C28H46O4/c1-3-4-5-6-7-8-9-10-11-12-13-14-15-16-17-18-23-32-28(30)22-20-25-19-21-26(29)27(24-25)31-2/h19-22,24,29H,3-18,23H2,1-2H3/b22-20+

>  <PUBCHEM_IUPAC_INCHIKEY>
SESLBPIXVOYQJJ-LSDHQDQOSA-N

>  <PUBCHEM_XLOGP3>
10.7

>  <PUBCHEM_EXACT_MASS>
446.34

>  <PUBCHEM_MOLECULAR_FORMULA>
C28H46O4

>  <PUBCHEM_MOLECULAR_WEIGHT>
446.672

>  <PUBCHEM_OPENEYE_CAN_SMILES>
CCCCCCCCCCCCCCCCCCOC(=O)C=CC1=CC(=C(C=C1)O)OC

>  <PUBCHEM_OPENEYE_ISO_SMILES>
CCCCCCCCCCCCCCCCCCOC(=O)/C=C/C1=CC(=C(C=C1)O)OC

>  <PUBCHEM_CACTVS_TPSA>
55.8

>  <PUBCHEM_MONOISOTOPIC_WEIGHT>
446.34

>  <PUBCHEM_TOTAL_CHARGE>
0

>  <PUBCHEM_HEAVY_ATOM_COUNT>
32

>  <PUBCHEM_ATOM_DEF_STEREO_COUNT>
0

>  <PUBCHEM_ATOM_UDEF_STEREO_COUNT>
0

>  <PUBCHEM_BOND_DEF_STEREO_COUNT>
1

>  <PUBCHEM_BOND_UDEF_STEREO_COUNT>
0

>  <PUBCHEM_ISOTOPIC_ATOM_COUNT>
0

>  <PUBCHEM_COMPONENT_COUNT>
1

>  <PUBCHEM_CACTVS_TAUTO_COUNT>
5

>  <PUBCHEM_COORDINATE_TYPE>
1
5
255

>  <PUBCHEM_BONDANNOTATIONS>
26  27  8
26  28  8
27  29  8
28  30  8
29  31  8
30  31  8

$$$$
