5320546
 OpenBabel06101807152D

102101  0  0  0  0  0  0  0  0999 V2000
   13.2583   -7.2500    0.0000 C   0  0  0  0  0  0  0  0  0  0  0  0
   14.1244   -7.7500    0.0000 C   0  0  0  0  0  0  0  0  0  0  0  0
   12.3923   -7.7500    0.0000 C   0  0  0  0  0  0  0  0  0  0  0  0
   15.8564   -7.7500    0.0000 C   0  0  0  0  0  0  0  0  0  0  0  0
   16.7224   -7.2500    0.0000 C   0  0  0  0  0  0  0  0  0  0  0  0
   14.9904   -7.2500    0.0000 C   0  0  0  0  0  0  0  0  0  0  0  0
   11.5263   -6.2500    0.0000 C   0  0  0  0  0  0  0  0  0  0  0  0
   11.5263   -7.2500    0.0000 C   0  0  0  0  0  0  0  0  0  0  0  0
   10.6603   -5.7500    0.0000 C   0  0  0  0  0  0  0  0  0  0  0  0
   17.5885   -7.7500    0.0000 C   0  0  0  0  0  0  0  0  0  0  0  0
    4.5981    5.7500    0.0000 C   0  0  0  0  0  0  0  0  0  0  0  0
    4.5981    4.7500    0.0000 C   0  0  0  0  0  0  0  0  0  0  0  0
    5.4641    3.2500    0.0000 C   0  0  0  0  0  0  0  0  0  0  0  0
   12.3923   -8.7500    0.0000 C   0  0  0  0  0  0  0  0  0  0  0  0
    6.3301    2.7500    0.0000 C   0  0  0  0  0  0  0  0  0  0  0  0
   15.8564   -8.7500    0.0000 C   0  0  0  0  0  0  0  0  0  0  0  0
    3.7320    6.2500    0.0000 C   0  0  0  0  0  0  0  0  0  0  0  0
    5.4641    4.2500    0.0000 C   0  0  0  0  0  0  0  0  0  0  0  0
   10.6603   -4.7500    0.0000 C   0  0  0  0  0  0  0  0  0  0  0  0
   18.4545   -7.2500    0.0000 C   0  0  0  0  0  0  0  0  0  0  0  0
    6.3301    1.7500    0.0000 C   0  0  0  0  0  0  0  0  0  0  0  0
    3.7320    4.2500    0.0000 C   0  0  0  0  0  0  0  0  0  0  0  0
    3.7320    7.2500    0.0000 C   0  0  0  0  0  0  0  0  0  0  0  0
   19.3205   -7.7500    0.0000 C   0  0  0  0  0  0  0  0  0  0  0  0
   11.5263   -4.2500    0.0000 C   0  0  0  0  0  0  0  0  0  0  0  0
    9.7942   -4.2500    0.0000 C   0  0  0  0  0  0  0  0  0  0  0  0
    2.8660    7.7500    0.0000 C   0  0  0  0  0  0  0  0  0  0  0  0
    5.4641    1.2500    0.0000 C   0  0  0  0  0  0  0  0  0  0  0  0
    7.1962    1.2500    0.0000 C   0  0  0  0  0  0  0  0  0  0  0  0
   20.1865   -7.2500    0.0000 C   0  0  0  0  0  0  0  0  0  0  0  0
   19.3205   -8.7500    0.0000 C   0  0  0  0  0  0  0  0  0  0  0  0
    9.7942   -3.2500    0.0000 C   0  0  0  0  0  0  0  0  0  0  0  0
    2.8660    8.7500    0.0000 C   0  0  0  0  0  0  0  0  0  0  0  0
    2.0000    7.2500    0.0000 C   0  0  0  0  0  0  0  0  0  0  0  0
    7.1962    0.2500    0.0000 C   0  0  0  0  0  0  0  0  0  0  0  0
    8.9282   -2.7500    0.0000 C   0  0  0  0  0  0  0  0  0  0  0  0
    8.0622   -0.2500    0.0000 C   0  0  0  0  0  0  0  0  0  0  0  0
    8.0622   -1.2500    0.0000 C   0  0  0  0  0  0  0  0  0  0  0  0
    8.9282   -1.7500    0.0000 C   0  0  0  0  0  0  0  0  0  0  0  0
    7.1962   -1.7500    0.0000 C   0  0  0  0  0  0  0  0  0  0  0  0
   13.6569   -6.7750    0.0000 H   0  0  0  0  0  0  0  0  0  0  0  0
   12.8598   -6.7750    0.0000 H   0  0  0  0  0  0  0  0  0  0  0  0
   13.7258   -8.2250    0.0000 H   0  0  0  0  0  0  0  0  0  0  0  0
   14.5229   -8.2250    0.0000 H   0  0  0  0  0  0  0  0  0  0  0  0
   17.1210   -6.7750    0.0000 H   0  0  0  0  0  0  0  0  0  0  0  0
   16.3239   -6.7750    0.0000 H   0  0  0  0  0  0  0  0  0  0  0  0
   14.9904   -6.6300    0.0000 H   0  0  0  0  0  0  0  0  0  0  0  0
   12.1369   -6.3577    0.0000 H   0  0  0  0  0  0  0  0  0  0  0  0
   11.7383   -5.6674    0.0000 H   0  0  0  0  0  0  0  0  0  0  0  0
   10.9893   -7.5600    0.0000 H   0  0  0  0  0  0  0  0  0  0  0  0
   10.0497   -5.6423    0.0000 H   0  0  0  0  0  0  0  0  0  0  0  0
   10.4482   -6.3326    0.0000 H   0  0  0  0  0  0  0  0  0  0  0  0
   17.1899   -8.2250    0.0000 H   0  0  0  0  0  0  0  0  0  0  0  0
   17.9870   -8.2250    0.0000 H   0  0  0  0  0  0  0  0  0  0  0  0
    5.2087    5.6423    0.0000 H   0  0  0  0  0  0  0  0  0  0  0  0
    4.8101    6.3326    0.0000 H   0  0  0  0  0  0  0  0  0  0  0  0
    4.8535    3.3577    0.0000 H   0  0  0  0  0  0  0  0  0  0  0  0
    5.2520    2.6674    0.0000 H   0  0  0  0  0  0  0  0  0  0  0  0
   11.7723   -8.7500    0.0000 H   0  0  0  0  0  0  0  0  0  0  0  0
   12.3923   -9.3700    0.0000 H   0  0  0  0  0  0  0  0  0  0  0  0
   13.0123   -8.7500    0.0000 H   0  0  0  0  0  0  0  0  0  0  0  0
    6.9407    2.6423    0.0000 H   0  0  0  0  0  0  0  0  0  0  0  0
    6.5422    3.3326    0.0000 H   0  0  0  0  0  0  0  0  0  0  0  0
   15.2364   -8.7500    0.0000 H   0  0  0  0  0  0  0  0  0  0  0  0
   15.8564   -9.3700    0.0000 H   0  0  0  0  0  0  0  0  0  0  0  0
   16.4764   -8.7500    0.0000 H   0  0  0  0  0  0  0  0  0  0  0  0
    3.1215    6.3577    0.0000 H   0  0  0  0  0  0  0  0  0  0  0  0
    3.5200    5.6674    0.0000 H   0  0  0  0  0  0  0  0  0  0  0  0
    6.0010    4.5600    0.0000 H   0  0  0  0  0  0  0  0  0  0  0  0
   18.4545   -6.6300    0.0000 H   0  0  0  0  0  0  0  0  0  0  0  0
    3.4220    4.7869    0.0000 H   0  0  0  0  0  0  0  0  0  0  0  0
    3.1951    3.9400    0.0000 H   0  0  0  0  0  0  0  0  0  0  0  0
    4.0420    3.7131    0.0000 H   0  0  0  0  0  0  0  0  0  0  0  0
    4.2690    7.5600    0.0000 H   0  0  0  0  0  0  0  0  0  0  0  0
   11.8363   -4.7869    0.0000 H   0  0  0  0  0  0  0  0  0  0  0  0
   12.0632   -3.9400    0.0000 H   0  0  0  0  0  0  0  0  0  0  0  0
   11.2163   -3.7131    0.0000 H   0  0  0  0  0  0  0  0  0  0  0  0
    9.2573   -4.5600    0.0000 H   0  0  0  0  0  0  0  0  0  0  0  0
    5.1541    1.7869    0.0000 H   0  0  0  0  0  0  0  0  0  0  0  0
    4.9272    0.9400    0.0000 H   0  0  0  0  0  0  0  0  0  0  0  0
    5.7741    0.7131    0.0000 H   0  0  0  0  0  0  0  0  0  0  0  0
    7.7331    1.5600    0.0000 H   0  0  0  0  0  0  0  0  0  0  0  0
   20.4965   -7.7869    0.0000 H   0  0  0  0  0  0  0  0  0  0  0  0
   18.7005   -8.7500    0.0000 H   0  0  0  0  0  0  0  0  0  0  0  0
   19.3205   -9.3700    0.0000 H   0  0  0  0  0  0  0  0  0  0  0  0
   20.7235   -6.9400    0.0000 H   0  0  0  0  0  0  0  0  0  0  0  0
   19.8765   -6.7131    0.0000 H   0  0  0  0  0  0  0  0  0  0  0  0
   19.9405   -8.7500    0.0000 H   0  0  0  0  0  0  0  0  0  0  0  0
   10.3312   -2.9400    0.0000 H   0  0  0  0  0  0  0  0  0  0  0  0
    3.4860    8.7500    0.0000 H   0  0  0  0  0  0  0  0  0  0  0  0
    2.8660    9.3700    0.0000 H   0  0  0  0  0  0  0  0  0  0  0  0
    2.2460    8.7500    0.0000 H   0  0  0  0  0  0  0  0  0  0  0  0
    1.6900    7.7869    0.0000 H   0  0  0  0  0  0  0  0  0  0  0  0
    1.4631    6.9400    0.0000 H   0  0  0  0  0  0  0  0  0  0  0  0
    2.3100    6.7131    0.0000 H   0  0  0  0  0  0  0  0  0  0  0  0
    6.6592   -0.0600    0.0000 H   0  0  0  0  0  0  0  0  0  0  0  0
    8.3913   -3.0600    0.0000 H   0  0  0  0  0  0  0  0  0  0  0  0
    8.5991    0.0600    0.0000 H   0  0  0  0  0  0  0  0  0  0  0  0
    9.4651   -1.4400    0.0000 H   0  0  0  0  0  0  0  0  0  0  0  0
    6.8862   -1.2131    0.0000 H   0  0  0  0  0  0  0  0  0  0  0  0
    6.6592   -2.0600    0.0000 H   0  0  0  0  0  0  0  0  0  0  0  0
    7.5062   -2.2869    0.0000 H   0  0  0  0  0  0  0  0  0  0  0  0
  1  2  1  0  0  0  0
  1  3  1  0  0  0  0
  1 41  1  0  0  0  0
  1 42  1  0  0  0  0
  2  6  1  0  0  0  0
  2 43  1  0  0  0  0
  2 44  1  0  0  0  0
  3  8  2  0  0  0  0
  3 14  1  0  0  0  0
  4  5  1  0  0  0  0
  4  6  2  0  0  0  0
  4 16  1  0  0  0  0
  5 10  1  0  0  0  0
  5 45  1  0  0  0  0
  5 46  1  0  0  0  0
  6 47  1  0  0  0  0
  7  8  1  0  0  0  0
  7  9  1  0  0  0  0
  7 48  1  0  0  0  0
  7 49  1  0  0  0  0
  8 50  1  0  0  0  0
  9 19  1  0  0  0  0
  9 51  1  0  0  0  0
  9 52  1  0  0  0  0
 10 20  1  0  0  0  0
 10 53  1  0  0  0  0
 10 54  1  0  0  0  0
 11 12  1  0  0  0  0
 11 17  1  0  0  0  0
 11 55  1  0  0  0  0
 11 56  1  0  0  0  0
 12 18  2  0  0  0  0
 12 22  1  0  0  0  0
 13 15  1  0  0  0  0
 13 18  1  0  0  0  0
 13 57  1  0  0  0  0
 13 58  1  0  0  0  0
 14 59  1  0  0  0  0
 14 60  1  0  0  0  0
 14 61  1  0  0  0  0
 15 21  1  0  0  0  0
 15 62  1  0  0  0  0
 15 63  1  0  0  0  0
 16 64  1  0  0  0  0
 16 65  1  0  0  0  0
 16 66  1  0  0  0  0
 17 23  1  0  0  0  0
 17 67  1  0  0  0  0
 17 68  1  0  0  0  0
 18 69  1  0  0  0  0
 19 25  1  0  0  0  0
 19 26  2  0  0  0  0
 20 24  2  0  0  0  0
 20 70  1  0  0  0  0
 21 28  1  0  0  0  0
 21 29  2  0  0  0  0
 22 71  1  0  0  0  0
 22 72  1  0  0  0  0
 22 73  1  0  0  0  0
 23 27  2  0  0  0  0
 23 74  1  0  0  0  0
 24 30  1  0  0  0  0
 24 31  1  0  0  0  0
 25 75  1  0  0  0  0
 25 76  1  0  0  0  0
 25 77  1  0  0  0  0
 26 32  1  0  0  0  0
 26 78  1  0  0  0  0
 27 33  1  0  0  0  0
 27 34  1  0  0  0  0
 28 79  1  0  0  0  0
 28 80  1  0  0  0  0
 28 81  1  0  0  0  0
 29 35  1  0  0  0  0
 29 82  1  0  0  0  0
 30 83  1  0  0  0  0
 30 86  1  0  0  0  0
 30 87  1  0  0  0  0
 31 84  1  0  0  0  0
 31 85  1  0  0  0  0
 31 88  1  0  0  0  0
 32 36  2  0  0  0  0
 32 89  1  0  0  0  0
 33 90  1  0  0  0  0
 33 91  1  0  0  0  0
 33 92  1  0  0  0  0
 34 93  1  0  0  0  0
 34 94  1  0  0  0  0
 34 95  1  0  0  0  0
 35 37  2  0  0  0  0
 35 96  1  0  0  0  0
 36 39  1  0  0  0  0
 36 97  1  0  0  0  0
 37 38  1  0  0  0  0
 37 98  1  0  0  0  0
 38 39  2  0  0  0  0
 38 40  1  0  0  0  0
 39 99  1  0  0  0  0
 40100  1  0  0  0  0
 40101  1  0  0  0  0
 40102  1  0  0  0  0
M  END
>  <PUBCHEM_COMPOUND_CID>
5320546

>  <PUBCHEM_COMPOUND_CANONICALIZED>
1

>  <PUBCHEM_CACTVS_COMPLEXITY>
1010

>  <PUBCHEM_CACTVS_HBOND_ACCEPTOR>
0

>  <PUBCHEM_CACTVS_HBOND_DONOR>
0

>  <PUBCHEM_CACTVS_ROTATABLE_BOND>
19

>  <PUBCHEM_CACTVS_SUBSKEYS>
AAADcfB8AAAAAAAAAAAAAAAAAAAAAAAAAAAAAAAAAAAAAAAAAAAAGAAAAAAADACAAAACAAAAAACAAiBCAAAAAAAgAAAICAAAAAgIAAIAAQAAAAAAgAAIgAIAAAAAAAAAAAAAAAAAAAAAAAAAAAAAAAAAAA==

>  <PUBCHEM_IUPAC_OPENEYE_NAME>
(6E,10E,12E,14E,16E,18E,22Z,26E)-2,6,10,14,19,23,27,31-octamethyldotriaconta-2,6,10,12,14,16,18,22,26,30-decaene

>  <PUBCHEM_IUPAC_CAS_NAME>
(6E,10E,12E,14E,16E,18E,22Z,26E)-2,6,10,14,19,23,27,31-octamethyldotriaconta-2,6,10,12,14,16,18,22,26,30-decaene

>  <PUBCHEM_IUPAC_NAME>
(6E,10E,12E,14E,16E,18E,22Z,26E)-2,6,10,14,19,23,27,31-octamethyldotriaconta-2,6,10,12,14,16,18,22,26,30-decaene

>  <PUBCHEM_IUPAC_SYSTEMATIC_NAME>
(6E,10E,12E,14E,16E,18E,22Z,26E)-2,6,10,14,19,23,27,31-octamethyldotriaconta-2,6,10,12,14,16,18,22,26,30-decaene

>  <PUBCHEM_IUPAC_TRADITIONAL_NAME>
(6E,10E,12E,14E,16E,18E,22Z,26E)-2,6,10,14,19,23,27,31-octamethyldotriaconta-2,6,10,12,14,16,18,22,26,30-decaene

>  <PUBCHEM_IUPAC_INCHI>
InChI=1S/C40H62/c1-33(2)19-13-23-37(7)27-17-31-39(9)29-15-25-35(5)21-11-12-22-36(6)26-16-30-40(10)32-18-28-38(8)24-14-20-34(3)4/h11-12,15,19-22,25,27-30H,13-14,16-18,23-24,26,31-32H2,1-10H3/b12-11+,25-15+,35-21+,36-22+,37-27+,38-28+,39-29+,40-30-

>  <PUBCHEM_IUPAC_INCHIKEY>
OVSVTCFNLSGAMM-CSTSADRFSA-N

>  <PUBCHEM_XLOGP3_AA>
15.4

>  <PUBCHEM_EXACT_MASS>
542.485

>  <PUBCHEM_MOLECULAR_FORMULA>
C40H62

>  <PUBCHEM_MOLECULAR_WEIGHT>
542.936

>  <PUBCHEM_OPENEYE_CAN_SMILES>
CC(=CCCC(=CCCC(=CCCC(=CC=CC=C(C)C=CC=C(C)CCC=C(C)CCC=C(C)C)C)C)C)C

>  <PUBCHEM_OPENEYE_ISO_SMILES>
CC(=CCC/C(=C/CC/C(=C\CC/C(=C/C=C/C=C(\C)/C=C/C=C(\C)/CC/C=C(\C)/CCC=C(C)C)/C)/C)/C)C

>  <PUBCHEM_CACTVS_TPSA>
0

>  <PUBCHEM_MONOISOTOPIC_WEIGHT>
542.485

>  <PUBCHEM_TOTAL_CHARGE>
0

>  <PUBCHEM_HEAVY_ATOM_COUNT>
40

>  <PUBCHEM_ATOM_DEF_STEREO_COUNT>
0

>  <PUBCHEM_ATOM_UDEF_STEREO_COUNT>
0

>  <PUBCHEM_BOND_DEF_STEREO_COUNT>
8

>  <PUBCHEM_BOND_UDEF_STEREO_COUNT>
0

>  <PUBCHEM_ISOTOPIC_ATOM_COUNT>
0

>  <PUBCHEM_COMPONENT_COUNT>
1

>  <PUBCHEM_CACTVS_TAUTO_COUNT>
1

>  <PUBCHEM_COORDINATE_TYPE>
1
5
255

$$$$
