5321163
 OpenBabel06101807152D

 29 30  0  0  0  0  0  0  0  0999 V2000
    6.3580   -0.7967    0.0000 O   0  0  0  0  0  0  0  0  0  0  0  0
    4.5981   -1.7621    0.0000 O   0  0  0  0  0  0  0  0  0  0  0  0
    2.8660   -0.7621    0.0000 O   0  0  0  0  0  0  0  0  0  0  0  0
    8.1282    1.2621    0.0000 O   0  0  0  0  0  0  0  0  0  0  0  0
    8.1282   -0.7862    0.0000 O   0  0  0  0  0  0  0  0  0  0  0  0
    5.4641    0.7379    0.0000 C   0  0  0  0  0  0  0  0  0  0  0  0
    5.4641   -0.2621    0.0000 C   0  0  0  0  0  0  0  0  0  0  0  0
    4.5981   -0.7621    0.0000 C   0  0  0  0  0  0  0  0  0  0  0  0
    3.7320   -0.2621    0.0000 C   0  0  0  0  0  0  0  0  0  0  0  0
    4.5981    1.2379    0.0000 C   0  0  0  0  0  0  0  0  0  0  0  0
    6.3580    1.2726    0.0000 C   0  0  0  0  0  0  0  0  0  0  0  0
    3.7320    0.7379    0.0000 C   0  0  0  0  0  0  0  0  0  0  0  0
    7.2641    0.7587    0.0000 C   0  0  0  0  0  0  0  0  0  0  0  0
    7.2641   -0.2829    0.0000 C   0  0  0  0  0  0  0  0  0  0  0  0
    3.7320   -2.2621    0.0000 C   0  0  0  0  0  0  0  0  0  0  0  0
    2.0000   -0.2621    0.0000 C   0  0  0  0  0  0  0  0  0  0  0  0
    8.1244    2.2621    0.0000 C   0  0  0  0  0  0  0  0  0  0  0  0
    4.5981    1.8579    0.0000 H   0  0  0  0  0  0  0  0  0  0  0  0
    6.3509    1.8926    0.0000 H   0  0  0  0  0  0  0  0  0  0  0  0
    3.1951    1.0479    0.0000 H   0  0  0  0  0  0  0  0  0  0  0  0
    3.4220   -1.7251    0.0000 H   0  0  0  0  0  0  0  0  0  0  0  0
    3.1951   -2.5721    0.0000 H   0  0  0  0  0  0  0  0  0  0  0  0
    4.0420   -2.7990    0.0000 H   0  0  0  0  0  0  0  0  0  0  0  0
    2.3100    0.2749    0.0000 H   0  0  0  0  0  0  0  0  0  0  0  0
    1.4631    0.0479    0.0000 H   0  0  0  0  0  0  0  0  0  0  0  0
    1.6900   -0.7990    0.0000 H   0  0  0  0  0  0  0  0  0  0  0  0
    8.7443    2.2645    0.0000 H   0  0  0  0  0  0  0  0  0  0  0  0
    8.1220    2.8821    0.0000 H   0  0  0  0  0  0  0  0  0  0  0  0
    7.5044    2.2597    0.0000 H   0  0  0  0  0  0  0  0  0  0  0  0
  1  7  1  0  0  0  0
  1 14  1  0  0  0  0
  2  8  1  0  0  0  0
  2 15  1  0  0  0  0
  3  9  1  0  0  0  0
  3 16  1  0  0  0  0
  4 13  1  0  0  0  0
  4 17  1  0  0  0  0
  5 14  2  0  0  0  0
  6  7  2  0  0  0  0
  6 10  1  0  0  0  0
  6 11  1  0  0  0  0
  7  8  1  0  0  0  0
  8  9  2  0  0  0  0
  9 12  1  0  0  0  0
 10 12  2  0  0  0  0
 10 18  1  0  0  0  0
 11 13  2  0  0  0  0
 11 19  1  0  0  0  0
 12 20  1  0  0  0  0
 13 14  1  0  0  0  0
 15 21  1  0  0  0  0
 15 22  1  0  0  0  0
 15 23  1  0  0  0  0
 16 24  1  0  0  0  0
 16 25  1  0  0  0  0
 16 26  1  0  0  0  0
 17 27  1  0  0  0  0
 17 28  1  0  0  0  0
 17 29  1  0  0  0  0
M  END
>  <PUBCHEM_COMPOUND_CID>
5321163

>  <PUBCHEM_COMPOUND_CANONICALIZED>
1

>  <PUBCHEM_CACTVS_COMPLEXITY>
325

>  <PUBCHEM_CACTVS_HBOND_ACCEPTOR>
5

>  <PUBCHEM_CACTVS_HBOND_DONOR>
0

>  <PUBCHEM_CACTVS_ROTATABLE_BOND>
3

>  <PUBCHEM_CACTVS_SUBSKEYS>
AAADccBwOAAAAAAAAAAAAAAAAAAAAAAAAAAwQAAAAAAAAACBAAAAGgAAAAAADASAmAIyDoAABACIAiDSCAICCAAgIAAIiABGiMgNJyKEMR6COiKlwBUKqYeA4DwOIAABCAAIQABAAAIQABCAAAAAAAAAAA==

>  <PUBCHEM_IUPAC_OPENEYE_NAME>
3,7,8-trimethoxychromen-2-one

>  <PUBCHEM_IUPAC_CAS_NAME>
3,7,8-trimethoxy-1-benzopyran-2-one

>  <PUBCHEM_IUPAC_NAME>
3,7,8-trimethoxychromen-2-one

>  <PUBCHEM_IUPAC_SYSTEMATIC_NAME>
3,7,8-trimethoxychromen-2-one

>  <PUBCHEM_IUPAC_TRADITIONAL_NAME>
3,7,8-trimethoxycoumarin

>  <PUBCHEM_IUPAC_INCHI>
InChI=1S/C12H12O5/c1-14-8-5-4-7-6-9(15-2)12(13)17-10(7)11(8)16-3/h4-6H,1-3H3

>  <PUBCHEM_IUPAC_INCHIKEY>
JPCDNRZQWAURND-UHFFFAOYSA-N

>  <PUBCHEM_XLOGP3_AA>
2

>  <PUBCHEM_EXACT_MASS>
236.068

>  <PUBCHEM_MOLECULAR_FORMULA>
C12H12O5

>  <PUBCHEM_MOLECULAR_WEIGHT>
236.223

>  <PUBCHEM_OPENEYE_CAN_SMILES>
COC1=C(C2=C(C=C1)C=C(C(=O)O2)OC)OC

>  <PUBCHEM_OPENEYE_ISO_SMILES>
COC1=C(C2=C(C=C1)C=C(C(=O)O2)OC)OC

>  <PUBCHEM_CACTVS_TPSA>
54

>  <PUBCHEM_MONOISOTOPIC_WEIGHT>
236.068

>  <PUBCHEM_TOTAL_CHARGE>
0

>  <PUBCHEM_HEAVY_ATOM_COUNT>
17

>  <PUBCHEM_ATOM_DEF_STEREO_COUNT>
0

>  <PUBCHEM_ATOM_UDEF_STEREO_COUNT>
0

>  <PUBCHEM_BOND_DEF_STEREO_COUNT>
0

>  <PUBCHEM_BOND_UDEF_STEREO_COUNT>
0

>  <PUBCHEM_ISOTOPIC_ATOM_COUNT>
0

>  <PUBCHEM_COMPONENT_COUNT>
1

>  <PUBCHEM_CACTVS_TAUTO_COUNT>
1

>  <PUBCHEM_COORDINATE_TYPE>
1
5
255

>  <PUBCHEM_BONDANNOTATIONS>
1  14  8
1  7  8
10  12  8
11  13  8
13  14  8
6  10  8
6  11  8
6  7  8
7  8  8
8  9  8
9  12  8

$$$$
