5321948
 OpenBabel06101807152D

 30 32  0  0  0  0  0  0  0  0999 V2000
    5.5321   -0.8846    0.0000 O   0  0  0  0  0  0  0  0  0  0  0  0
    2.9176   -2.4192    0.0000 O   0  0  0  0  0  0  0  0  0  0  0  0
    4.6660   -2.3846    0.0000 O   0  0  0  0  0  0  0  0  0  0  0  0
    8.9962    0.1154    0.0000 O   0  0  0  0  0  0  0  0  0  0  0  0
    8.9962    2.1154    0.0000 O   0  0  0  0  0  0  0  0  0  0  0  0
    3.8000    0.1154    0.0000 C   0  0  0  0  0  0  0  0  0  0  0  0
    3.8000   -0.8846    0.0000 C   0  0  0  0  0  0  0  0  0  0  0  0
    5.5321    0.1154    0.0000 C   0  0  0  0  0  0  0  0  0  0  0  0
    4.6660    0.6154    0.0000 C   0  0  0  0  0  0  0  0  0  0  0  0
    6.3981    0.6154    0.0000 C   0  0  0  0  0  0  0  0  0  0  0  0
    2.9061   -1.4193    0.0000 C   0  0  0  0  0  0  0  0  0  0  0  0
    2.9061    0.6501    0.0000 C   0  0  0  0  0  0  0  0  0  0  0  0
    4.6660   -1.3846    0.0000 C   0  0  0  0  0  0  0  0  0  0  0  0
    7.2641    0.1154    0.0000 C   0  0  0  0  0  0  0  0  0  0  0  0
    6.3981    1.6154    0.0000 C   0  0  0  0  0  0  0  0  0  0  0  0
    2.0000   -0.9054    0.0000 C   0  0  0  0  0  0  0  0  0  0  0  0
    2.0000    0.1362    0.0000 C   0  0  0  0  0  0  0  0  0  0  0  0
    8.1301    0.6154    0.0000 C   0  0  0  0  0  0  0  0  0  0  0  0
    7.2641    2.1154    0.0000 C   0  0  0  0  0  0  0  0  0  0  0  0
    8.1301    1.6154    0.0000 C   0  0  0  0  0  0  0  0  0  0  0  0
    4.6660    1.2354    0.0000 H   0  0  0  0  0  0  0  0  0  0  0  0
    2.9132    1.2700    0.0000 H   0  0  0  0  0  0  0  0  0  0  0  0
    7.2641   -0.5046    0.0000 H   0  0  0  0  0  0  0  0  0  0  0  0
    5.8612    1.9254    0.0000 H   0  0  0  0  0  0  0  0  0  0  0  0
    1.4643   -1.2175    0.0000 H   0  0  0  0  0  0  0  0  0  0  0  0
    1.4643    0.4483    0.0000 H   0  0  0  0  0  0  0  0  0  0  0  0
    7.2641    2.7354    0.0000 H   0  0  0  0  0  0  0  0  0  0  0  0
    2.3843   -2.7354    0.0000 H   0  0  0  0  0  0  0  0  0  0  0  0
    8.9962   -0.5046    0.0000 H   0  0  0  0  0  0  0  0  0  0  0  0
    8.9962    2.7354    0.0000 H   0  0  0  0  0  0  0  0  0  0  0  0
  1  8  1  0  0  0  0
  1 13  1  0  0  0  0
  2 11  1  0  0  0  0
  2 28  1  0  0  0  0
  3 13  2  0  0  0  0
  4 18  1  0  0  0  0
  4 29  1  0  0  0  0
  5 20  1  0  0  0  0
  5 30  1  0  0  0  0
  6  7  2  0  0  0  0
  6  9  1  0  0  0  0
  6 12  1  0  0  0  0
  7 11  1  0  0  0  0
  7 13  1  0  0  0  0
  8  9  2  0  0  0  0
  8 10  1  0  0  0  0
  9 21  1  0  0  0  0
 10 14  2  0  0  0  0
 10 15  1  0  0  0  0
 11 16  2  0  0  0  0
 12 17  2  0  0  0  0
 12 22  1  0  0  0  0
 14 18  1  0  0  0  0
 14 23  1  0  0  0  0
 15 19  2  0  0  0  0
 15 24  1  0  0  0  0
 16 17  1  0  0  0  0
 16 25  1  0  0  0  0
 17 26  1  0  0  0  0
 18 20  2  0  0  0  0
 19 20  1  0  0  0  0
 19 27  1  0  0  0  0
M  END
>  <PUBCHEM_COMPOUND_CID>
5321948

>  <PUBCHEM_COMPOUND_CANONICALIZED>
1

>  <PUBCHEM_CACTVS_COMPLEXITY>
419

>  <PUBCHEM_CACTVS_HBOND_ACCEPTOR>
5

>  <PUBCHEM_CACTVS_HBOND_DONOR>
3

>  <PUBCHEM_CACTVS_ROTATABLE_BOND>
1

>  <PUBCHEM_CACTVS_SUBSKEYS>
AAADccBwOAAAAAAAAAAAAAAAAAAAAAAAAAAwYIAAAAAAAACBQAAAGgAACAAADASAmAAwDoAABgCIAiDSCAACCAAkIAAIiAEGiMgJJzaCNRqCcUEl4BEJuQfI6LyOoAABAAAYQABAAAIAADCAAAAAAAAAAA==

>  <PUBCHEM_IUPAC_OPENEYE_NAME>
3-(3,4-dihydroxyphenyl)-8-hydroxy-isochromen-1-one

>  <PUBCHEM_IUPAC_CAS_NAME>
3-(3,4-dihydroxyphenyl)-8-hydroxy-2-benzopyran-1-one

>  <PUBCHEM_IUPAC_NAME>
3-(3,4-dihydroxyphenyl)-8-hydroxyisochromen-1-one

>  <PUBCHEM_IUPAC_SYSTEMATIC_NAME>
3-[3,4-bis(oxidanyl)phenyl]-8-oxidanyl-isochromen-1-one

>  <PUBCHEM_IUPAC_TRADITIONAL_NAME>
3-(3,4-dihydroxyphenyl)-8-hydroxy-isocoumarin

>  <PUBCHEM_IUPAC_INCHI>
InChI=1S/C15H10O5/c16-10-5-4-8(6-12(10)18)13-7-9-2-1-3-11(17)14(9)15(19)20-13/h1-7,16-18H

>  <PUBCHEM_IUPAC_INCHIKEY>
WHZXJVJVGGWZQI-UHFFFAOYSA-N

>  <PUBCHEM_XLOGP3_AA>
3

>  <PUBCHEM_EXACT_MASS>
270.053

>  <PUBCHEM_MOLECULAR_FORMULA>
C15H10O5

>  <PUBCHEM_MOLECULAR_WEIGHT>
270.24

>  <PUBCHEM_OPENEYE_CAN_SMILES>
C1=CC2=C(C(=C1)O)C(=O)OC(=C2)C3=CC(=C(C=C3)O)O

>  <PUBCHEM_OPENEYE_ISO_SMILES>
C1=CC2=C(C(=C1)O)C(=O)OC(=C2)C3=CC(=C(C=C3)O)O

>  <PUBCHEM_CACTVS_TPSA>
87

>  <PUBCHEM_MONOISOTOPIC_WEIGHT>
270.053

>  <PUBCHEM_TOTAL_CHARGE>
0

>  <PUBCHEM_HEAVY_ATOM_COUNT>
20

>  <PUBCHEM_ATOM_DEF_STEREO_COUNT>
0

>  <PUBCHEM_ATOM_UDEF_STEREO_COUNT>
0

>  <PUBCHEM_BOND_DEF_STEREO_COUNT>
0

>  <PUBCHEM_BOND_UDEF_STEREO_COUNT>
0

>  <PUBCHEM_ISOTOPIC_ATOM_COUNT>
0

>  <PUBCHEM_COMPONENT_COUNT>
1

>  <PUBCHEM_CACTVS_TAUTO_COUNT>
84

>  <PUBCHEM_COORDINATE_TYPE>
1
5
255

>  <PUBCHEM_BONDANNOTATIONS>
1  13  8
1  8  8
10  14  8
10  15  8
11  16  8
12  17  8
14  18  8
15  19  8
16  17  8
18  20  8
19  20  8
6  12  8
6  7  8
6  9  8
7  11  8
7  13  8
8  9  8

$$$$
