5321088
 OpenBabel06101807152D

 52 54  0  0  1  0  0  0  0  0999 V2000
    2.5381    0.0388    0.0000 O   0  0  0  0  0  0  0  0  0  0  0  0
    6.9464    2.5839    0.0000 O   0  0  0  0  0  0  0  0  0  0  0  0
    5.2022   -1.4854    0.0000 C   0  0  3  0  0  0  0  0  0  0  0  0
    5.2022   -0.4854    0.0000 C   0  0  2  0  0  0  0  0  0  0  0  0
    4.3083   -2.0200    0.0000 C   0  0  0  0  0  0  0  0  0  0  0  0
    4.3083    0.0493    0.0000 C   0  0  0  0  0  0  0  0  0  0  0  0
    3.4022   -1.5062    0.0000 C   0  0  0  0  0  0  0  0  0  0  0  0
    6.0682   -1.9854    0.0000 C   0  0  0  0  0  0  0  0  0  0  0  0
    3.4022   -0.4646    0.0000 C   0  0  3  0  0  0  0  0  0  0  0  0
    6.0682    0.0146    0.0000 C   0  0  0  0  0  0  0  0  0  0  0  0
    6.9343   -1.4854    0.0000 C   0  0  0  0  0  0  0  0  0  0  0  0
    5.2022    0.5146    0.0000 C   0  0  0  0  0  0  0  0  0  0  0  0
    3.8183   -2.8918    0.0000 C   0  0  0  0  0  0  0  0  0  0  0  0
    4.8183   -2.8802    0.0000 C   0  0  0  0  0  0  0  0  0  0  0  0
    6.9343   -0.4854    0.0000 C   0  0  0  0  0  0  0  0  0  0  0  0
    6.0522    1.0561    0.0000 C   0  0  0  0  0  0  0  0  0  0  0  0
    7.8443    0.0215    0.0000 C   0  0  0  0  0  0  0  0  0  0  0  0
    7.8523    1.0631    0.0000 C   0  0  0  0  0  0  0  0  0  0  0  0
    6.9502    1.5839    0.0000 C   0  0  0  0  0  0  0  0  0  0  0  0
    8.7202    1.5597    0.0000 C   0  0  0  0  0  0  0  0  0  0  0  0
    9.5844    1.0564    0.0000 C   0  0  0  0  0  0  0  0  0  0  0  0
    8.7241    2.5597    0.0000 C   0  0  0  0  0  0  0  0  0  0  0  0
    5.2070   -2.1054    0.0000 H   0  0  0  0  0  0  0  0  0  0  0  0
    4.7129    0.5191    0.0000 H   0  0  0  0  0  0  0  0  0  0  0  0
    3.9147    0.5283    0.0000 H   0  0  0  0  0  0  0  0  0  0  0  0
    2.7914   -1.4001    0.0000 H   0  0  0  0  0  0  0  0  0  0  0  0
    3.1932   -2.0899    0.0000 H   0  0  0  0  0  0  0  0  0  0  0  0
    5.6697   -2.4603    0.0000 H   0  0  0  0  0  0  0  0  0  0  0  0
    6.4668   -2.4603    0.0000 H   0  0  0  0  0  0  0  0  0  0  0  0
    2.8647   -0.7735    0.0000 H   0  0  0  0  0  0  0  0  0  0  0  0
    7.1463   -2.0680    0.0000 H   0  0  0  0  0  0  0  0  0  0  0  0
    7.5449   -1.3777    0.0000 H   0  0  0  0  0  0  0  0  0  0  0  0
    5.8222    0.5146    0.0000 H   0  0  0  0  0  0  0  0  0  0  0  0
    5.2022    1.1346    0.0000 H   0  0  0  0  0  0  0  0  0  0  0  0
    4.5822    0.5146    0.0000 H   0  0  0  0  0  0  0  0  0  0  0  0
    3.2778   -2.5880    0.0000 H   0  0  0  0  0  0  0  0  0  0  0  0
    3.5146   -3.4323    0.0000 H   0  0  0  0  0  0  0  0  0  0  0  0
    4.3588   -3.1956    0.0000 H   0  0  0  0  0  0  0  0  0  0  0  0
    4.2850   -3.1964    0.0000 H   0  0  0  0  0  0  0  0  0  0  0  0
    5.1344   -3.4136    0.0000 H   0  0  0  0  0  0  0  0  0  0  0  0
    5.3516   -2.5640    0.0000 H   0  0  0  0  0  0  0  0  0  0  0  0
    5.5117    1.3599    0.0000 H   0  0  0  0  0  0  0  0  0  0  0  0
    8.3776   -0.2947    0.0000 H   0  0  0  0  0  0  0  0  0  0  0  0
    2.0000   -0.2692    0.0000 H   0  0  0  0  0  0  0  0  0  0  0  0
    8.1845    1.8718    0.0000 H   0  0  0  0  0  0  0  0  0  0  0  0
    6.4082    2.8918    0.0000 H   0  0  0  0  0  0  0  0  0  0  0  0
    9.2723    0.5206    0.0000 H   0  0  0  0  0  0  0  0  0  0  0  0
    9.3441    2.5573    0.0000 H   0  0  0  0  0  0  0  0  0  0  0  0
   10.1201    0.7443    0.0000 H   0  0  0  0  0  0  0  0  0  0  0  0
    9.8964    1.5921    0.0000 H   0  0  0  0  0  0  0  0  0  0  0  0
    8.7265    3.1797    0.0000 H   0  0  0  0  0  0  0  0  0  0  0  0
    8.1041    2.5621    0.0000 H   0  0  0  0  0  0  0  0  0  0  0  0
  1  9  1  0  0  0  0
  1 44  1  0  0  0  0
  2 19  1  0  0  0  0
  2 46  1  0  0  0  0
  3  5  1  0  0  0  0
  3  8  1  0  0  0  0
  3 23  1  0  0  0  0
  4  3  1  1  0  0  0
  4  6  1  0  0  0  0
  4 10  1  0  0  0  0
  4 12  1  0  0  0  0
  5  7  1  0  0  0  0
  5 13  1  0  0  0  0
  5 14  1  0  0  0  0
  6  9  1  0  0  0  0
  6 24  1  0  0  0  0
  6 25  1  0  0  0  0
  7  9  1  0  0  0  0
  7 26  1  0  0  0  0
  7 27  1  0  0  0  0
  8 11  1  0  0  0  0
  8 28  1  0  0  0  0
  8 29  1  0  0  0  0
  9 30  1  0  0  0  0
 10 15  1  0  0  0  0
 10 16  2  0  0  0  0
 11 15  1  0  0  0  0
 11 31  1  0  0  0  0
 11 32  1  0  0  0  0
 12 33  1  0  0  0  0
 12 34  1  0  0  0  0
 12 35  1  0  0  0  0
 13 36  1  0  0  0  0
 13 37  1  0  0  0  0
 13 38  1  0  0  0  0
 14 39  1  0  0  0  0
 14 40  1  0  0  0  0
 14 41  1  0  0  0  0
 15 17  2  0  0  0  0
 16 19  1  0  0  0  0
 16 42  1  0  0  0  0
 17 18  1  0  0  0  0
 17 43  1  0  0  0  0
 18 19  2  0  0  0  0
 18 20  1  0  0  0  0
 20 21  1  0  0  0  0
 20 22  1  0  0  0  0
 20 45  1  0  0  0  0
 21 47  1  0  0  0  0
 21 49  1  0  0  0  0
 21 50  1  0  0  0  0
 22 48  1  0  0  0  0
 22 51  1  0  0  0  0
 22 52  1  0  0  0  0
M  END
>  <PUBCHEM_COMPOUND_CID>
5321088

>  <PUBCHEM_COMPOUND_CANONICALIZED>
1

>  <PUBCHEM_CACTVS_COMPLEXITY>
416

>  <PUBCHEM_CACTVS_HBOND_ACCEPTOR>
2

>  <PUBCHEM_CACTVS_HBOND_DONOR>
2

>  <PUBCHEM_CACTVS_ROTATABLE_BOND>
1

>  <PUBCHEM_CACTVS_SUBSKEYS>
AAADceB4MAAAAAAAAAAAAAAAAAAAAAAAAAAwYMAAAAAAAADBAAAAGgAACAAADxSgmAIyBoAAAgCAAiBCAAACAAAgIAAAiAAGCIgINiKCERKAcAAkwBEImAeAwPAP4AADAAAYAADAAAYAADAAAAAAAAAAAA==

>  <PUBCHEM_IUPAC_OPENEYE_NAME>
(4aS)-7-isopropyl-1,1,4a-trimethyl-2,3,4,9,10,10a-hexahydrophenanthrene-3,6-diol

>  <PUBCHEM_IUPAC_CAS_NAME>
(4aS)-1,1,4a-trimethyl-7-propan-2-yl-2,3,4,9,10,10a-hexahydrophenanthrene-3,6-diol

>  <PUBCHEM_IUPAC_NAME>
(4aS)-1,1,4a-trimethyl-7-propan-2-yl-2,3,4,9,10,10a-hexahydrophenanthrene-3,6-diol

>  <PUBCHEM_IUPAC_SYSTEMATIC_NAME>
(4aS)-1,1,4a-trimethyl-7-propan-2-yl-2,3,4,9,10,10a-hexahydrophenanthrene-3,6-diol

>  <PUBCHEM_IUPAC_TRADITIONAL_NAME>
(4aS)-7-isopropyl-1,1,4a-trimethyl-2,3,4,9,10,10a-hexahydrophenanthrene-3,6-diol

>  <PUBCHEM_IUPAC_INCHI>
InChI=1S/C20H30O2/c1-12(2)15-8-13-6-7-18-19(3,4)10-14(21)11-20(18,5)16(13)9-17(15)22/h8-9,12,14,18,21-22H,6-7,10-11H2,1-5H3/t14?,18?,20-/m1/s1

>  <PUBCHEM_IUPAC_INCHIKEY>
PRYXPGFZVGZNBL-FPMRRHDISA-N

>  <PUBCHEM_XLOGP3_AA>
5.2

>  <PUBCHEM_EXACT_MASS>
302.225

>  <PUBCHEM_MOLECULAR_FORMULA>
C20H30O2

>  <PUBCHEM_MOLECULAR_WEIGHT>
302.458

>  <PUBCHEM_OPENEYE_CAN_SMILES>
CC(C)C1=C(C=C2C(=C1)CCC3C2(CC(CC3(C)C)O)C)O

>  <PUBCHEM_OPENEYE_ISO_SMILES>
CC(C)C1=C(C=C2C(=C1)CCC3[C@@]2(CC(CC3(C)C)O)C)O

>  <PUBCHEM_CACTVS_TPSA>
40.5

>  <PUBCHEM_MONOISOTOPIC_WEIGHT>
302.225

>  <PUBCHEM_TOTAL_CHARGE>
0

>  <PUBCHEM_HEAVY_ATOM_COUNT>
22

>  <PUBCHEM_ATOM_DEF_STEREO_COUNT>
1

>  <PUBCHEM_ATOM_UDEF_STEREO_COUNT>
2

>  <PUBCHEM_BOND_DEF_STEREO_COUNT>
0

>  <PUBCHEM_BOND_UDEF_STEREO_COUNT>
0

>  <PUBCHEM_ISOTOPIC_ATOM_COUNT>
0

>  <PUBCHEM_COMPONENT_COUNT>
1

>  <PUBCHEM_CACTVS_TAUTO_COUNT>
3

>  <PUBCHEM_COORDINATE_TYPE>
1
5
255

>  <PUBCHEM_BONDANNOTATIONS>
9  1  3
10  15  8
10  16  8
15  17  8
16  19  8
17  18  8
18  19  8
3  8  3
4  12  5

$$$$
