5324358
 OpenBabel06101807152D

 56 58  0  0  0  0  0  0  0  0999 V2000
    6.0682   -0.5328    0.0000 O   0  0  0  0  0  0  0  0  0  0  0  0
    8.6663   -0.0328    0.0000 O   0  0  0  0  0  0  0  0  0  0  0  0
    2.5381   -0.5569    0.0000 O   0  0  0  0  0  0  0  0  0  0  0  0
   10.3984    2.9672    0.0000 O   0  0  0  0  0  0  0  0  0  0  0  0
    7.8003   -0.5328    0.0000 O   0  0  0  0  0  0  0  0  0  0  0  0
    5.2022   -0.0328    0.0000 C   0  0  0  0  0  0  0  0  0  0  0  0
    5.2022    0.9672    0.0000 C   0  0  0  0  0  0  0  0  0  0  0  0
    4.3083   -0.5674    0.0000 C   0  0  0  0  0  0  0  0  0  0  0  0
    6.9343    0.9672    0.0000 C   0  0  0  0  0  0  0  0  0  0  0  0
    7.8003    1.4672    0.0000 C   0  0  0  0  0  0  0  0  0  0  0  0
    6.0682    1.4672    0.0000 C   0  0  0  0  0  0  0  0  0  0  0  0
    9.5323    1.4672    0.0000 C   0  0  0  0  0  0  0  0  0  0  0  0
    4.3198   -1.5674    0.0000 C   0  0  0  0  0  0  0  0  0  0  0  0
    8.6663    0.9672    0.0000 C   0  0  0  0  0  0  0  0  0  0  0  0
    3.4022   -0.0536    0.0000 C   0  0  0  0  0  0  0  0  0  0  0  0
    4.3083    1.5019    0.0000 C   0  0  0  0  0  0  0  0  0  0  0  0
   10.3984    0.9672    0.0000 C   0  0  0  0  0  0  0  0  0  0  0  0
    6.9343   -0.0328    0.0000 C   0  0  0  0  0  0  0  0  0  0  0  0
    7.8003    2.4672    0.0000 C   0  0  0  0  0  0  0  0  0  0  0  0
    9.5323    2.4672    0.0000 C   0  0  0  0  0  0  0  0  0  0  0  0
    3.4022    0.9881    0.0000 C   0  0  0  0  0  0  0  0  0  0  0  0
    8.6663    2.9672    0.0000 C   0  0  0  0  0  0  0  0  0  0  0  0
    3.4597   -2.0773    0.0000 C   0  0  0  0  0  0  0  0  0  0  0  0
   11.2644    1.4672    0.0000 C   0  0  0  0  0  0  0  0  0  0  0  0
    3.4712   -3.0773    0.0000 C   0  0  0  0  0  0  0  0  0  0  0  0
   12.1304    0.9672    0.0000 C   0  0  0  0  0  0  0  0  0  0  0  0
    2.6110   -3.5872    0.0000 C   0  0  0  0  0  0  0  0  0  0  0  0
    4.3430   -3.5672    0.0000 C   0  0  0  0  0  0  0  0  0  0  0  0
   12.9965    1.4672    0.0000 C   0  0  0  0  0  0  0  0  0  0  0  0
   12.1304   -0.0328    0.0000 C   0  0  0  0  0  0  0  0  0  0  0  0
    6.0682    2.0872    0.0000 H   0  0  0  0  0  0  0  0  0  0  0  0
    4.5386   -2.1475    0.0000 H   0  0  0  0  0  0  0  0  0  0  0  0
    4.9291   -1.4526    0.0000 H   0  0  0  0  0  0  0  0  0  0  0  0
    4.3154    2.1219    0.0000 H   0  0  0  0  0  0  0  0  0  0  0  0
    9.9998    0.4923    0.0000 H   0  0  0  0  0  0  0  0  0  0  0  0
   10.7969    0.4923    0.0000 H   0  0  0  0  0  0  0  0  0  0  0  0
    7.2634    2.7772    0.0000 H   0  0  0  0  0  0  0  0  0  0  0  0
    2.8665    1.3001    0.0000 H   0  0  0  0  0  0  0  0  0  0  0  0
    8.6663    3.5872    0.0000 H   0  0  0  0  0  0  0  0  0  0  0  0
    2.9192   -1.7736    0.0000 H   0  0  0  0  0  0  0  0  0  0  0  0
   11.2644    2.0872    0.0000 H   0  0  0  0  0  0  0  0  0  0  0  0
    9.2033   -0.3428    0.0000 H   0  0  0  0  0  0  0  0  0  0  0  0
    2.0000   -0.2490    0.0000 H   0  0  0  0  0  0  0  0  0  0  0  0
    4.0392   -4.1077    0.0000 H   0  0  0  0  0  0  0  0  0  0  0  0
    4.8835   -3.8710    0.0000 H   0  0  0  0  0  0  0  0  0  0  0  0
    2.2948   -3.0539    0.0000 H   0  0  0  0  0  0  0  0  0  0  0  0
    2.0777   -3.9034    0.0000 H   0  0  0  0  0  0  0  0  0  0  0  0
    2.9272   -4.1206    0.0000 H   0  0  0  0  0  0  0  0  0  0  0  0
    4.6468   -3.0267    0.0000 H   0  0  0  0  0  0  0  0  0  0  0  0
   10.3984    3.5872    0.0000 H   0  0  0  0  0  0  0  0  0  0  0  0
   13.3065    0.9303    0.0000 H   0  0  0  0  0  0  0  0  0  0  0  0
   13.5334    1.7772    0.0000 H   0  0  0  0  0  0  0  0  0  0  0  0
   12.6865    2.0042    0.0000 H   0  0  0  0  0  0  0  0  0  0  0  0
   11.5104   -0.0328    0.0000 H   0  0  0  0  0  0  0  0  0  0  0  0
   12.1304   -0.6528    0.0000 H   0  0  0  0  0  0  0  0  0  0  0  0
   12.7504   -0.0328    0.0000 H   0  0  0  0  0  0  0  0  0  0  0  0
  1  6  1  0  0  0  0
  1 18  1  0  0  0  0
  2 14  1  0  0  0  0
  2 42  1  0  0  0  0
  3 15  1  0  0  0  0
  3 43  1  0  0  0  0
  4 20  1  0  0  0  0
  4 50  1  0  0  0  0
  5 18  2  0  0  0  0
  6  7  2  0  0  0  0
  6  8  1  0  0  0  0
  7 11  1  0  0  0  0
  7 16  1  0  0  0  0
  8 13  1  0  0  0  0
  8 15  2  0  0  0  0
  9 10  1  0  0  0  0
  9 11  2  0  0  0  0
  9 18  1  0  0  0  0
 10 14  2  0  0  0  0
 10 19  1  0  0  0  0
 11 31  1  0  0  0  0
 12 14  1  0  0  0  0
 12 17  1  0  0  0  0
 12 20  2  0  0  0  0
 13 23  1  0  0  0  0
 13 32  1  0  0  0  0
 13 33  1  0  0  0  0
 15 21  1  0  0  0  0
 16 21  2  0  0  0  0
 16 34  1  0  0  0  0
 17 24  1  0  0  0  0
 17 35  1  0  0  0  0
 17 36  1  0  0  0  0
 19 22  2  0  0  0  0
 19 37  1  0  0  0  0
 20 22  1  0  0  0  0
 21 38  1  0  0  0  0
 22 39  1  0  0  0  0
 23 25  2  0  0  0  0
 23 40  1  0  0  0  0
 24 26  2  0  0  0  0
 24 41  1  0  0  0  0
 25 27  1  0  0  0  0
 25 28  1  0  0  0  0
 26 29  1  0  0  0  0
 26 30  1  0  0  0  0
 27 46  1  0  0  0  0
 27 47  1  0  0  0  0
 27 48  1  0  0  0  0
 28 44  1  0  0  0  0
 28 45  1  0  0  0  0
 28 49  1  0  0  0  0
 29 51  1  0  0  0  0
 29 52  1  0  0  0  0
 29 53  1  0  0  0  0
 30 54  1  0  0  0  0
 30 55  1  0  0  0  0
 30 56  1  0  0  0  0
M  END
>  <PUBCHEM_COMPOUND_CID>
5324358

>  <PUBCHEM_COMPOUND_CANONICALIZED>
1

>  <PUBCHEM_CACTVS_COMPLEXITY>
713

>  <PUBCHEM_CACTVS_HBOND_ACCEPTOR>
5

>  <PUBCHEM_CACTVS_HBOND_DONOR>
3

>  <PUBCHEM_CACTVS_ROTATABLE_BOND>
5

>  <PUBCHEM_CACTVS_SUBSKEYS>
AAADceB4OAAAAAAAAAAAAAAAAAAAAAAAAAAwYIAAAAAAAACBQAAAGgAACAAADASAmAAyDoAABgCIAiDSCAACCAAgIAAIiAEGCMgMJzKGNRqCeiClwBUIuYfK6PyOIAACCAAIAABAAAQQABAAAAAAAAAAAA==

>  <PUBCHEM_IUPAC_OPENEYE_NAME>
3-[2,4-dihydroxy-3-(3-methylbut-2-enyl)phenyl]-7-hydroxy-8-(3-methylbut-2-enyl)chromen-2-one

>  <PUBCHEM_IUPAC_CAS_NAME>
3-[2,4-dihydroxy-3-(3-methylbut-2-enyl)phenyl]-7-hydroxy-8-(3-methylbut-2-enyl)-1-benzopyran-2-one

>  <PUBCHEM_IUPAC_NAME>
3-[2,4-dihydroxy-3-(3-methylbut-2-enyl)phenyl]-7-hydroxy-8-(3-methylbut-2-enyl)chromen-2-one

>  <PUBCHEM_IUPAC_SYSTEMATIC_NAME>
8-(3-methylbut-2-enyl)-3-[3-(3-methylbut-2-enyl)-2,4-bis(oxidanyl)phenyl]-7-oxidanyl-chromen-2-one

>  <PUBCHEM_IUPAC_TRADITIONAL_NAME>
3-[2,4-dihydroxy-3-(3-methylbut-2-enyl)phenyl]-7-hydroxy-8-(3-methylbut-2-enyl)coumarin

>  <PUBCHEM_IUPAC_INCHI>
InChI=1S/C25H26O5/c1-14(2)5-8-18-21(26)12-10-17(23(18)28)20-13-16-7-11-22(27)19(9-6-15(3)4)24(16)30-25(20)29/h5-7,10-13,26-28H,8-9H2,1-4H3

>  <PUBCHEM_IUPAC_INCHIKEY>
UAGJZOLUSRCDEP-UHFFFAOYSA-N

>  <PUBCHEM_XLOGP3_AA>
6.3

>  <PUBCHEM_EXACT_MASS>
406.178

>  <PUBCHEM_MOLECULAR_FORMULA>
C25H26O5

>  <PUBCHEM_MOLECULAR_WEIGHT>
406.478

>  <PUBCHEM_OPENEYE_CAN_SMILES>
CC(=CCC1=C(C=CC(=C1O)C2=CC3=C(C(=C(C=C3)O)CC=C(C)C)OC2=O)O)C

>  <PUBCHEM_OPENEYE_ISO_SMILES>
CC(=CCC1=C(C=CC(=C1O)C2=CC3=C(C(=C(C=C3)O)CC=C(C)C)OC2=O)O)C

>  <PUBCHEM_CACTVS_TPSA>
87

>  <PUBCHEM_MONOISOTOPIC_WEIGHT>
406.178

>  <PUBCHEM_TOTAL_CHARGE>
0

>  <PUBCHEM_HEAVY_ATOM_COUNT>
30

>  <PUBCHEM_ATOM_DEF_STEREO_COUNT>
0

>  <PUBCHEM_ATOM_UDEF_STEREO_COUNT>
0

>  <PUBCHEM_BOND_DEF_STEREO_COUNT>
0

>  <PUBCHEM_BOND_UDEF_STEREO_COUNT>
0

>  <PUBCHEM_ISOTOPIC_ATOM_COUNT>
0

>  <PUBCHEM_COMPONENT_COUNT>
1

>  <PUBCHEM_CACTVS_TAUTO_COUNT>
400

>  <PUBCHEM_COORDINATE_TYPE>
1
5
255

>  <PUBCHEM_BONDANNOTATIONS>
1  18  8
1  6  8
10  14  8
10  19  8
12  14  8
12  20  8
15  21  8
16  21  8
19  22  8
20  22  8
6  7  8
6  8  8
7  11  8
7  16  8
8  15  8
9  11  8
9  18  8

$$$$
