5324513
 OpenBabel06101807152D

 57 61  0  0  1  0  0  0  0  0999 V2000
    5.1350   -0.8864    0.0000 O   0  0  0  0  0  0  0  0  0  0  0  0
    6.8671   -0.8864    0.0000 O   0  0  0  0  0  0  0  0  0  0  0  0
    5.1350   -3.8864    0.0000 O   0  0  0  0  0  0  0  0  0  0  0  0
    3.4030   -2.8864    0.0000 O   0  0  0  0  0  0  0  0  0  0  0  0
    6.8671   -2.8864    0.0000 O   0  0  0  0  0  0  0  0  0  0  0  0
    2.5369   -1.3864    0.0000 O   0  0  0  0  0  0  0  0  0  0  0  0
    9.1374    0.4720    0.0000 O   0  3  0  0  0  0  0  0  0  0  0  0
    6.4568    2.6934    0.0000 O   0  0  0  0  0  0  0  0  0  0  0  0
    9.7742    3.9443    0.0000 O   0  0  0  0  0  0  0  0  0  0  0  0
    4.4907    3.0045    0.0000 O   0  0  0  0  0  0  0  0  0  0  0  0
    4.2236    1.2933    0.0000 O   0  0  0  0  0  0  0  0  0  0  0  0
    9.8627   -4.0528    0.0000 O   0  0  0  0  0  0  0  0  0  0  0  0
    5.1350   -2.8864    0.0000 C   0  0  1  0  0  0  0  0  0  0  0  0
    4.2690   -2.3864    0.0000 C   0  0  1  0  0  0  0  0  0  0  0  0
    6.0010   -2.3864    0.0000 C   0  0  2  0  0  0  0  0  0  0  0  0
    4.2690   -1.3864    0.0000 C   0  0  1  0  0  0  0  0  0  0  0  0
    6.0010   -1.3864    0.0000 C   0  0  1  0  0  0  0  0  0  0  0  0
    3.4030   -0.8864    0.0000 C   0  0  0  0  0  0  0  0  0  0  0  0
    7.5098   -0.1204    0.0000 C   0  0  0  0  0  0  0  0  0  0  0  0
    7.1678    0.8193    0.0000 C   0  0  0  0  0  0  0  0  0  0  0  0
    7.8106    1.5854    0.0000 C   0  0  0  0  0  0  0  0  0  0  0  0
    8.4947   -0.2940    0.0000 C   0  0  0  0  0  0  0  0  0  0  0  0
    8.7954    1.4117    0.0000 C   0  0  0  0  0  0  0  0  0  0  0  0
    7.4393    2.5586    0.0000 C   0  0  0  0  0  0  0  0  0  0  0  0
    6.1910    0.9903    0.0000 C   0  0  0  0  0  0  0  0  0  0  0  0
    8.8367   -1.2337    0.0000 C   0  0  0  0  0  0  0  0  0  0  0  0
    9.4772    2.1992    0.0000 C   0  0  0  0  0  0  0  0  0  0  0  0
    5.8392    1.9175    0.0000 C   0  0  0  0  0  0  0  0  0  0  0  0
    8.1027    3.3616    0.0000 C   0  0  0  0  0  0  0  0  0  0  0  0
    9.1285    3.1808    0.0000 C   0  0  0  0  0  0  0  0  0  0  0  0
    9.8215   -1.4074    0.0000 C   0  0  0  0  0  0  0  0  0  0  0  0
    8.1939   -1.9998    0.0000 C   0  0  0  0  0  0  0  0  0  0  0  0
    4.8512    2.0717    0.0000 C   0  0  0  0  0  0  0  0  0  0  0  0
   10.1635   -2.3471    0.0000 C   0  0  0  0  0  0  0  0  0  0  0  0
    8.5359   -2.9395    0.0000 C   0  0  0  0  0  0  0  0  0  0  0  0
    9.5207   -3.1131    0.0000 C   0  0  0  0  0  0  0  0  0  0  0  0
    5.6720   -3.1964    0.0000 H   0  0  0  0  0  0  0  0  0  0  0  0
    4.2690   -3.0064    0.0000 H   0  0  0  0  0  0  0  0  0  0  0  0
    6.5380   -2.0764    0.0000 H   0  0  0  0  0  0  0  0  0  0  0  0
    4.2690   -0.7664    0.0000 H   0  0  0  0  0  0  0  0  0  0  0  0
    6.0010   -0.7664    0.0000 H   0  0  0  0  0  0  0  0  0  0  0  0
    3.8015   -0.4115    0.0000 H   0  0  0  0  0  0  0  0  0  0  0  0
    3.0044   -0.4115    0.0000 H   0  0  0  0  0  0  0  0  0  0  0  0
    4.5981   -4.1964    0.0000 H   0  0  0  0  0  0  0  0  0  0  0  0
    3.4030   -3.5064    0.0000 H   0  0  0  0  0  0  0  0  0  0  0  0
    6.8671   -3.5064    0.0000 H   0  0  0  0  0  0  0  0  0  0  0  0
    2.0000   -1.0764    0.0000 H   0  0  0  0  0  0  0  0  0  0  0  0
    5.7960    0.5124    0.0000 H   0  0  0  0  0  0  0  0  0  0  0  0
   10.0865    2.0845    0.0000 H   0  0  0  0  0  0  0  0  0  0  0  0
    7.8884    3.9434    0.0000 H   0  0  0  0  0  0  0  0  0  0  0  0
   10.2200   -0.9324    0.0000 H   0  0  0  0  0  0  0  0  0  0  0  0
    7.5833   -1.8921    0.0000 H   0  0  0  0  0  0  0  0  0  0  0  0
   10.7741   -2.4547    0.0000 H   0  0  0  0  0  0  0  0  0  0  0  0
    8.1374   -3.4144    0.0000 H   0  0  0  0  0  0  0  0  0  0  0  0
    9.5644    4.5277    0.0000 H   0  0  0  0  0  0  0  0  0  0  0  0
    3.8781    3.1001    0.0000 H   0  0  0  0  0  0  0  0  0  0  0  0
    9.4642   -4.5277    0.0000 H   0  0  0  0  0  0  0  0  0  0  0  0
  1 16  1  0  0  0  0
  1 17  1  0  0  0  0
  2 19  1  0  0  0  0
  3 44  1  0  0  0  0
  4 45  1  0  0  0  0
  5 46  1  0  0  0  0
  6 18  1  0  0  0  0
  6 47  1  0  0  0  0
  7 22  2  0  0  0  0
  7 23  1  0  0  0  0
  8 24  1  0  0  0  0
  8 28  1  0  0  0  0
  9 30  1  0  0  0  0
  9 55  1  0  0  0  0
 10 33  1  0  0  0  0
 10 56  1  0  0  0  0
 11 33  2  0  0  0  0
 12 36  1  0  0  0  0
 12 57  1  0  0  0  0
 13  3  1  0  0  0  0
 13 14  1  6  0  0  0
 13 37  1  0  0  0  0
 14  4  1  0  0  0  0
 14 16  1  1  0  0  0
 14 38  1  0  0  0  0
 15  5  1  0  0  0  0
 15 13  1  1  0  0  0
 15 39  1  0  0  0  0
 16 18  1  0  0  0  0
 16 40  1  6  0  0  0
 17  2  1  0  0  0  0
 17 15  1  6  0  0  0
 17 41  1  0  0  0  0
 18 42  1  0  0  0  0
 18 43  1  0  0  0  0
 19 20  2  0  0  0  0
 19 22  1  0  0  0  0
 20 21  1  0  0  0  0
 20 25  1  0  0  0  0
 21 23  1  0  0  0  0
 21 24  2  0  0  0  0
 22 26  1  0  0  0  0
 23 27  2  0  0  0  0
 24 29  1  0  0  0  0
 25 28  2  0  0  0  0
 25 48  1  0  0  0  0
 26 31  2  0  0  0  0
 26 32  1  0  0  0  0
 27 30  1  0  0  0  0
 27 49  1  0  0  0  0
 28 33  1  0  0  0  0
 29 30  2  0  0  0  0
 29 50  1  0  0  0  0
 31 34  1  0  0  0  0
 31 51  1  0  0  0  0
 32 35  2  0  0  0  0
 32 52  1  0  0  0  0
 34 36  2  0  0  0  0
 34 53  1  0  0  0  0
 35 36  1  0  0  0  0
 35 54  1  0  0  0  0
M  CHG  1   7   1
M  END
>  <PUBCHEM_COMPOUND_CID>
5324513

>  <PUBCHEM_COMPOUND_CANONICALIZED>
1

>  <PUBCHEM_CACTVS_COMPLEXITY>
828

>  <PUBCHEM_CACTVS_HBOND_ACCEPTOR>
11

>  <PUBCHEM_CACTVS_HBOND_DONOR>
7

>  <PUBCHEM_CACTVS_ROTATABLE_BOND>
5

>  <PUBCHEM_CACTVS_SUBSKEYS>
AAADceB4PAAAAAAAAAAAAAAAAAAAAAAAAAA0aIECAAAAAACR9AAAGgAACAAADBSwmAMwDsAABkCIAqDSCAICCAAkIAAIiAFGiMgdNzaGNR6ieWKl4BUPuYfK7PzOoAAACAAIAABAAAAQABAAAAAAAAAAAA==

>  <PUBCHEM_IUPAC_INCHI>
InChI=1S/C24H20O12/c25-8-16-18(28)19(29)20(30)24(35-16)36-22-12-7-15(23(31)32)33-13-5-11(27)6-14(17(12)13)34-21(22)9-1-3-10(26)4-2-9/h1-7,16,18-20,24-25,28-30H,8H2,(H2-,26,27,31,32)/p+1/t16-,18-,19+,20-,24+/m1/s1

>  <PUBCHEM_IUPAC_INCHIKEY>
AXDSYHMPWOHFSW-KXJGTOPRSA-O

>  <PUBCHEM_EXACT_MASS>
501.103

>  <PUBCHEM_MOLECULAR_FORMULA>
C24H21O12+

>  <PUBCHEM_MOLECULAR_WEIGHT>
501.42

>  <PUBCHEM_OPENEYE_CAN_SMILES>
C1=CC(=CC=C1C2=[O+]C3=CC(=CC4=C3C(=C2OC5C(C(C(C(O5)CO)O)O)O)C=C(O4)C(=O)O)O)O

>  <PUBCHEM_OPENEYE_ISO_SMILES>
C1=CC(=CC=C1C2=[O+]C3=CC(=CC4=C3C(=C2O[C@H]5[C@@H]([C@H]([C@@H]([C@H](O5)CO)O)O)O)C=C(O4)C(=O)O)O)O

>  <PUBCHEM_CACTVS_TPSA>
187

>  <PUBCHEM_MONOISOTOPIC_WEIGHT>
501.103

>  <PUBCHEM_TOTAL_CHARGE>
1

>  <PUBCHEM_HEAVY_ATOM_COUNT>
36

>  <PUBCHEM_ATOM_DEF_STEREO_COUNT>
5

>  <PUBCHEM_ATOM_UDEF_STEREO_COUNT>
0

>  <PUBCHEM_BOND_DEF_STEREO_COUNT>
0

>  <PUBCHEM_BOND_UDEF_STEREO_COUNT>
0

>  <PUBCHEM_ISOTOPIC_ATOM_COUNT>
0

>  <PUBCHEM_COMPONENT_COUNT>
1

>  <PUBCHEM_CACTVS_TAUTO_COUNT>
21

>  <PUBCHEM_COORDINATE_TYPE>
1
5
255

>  <PUBCHEM_BONDANNOTATIONS>
16  18  5
19  20  8
19  22  8
17  2  5
20  21  8
21  23  8
21  24  8
23  27  8
24  29  8
26  31  8
26  32  8
27  30  8
29  30  8
13  3  5
31  34  8
32  35  8
34  36  8
35  36  8
14  4  6
15  5  6
7  22  8
7  23  8

$$$$
