53438738
 OpenBabel06101807152D

 32 34  0  0  0  0  0  0  0  0999 V2000
    3.7817    1.1060    0.0000 O   0  0  0  0  0  0  0  0  0  0  0  0
    2.0000   -1.9527    0.0000 O   0  0  0  0  0  0  0  0  0  0  0  0
    6.4082    2.6407    0.0000 O   0  0  0  0  0  0  0  0  0  0  0  0
    5.5301   -1.9286    0.0000 C   0  0  0  0  0  0  0  0  0  0  0  0
    6.3961   -1.4286    0.0000 C   0  0  0  0  0  0  0  0  0  0  0  0
    4.6641   -1.4286    0.0000 C   0  0  0  0  0  0  0  0  0  0  0  0
    4.6641   -0.4286    0.0000 C   0  0  0  0  0  0  0  0  0  0  0  0
    6.3961   -0.4286    0.0000 C   0  0  0  0  0  0  0  0  0  0  0  0
    5.5301    0.0714    0.0000 C   0  0  0  0  0  0  0  0  0  0  0  0
    3.7702   -1.9632    0.0000 C   0  0  0  0  0  0  0  0  0  0  0  0
    3.7702    0.1061    0.0000 C   0  0  0  0  0  0  0  0  0  0  0  0
    7.3062    0.0783    0.0000 C   0  0  0  0  0  0  0  0  0  0  0  0
    5.5141    1.1129    0.0000 C   0  0  0  0  0  0  0  0  0  0  0  0
    2.8641   -1.4494    0.0000 C   0  0  0  0  0  0  0  0  0  0  0  0
    2.8641   -0.4078    0.0000 C   0  0  0  0  0  0  0  0  0  0  0  0
    6.4121    1.6407    0.0000 C   0  0  0  0  0  0  0  0  0  0  0  0
    7.3142    1.1199    0.0000 C   0  0  0  0  0  0  0  0  0  0  0  0
    2.0038   -2.9527    0.0000 C   0  0  0  0  0  0  0  0  0  0  0  0
    5.1316   -2.4035    0.0000 H   0  0  0  0  0  0  0  0  0  0  0  0
    5.9286   -2.4035    0.0000 H   0  0  0  0  0  0  0  0  0  0  0  0
    6.6082   -2.0112    0.0000 H   0  0  0  0  0  0  0  0  0  0  0  0
    7.0067   -1.3209    0.0000 H   0  0  0  0  0  0  0  0  0  0  0  0
    3.7773   -2.5832    0.0000 H   0  0  0  0  0  0  0  0  0  0  0  0
    7.8395   -0.2379    0.0000 H   0  0  0  0  0  0  0  0  0  0  0  0
    4.9736    1.4167    0.0000 H   0  0  0  0  0  0  0  0  0  0  0  0
    2.3284   -0.0957    0.0000 H   0  0  0  0  0  0  0  0  0  0  0  0
    7.8523    1.4278    0.0000 H   0  0  0  0  0  0  0  0  0  0  0  0
    3.2484    1.4222    0.0000 H   0  0  0  0  0  0  0  0  0  0  0  0
    6.9440    2.9527    0.0000 H   0  0  0  0  0  0  0  0  0  0  0  0
    1.3839   -2.9551    0.0000 H   0  0  0  0  0  0  0  0  0  0  0  0
    2.0062   -3.5727    0.0000 H   0  0  0  0  0  0  0  0  0  0  0  0
    2.6238   -2.9503    0.0000 H   0  0  0  0  0  0  0  0  0  0  0  0
  1 11  1  0  0  0  0
  1 28  1  0  0  0  0
  2 14  1  0  0  0  0
  2 18  1  0  0  0  0
  3 16  1  0  0  0  0
  3 29  1  0  0  0  0
  4  5  1  0  0  0  0
  4  6  1  0  0  0  0
  4 19  1  0  0  0  0
  4 20  1  0  0  0  0
  5  8  1  0  0  0  0
  5 21  1  0  0  0  0
  5 22  1  0  0  0  0
  6  7  2  0  0  0  0
  6 10  1  0  0  0  0
  7  9  1  0  0  0  0
  7 11  1  0  0  0  0
  8  9  2  0  0  0  0
  8 12  1  0  0  0  0
  9 13  1  0  0  0  0
 10 14  2  0  0  0  0
 10 23  1  0  0  0  0
 11 15  2  0  0  0  0
 12 17  2  0  0  0  0
 12 24  1  0  0  0  0
 13 16  2  0  0  0  0
 13 25  1  0  0  0  0
 14 15  1  0  0  0  0
 15 26  1  0  0  0  0
 16 17  1  0  0  0  0
 17 27  1  0  0  0  0
 18 30  1  0  0  0  0
 18 31  1  0  0  0  0
 18 32  1  0  0  0  0
M  END
>  <PUBCHEM_COMPOUND_CID>
53438738

>  <PUBCHEM_COMPOUND_CANONICALIZED>
1

>  <PUBCHEM_CACTVS_COMPLEXITY>
294

>  <PUBCHEM_CACTVS_HBOND_ACCEPTOR>
3

>  <PUBCHEM_CACTVS_HBOND_DONOR>
2

>  <PUBCHEM_CACTVS_ROTATABLE_BOND>
1

>  <PUBCHEM_CACTVS_SUBSKEYS>
AAADccBwMAAAAAAAAAAAAAAAAAAAAAAAAAAwYMAAAAAAAADBQAAAGgAACAAADASAmAIyBoAABgCAAiBCAAACCAAgIAAIiAAGCIgMJyKGMRqAcCAlwBUIuAeA4PwOoAABCAAYAADAAAYQADAAAAAAAAAAAA==

>  <PUBCHEM_IUPAC_OPENEYE_NAME>
7-methoxy-9,10-dihydrophenanthrene-3,5-diol

>  <PUBCHEM_IUPAC_CAS_NAME>
7-methoxy-9,10-dihydrophenanthrene-3,5-diol

>  <PUBCHEM_IUPAC_NAME>
7-methoxy-9,10-dihydrophenanthrene-3,5-diol

>  <PUBCHEM_IUPAC_SYSTEMATIC_NAME>
7-methoxy-9,10-dihydrophenanthrene-3,5-diol

>  <PUBCHEM_IUPAC_TRADITIONAL_NAME>
7-methoxy-9,10-dihydrophenanthrene-3,5-diol

>  <PUBCHEM_IUPAC_INCHI>
InChI=1S/C15H14O3/c1-18-12-6-10-3-2-9-4-5-11(16)7-13(9)15(10)14(17)8-12/h4-8,16-17H,2-3H2,1H3

>  <PUBCHEM_IUPAC_INCHIKEY>
PLHFLFWGPBWZHL-UHFFFAOYSA-N

>  <PUBCHEM_XLOGP3_AA>
3.1

>  <PUBCHEM_EXACT_MASS>
242.094

>  <PUBCHEM_MOLECULAR_FORMULA>
C15H14O3

>  <PUBCHEM_MOLECULAR_WEIGHT>
242.274

>  <PUBCHEM_OPENEYE_CAN_SMILES>
COC1=CC(=C2C(=C1)CCC3=C2C=C(C=C3)O)O

>  <PUBCHEM_OPENEYE_ISO_SMILES>
COC1=CC(=C2C(=C1)CCC3=C2C=C(C=C3)O)O

>  <PUBCHEM_CACTVS_TPSA>
49.7

>  <PUBCHEM_MONOISOTOPIC_WEIGHT>
242.094

>  <PUBCHEM_TOTAL_CHARGE>
0

>  <PUBCHEM_HEAVY_ATOM_COUNT>
18

>  <PUBCHEM_ATOM_DEF_STEREO_COUNT>
0

>  <PUBCHEM_ATOM_UDEF_STEREO_COUNT>
0

>  <PUBCHEM_BOND_DEF_STEREO_COUNT>
0

>  <PUBCHEM_BOND_UDEF_STEREO_COUNT>
0

>  <PUBCHEM_ISOTOPIC_ATOM_COUNT>
0

>  <PUBCHEM_COMPONENT_COUNT>
1

>  <PUBCHEM_CACTVS_TAUTO_COUNT>
56

>  <PUBCHEM_COORDINATE_TYPE>
1
5
255

>  <PUBCHEM_BONDANNOTATIONS>
10  14  8
11  15  8
12  17  8
13  16  8
14  15  8
16  17  8
6  10  8
6  7  8
7  11  8
8  12  8
8  9  8
9  13  8

$$$$
