53465569
 OpenBabel06101807152D

 30 32  0  0  0  0  0  0  0  0999 V2000
    2.9757    1.7493    0.0000 O   0  0  0  0  0  0  0  0  0  0  0  0
    8.9488   -1.5062    0.0000 O   0  0  0  0  0  0  0  0  0  0  0  0
    5.0981    1.1503    0.0000 N   0  0  0  0  0  0  0  0  0  0  0  0
    5.5981   -0.3886    0.0000 C   0  0  0  0  0  0  0  0  0  0  0  0
    4.5981   -0.3886    0.0000 C   0  0  0  0  0  0  0  0  0  0  0  0
    5.9071    0.5625    0.0000 C   0  0  0  0  0  0  0  0  0  0  0  0
    4.2891    0.5625    0.0000 C   0  0  0  0  0  0  0  0  0  0  0  0
    6.2831   -1.1733    0.0000 C   0  0  0  0  0  0  0  0  0  0  0  0
    3.2737    0.7947    0.0000 C   0  0  0  0  0  0  0  0  0  0  0  0
    7.3036   -0.9646    0.0000 C   0  0  0  0  0  0  0  0  0  0  0  0
    6.9225    0.7947    0.0000 C   0  0  0  0  0  0  0  0  0  0  0  0
    3.9131   -1.1733    0.0000 C   0  0  0  0  0  0  0  0  0  0  0  0
    7.6255    0.0261    0.0000 C   0  0  0  0  0  0  0  0  0  0  0  0
    2.5707    0.0261    0.0000 C   0  0  0  0  0  0  0  0  0  0  0  0
    2.8926   -0.9646    0.0000 C   0  0  0  0  0  0  0  0  0  0  0  0
    7.9698   -1.7103    0.0000 C   0  0  0  0  0  0  0  0  0  0  0  0
    2.0000    1.9685    0.0000 C   0  0  0  0  0  0  0  0  0  0  0  0
    5.0981    1.7703    0.0000 H   0  0  0  0  0  0  0  0  0  0  0  0
    6.0847   -1.7607    0.0000 H   0  0  0  0  0  0  0  0  0  0  0  0
    7.1073    1.3866    0.0000 H   0  0  0  0  0  0  0  0  0  0  0  0
    4.1115   -1.7607    0.0000 H   0  0  0  0  0  0  0  0  0  0  0  0
    8.2314    0.1573    0.0000 H   0  0  0  0  0  0  0  0  0  0  0  0
    1.9648    0.1573    0.0000 H   0  0  0  0  0  0  0  0  0  0  0  0
    2.4795   -1.4269    0.0000 H   0  0  0  0  0  0  0  0  0  0  0  0
    7.4428   -2.0368    0.0000 H   0  0  0  0  0  0  0  0  0  0  0  0
    8.1999   -2.2861    0.0000 H   0  0  0  0  0  0  0  0  0  0  0  0
    2.1359    2.5734    0.0000 H   0  0  0  0  0  0  0  0  0  0  0  0
    1.3951    2.1044    0.0000 H   0  0  0  0  0  0  0  0  0  0  0  0
    1.8641    1.3636    0.0000 H   0  0  0  0  0  0  0  0  0  0  0  0
    9.3619   -1.9685    0.0000 H   0  0  0  0  0  0  0  0  0  0  0  0
  1  9  1  0  0  0  0
  1 17  1  0  0  0  0
  2 16  1  0  0  0  0
  2 30  1  0  0  0  0
  3  6  1  0  0  0  0
  3  7  1  0  0  0  0
  3 18  1  0  0  0  0
  4  5  1  0  0  0  0
  4  6  2  0  0  0  0
  4  8  1  0  0  0  0
  5  7  2  0  0  0  0
  5 12  1  0  0  0  0
  6 11  1  0  0  0  0
  7  9  1  0  0  0  0
  8 10  2  0  0  0  0
  8 19  1  0  0  0  0
  9 14  2  0  0  0  0
 10 13  1  0  0  0  0
 10 16  1  0  0  0  0
 11 13  2  0  0  0  0
 11 20  1  0  0  0  0
 12 15  2  0  0  0  0
 12 21  1  0  0  0  0
 13 22  1  0  0  0  0
 14 15  1  0  0  0  0
 14 23  1  0  0  0  0
 15 24  1  0  0  0  0
 16 25  1  0  0  0  0
 16 26  1  0  0  0  0
 17 27  1  0  0  0  0
 17 28  1  0  0  0  0
 17 29  1  0  0  0  0
M  END
>  <PUBCHEM_COMPOUND_CID>
53465569

>  <PUBCHEM_COMPOUND_CANONICALIZED>
1

>  <PUBCHEM_CACTVS_COMPLEXITY>
271

>  <PUBCHEM_CACTVS_HBOND_ACCEPTOR>
2

>  <PUBCHEM_CACTVS_HBOND_DONOR>
2

>  <PUBCHEM_CACTVS_ROTATABLE_BOND>
2

>  <PUBCHEM_CACTVS_SUBSKEYS>
AAADccByMAAAAAAAAAAAAAAAAAAAAWAAAAAwYAAAAAAAAFgB/AAAHgAQCAAADAyhngIyxvLJlgCgAyRiRASCiCAhYiAImSA3bJgONuLEsZuFcChk0BHY+AeQ0PMOiAADAAACEAAQAAYAAAQgAAAAAAAAAA==

>  <PUBCHEM_IUPAC_OPENEYE_NAME>
(8-methoxy-9H-carbazol-3-yl)methanol

>  <PUBCHEM_IUPAC_CAS_NAME>
(8-methoxy-9H-carbazol-3-yl)methanol

>  <PUBCHEM_IUPAC_NAME>
(8-methoxy-9H-carbazol-3-yl)methanol

>  <PUBCHEM_IUPAC_SYSTEMATIC_NAME>
(8-methoxy-9H-carbazol-3-yl)methanol

>  <PUBCHEM_IUPAC_TRADITIONAL_NAME>
(8-methoxy-9H-carbazol-3-yl)methanol

>  <PUBCHEM_IUPAC_INCHI>
InChI=1S/C14H13NO2/c1-17-13-4-2-3-10-11-7-9(8-16)5-6-12(11)15-14(10)13/h2-7,15-16H,8H2,1H3

>  <PUBCHEM_IUPAC_INCHIKEY>
SGZIASPZRSVPDJ-UHFFFAOYSA-N

>  <PUBCHEM_XLOGP3_AA>
2.5

>  <PUBCHEM_EXACT_MASS>
227.095

>  <PUBCHEM_MOLECULAR_FORMULA>
C14H13NO2

>  <PUBCHEM_MOLECULAR_WEIGHT>
227.263

>  <PUBCHEM_OPENEYE_CAN_SMILES>
COC1=CC=CC2=C1NC3=C2C=C(C=C3)CO

>  <PUBCHEM_OPENEYE_ISO_SMILES>
COC1=CC=CC2=C1NC3=C2C=C(C=C3)CO

>  <PUBCHEM_CACTVS_TPSA>
45.2

>  <PUBCHEM_MONOISOTOPIC_WEIGHT>
227.095

>  <PUBCHEM_TOTAL_CHARGE>
0

>  <PUBCHEM_HEAVY_ATOM_COUNT>
17

>  <PUBCHEM_ATOM_DEF_STEREO_COUNT>
0

>  <PUBCHEM_ATOM_UDEF_STEREO_COUNT>
0

>  <PUBCHEM_BOND_DEF_STEREO_COUNT>
0

>  <PUBCHEM_BOND_UDEF_STEREO_COUNT>
0

>  <PUBCHEM_ISOTOPIC_ATOM_COUNT>
0

>  <PUBCHEM_COMPONENT_COUNT>
1

>  <PUBCHEM_CACTVS_TAUTO_COUNT>
1

>  <PUBCHEM_COORDINATE_TYPE>
1
5
255

>  <PUBCHEM_BONDANNOTATIONS>
10  13  8
11  13  8
12  15  8
14  15  8
3  6  8
3  7  8
4  5  8
4  6  8
4  8  8
5  12  8
5  7  8
6  11  8
7  9  8
8  10  8
9  14  8

$$$$
