53477767
 OpenBabel06101807152D

 77 81  0  0  1  0  0  0  0  0999 V2000
    7.7331    0.4700    0.0000 O   0  0  0  0  0  0  0  0  0  0  0  0
    6.0010   -0.5300    0.0000 O   0  0  0  0  0  0  0  0  0  0  0  0
    4.2690   -0.5300    0.0000 O   0  0  0  0  0  0  0  0  0  0  0  0
    6.0010    2.4700    0.0000 O   0  0  0  0  0  0  0  0  0  0  0  0
    9.4651    0.4700    0.0000 O   0  0  0  0  0  0  0  0  0  0  0  0
    7.7331    3.4700    0.0000 O   0  0  0  0  0  0  0  0  0  0  0  0
    9.4651    2.4700    0.0000 O   0  0  0  0  0  0  0  0  0  0  0  0
    6.0010   -2.5300    0.0000 O   0  0  0  0  0  0  0  0  0  0  0  0
    4.2690   -3.5300    0.0000 O   0  0  0  0  0  0  0  0  0  0  0  0
    2.5369   -2.5300    0.0000 O   0  0  0  0  0  0  0  0  0  0  0  0
   12.9953    0.4805    0.0000 O   0  0  0  0  0  0  0  0  0  0  0  0
   11.2586    3.5218    0.0000 O   0  0  0  0  0  0  0  0  0  0  0  0
   13.0069    3.4805    0.0000 O   0  0  0  0  0  0  0  0  0  0  0  0
   17.3196   -1.0362    0.0000 O   0  0  0  0  0  0  0  0  0  0  0  0
   15.5838   -2.0295    0.0000 O   0  0  0  0  0  0  0  0  0  0  0  0
    6.8671    0.9700    0.0000 C   0  0  1  0  0  0  0  0  0  0  0  0
    6.8671    1.9700    0.0000 C   0  0  1  0  0  0  0  0  0  0  0  0
    7.7331    2.4700    0.0000 C   0  0  1  0  0  0  0  0  0  0  0  0
    8.5991    1.9700    0.0000 C   0  0  2  0  0  0  0  0  0  0  0  0
    5.1350   -2.0300    0.0000 C   0  0  1  0  0  0  0  0  0  0  0  0
    5.1350   -1.0300    0.0000 C   0  0  1  0  0  0  0  0  0  0  0  0
    4.2690   -2.5300    0.0000 C   0  0  1  0  0  0  0  0  0  0  0  0
    3.4030   -2.0300    0.0000 C   0  0  1  0  0  0  0  0  0  0  0  0
    8.5991    0.9700    0.0000 C   0  0  3  0  0  0  0  0  0  0  0  0
    6.0010    0.4700    0.0000 C   0  0  0  0  0  0  0  0  0  0  0  0
    3.4030   -1.0300    0.0000 C   0  0  2  0  0  0  0  0  0  0  0  0
    2.5369   -0.5300    0.0000 C   0  0  0  0  0  0  0  0  0  0  0  0
   10.3312    0.9700    0.0000 C   0  0  0  0  0  0  0  0  0  0  0  0
   11.2352    0.4526    0.0000 C   0  0  0  0  0  0  0  0  0  0  0  0
   12.1312    0.9838    0.0000 C   0  0  0  0  0  0  0  0  0  0  0  0
   10.3352    2.0116    0.0000 C   0  0  0  0  0  0  0  0  0  0  0  0
   12.1351    1.9838    0.0000 C   0  0  0  0  0  0  0  0  0  0  0  0
   13.8633    0.9772    0.0000 C   0  0  1  0  0  0  0  0  0  0  0  0
   13.8671    1.9772    0.0000 C   0  0  0  0  0  0  0  0  0  0  0  0
   11.2432    2.5219    0.0000 C   0  0  0  0  0  0  0  0  0  0  0  0
   13.0030    2.4805    0.0000 C   0  0  0  0  0  0  0  0  0  0  0  0
   14.7274    0.4738    0.0000 C   0  0  0  0  0  0  0  0  0  0  0  0
   14.7235   -0.5262    0.0000 C   0  0  0  0  0  0  0  0  0  0  0  0
   15.5953    0.9705    0.0000 C   0  0  0  0  0  0  0  0  0  0  0  0
   15.5876   -1.0295    0.0000 C   0  0  0  0  0  0  0  0  0  0  0  0
   16.4594    0.4671    0.0000 C   0  0  0  0  0  0  0  0  0  0  0  0
   16.4556   -0.5329    0.0000 C   0  0  0  0  0  0  0  0  0  0  0  0
   18.1876   -0.5395    0.0000 C   0  0  0  0  0  0  0  0  0  0  0  0
    6.8671    0.3500    0.0000 H   0  0  0  0  0  0  0  0  0  0  0  0
    6.3301    1.6600    0.0000 H   0  0  0  0  0  0  0  0  0  0  0  0
    7.1962    2.7800    0.0000 H   0  0  0  0  0  0  0  0  0  0  0  0
    8.5991    2.5900    0.0000 H   0  0  0  0  0  0  0  0  0  0  0  0
    5.1350   -2.6500    0.0000 H   0  0  0  0  0  0  0  0  0  0  0  0
    5.6720   -1.3400    0.0000 H   0  0  0  0  0  0  0  0  0  0  0  0
    3.7320   -2.8401    0.0000 H   0  0  0  0  0  0  0  0  0  0  0  0
    2.8660   -1.7200    0.0000 H   0  0  0  0  0  0  0  0  0  0  0  0
    8.5991    0.3500    0.0000 H   0  0  0  0  0  0  0  0  0  0  0  0
    5.7890    1.0526    0.0000 H   0  0  0  0  0  0  0  0  0  0  0  0
    5.3905    0.3623    0.0000 H   0  0  0  0  0  0  0  0  0  0  0  0
    3.4030   -0.4100    0.0000 H   0  0  0  0  0  0  0  0  0  0  0  0
    2.8469    0.0069    0.0000 H   0  0  0  0  0  0  0  0  0  0  0  0
    2.0000   -0.2200    0.0000 H   0  0  0  0  0  0  0  0  0  0  0  0
    2.2269   -1.0670    0.0000 H   0  0  0  0  0  0  0  0  0  0  0  0
    5.4641    2.1599    0.0000 H   0  0  0  0  0  0  0  0  0  0  0  0
    7.1962    3.7800    0.0000 H   0  0  0  0  0  0  0  0  0  0  0  0
    9.4651    3.0900    0.0000 H   0  0  0  0  0  0  0  0  0  0  0  0
    6.5380   -2.2200    0.0000 H   0  0  0  0  0  0  0  0  0  0  0  0
    3.7320   -3.8400    0.0000 H   0  0  0  0  0  0  0  0  0  0  0  0
    2.0000   -2.2200    0.0000 H   0  0  0  0  0  0  0  0  0  0  0  0
   11.2400   -0.1674    0.0000 H   0  0  0  0  0  0  0  0  0  0  0  0
    9.8006    2.3257    0.0000 H   0  0  0  0  0  0  0  0  0  0  0  0
   14.4014    1.2851    0.0000 H   0  0  0  0  0  0  0  0  0  0  0  0
   14.4773    1.8671    0.0000 H   0  0  0  0  0  0  0  0  0  0  0  0
   14.0814    2.5589    0.0000 H   0  0  0  0  0  0  0  0  0  0  0  0
   14.1854   -0.8341    0.0000 H   0  0  0  0  0  0  0  0  0  0  0  0
   15.5977    1.5905    0.0000 H   0  0  0  0  0  0  0  0  0  0  0  0
   10.7265    3.8400    0.0000 H   0  0  0  0  0  0  0  0  0  0  0  0
   16.9975    0.7751    0.0000 H   0  0  0  0  0  0  0  0  0  0  0  0
   16.1195   -2.3416    0.0000 H   0  0  0  0  0  0  0  0  0  0  0  0
   18.4955   -1.0776    0.0000 H   0  0  0  0  0  0  0  0  0  0  0  0
   18.7257   -0.2316    0.0000 H   0  0  0  0  0  0  0  0  0  0  0  0
   17.8797   -0.0014    0.0000 H   0  0  0  0  0  0  0  0  0  0  0  0
  1 16  1  0  0  0  0
  1 24  1  0  0  0  0
  2 25  1  0  0  0  0
  3 21  1  0  0  0  0
  3 26  1  0  0  0  0
  4 59  1  0  0  0  0
  5 24  1  0  0  0  0
  5 28  1  0  0  0  0
  6 60  1  0  0  0  0
  7 61  1  0  0  0  0
  8 62  1  0  0  0  0
  9 63  1  0  0  0  0
 10 64  1  0  0  0  0
 11 30  1  0  0  0  0
 11 33  1  0  0  0  0
 12 35  1  0  0  0  0
 12 72  1  0  0  0  0
 13 36  2  0  0  0  0
 14 42  1  0  0  0  0
 14 43  1  0  0  0  0
 15 40  1  0  0  0  0
 15 74  1  0  0  0  0
 16 17  1  1  0  0  0
 16 25  1  0  0  0  0
 16 44  1  0  0  0  0
 17  4  1  0  0  0  0
 17 18  1  1  0  0  0
 17 45  1  0  0  0  0
 18  6  1  0  0  0  0
 18 19  1  1  0  0  0
 18 46  1  0  0  0  0
 19  7  1  0  0  0  0
 19 24  1  6  0  0  0
 19 47  1  0  0  0  0
 20  8  1  0  0  0  0
 20 21  1  1  0  0  0
 20 48  1  0  0  0  0
 21  2  1  0  0  0  0
 21 49  1  1  0  0  0
 22  9  1  0  0  0  0
 22 20  1  1  0  0  0
 22 50  1  0  0  0  0
 23 10  1  0  0  0  0
 23 22  1  1  0  0  0
 23 51  1  0  0  0  0
 24 52  1  0  0  0  0
 25 53  1  0  0  0  0
 25 54  1  0  0  0  0
 26 23  1  1  0  0  0
 26 27  1  0  0  0  0
 26 55  1  0  0  0  0
 27 56  1  0  0  0  0
 27 57  1  0  0  0  0
 27 58  1  0  0  0  0
 28 29  1  0  0  0  0
 28 31  2  0  0  0  0
 29 30  2  0  0  0  0
 29 65  1  0  0  0  0
 30 32  1  0  0  0  0
 31 35  1  0  0  0  0
 31 66  1  0  0  0  0
 32 35  2  0  0  0  0
 32 36  1  0  0  0  0
 33 34  1  0  0  0  0
 33 37  1  0  0  0  0
 33 67  1  6  0  0  0
 34 36  1  0  0  0  0
 34 68  1  0  0  0  0
 34 69  1  0  0  0  0
 37 38  2  0  0  0  0
 37 39  1  0  0  0  0
 38 40  1  0  0  0  0
 38 70  1  0  0  0  0
 39 41  2  0  0  0  0
 39 71  1  0  0  0  0
 40 42  2  0  0  0  0
 41 42  1  0  0  0  0
 41 73  1  0  0  0  0
 43 75  1  0  0  0  0
 43 76  1  0  0  0  0
 43 77  1  0  0  0  0
M  END
>  <PUBCHEM_COMPOUND_CID>
53477767

>  <PUBCHEM_COMPOUND_CANONICALIZED>
1

>  <PUBCHEM_CACTVS_COMPLEXITY>
940

>  <PUBCHEM_CACTVS_HBOND_ACCEPTOR>
15

>  <PUBCHEM_CACTVS_HBOND_DONOR>
8

>  <PUBCHEM_CACTVS_ROTATABLE_BOND>
7

>  <PUBCHEM_CACTVS_SUBSKEYS>
AAADcfB4PAAAAAAAAAAAAAAAAAAAAAAAAAA0aJECAAAAAACRQAAAGgAACAAADBSwmAMyDoAABgCIAqBSAAACCAAkIAAIiAEGiMgdNzaGNRqieWOl4BUPuQfI7PzOIAABCAAIQABAAAIQABCAAAAAAAAAAA==

>  <PUBCHEM_IUPAC_OPENEYE_NAME>
(2S)-5-hydroxy-2-(3-hydroxy-4-methoxy-phenyl)-7-[(3R,4S,5R,6R)-3,4,5-trihydroxy-6-[[(2S,3R,4R,5S,6S)-3,4,5-trihydroxy-6-methyl-tetrahydropyran-2-yl]oxymethyl]tetrahydropyran-2-yl]oxy-chroman-4-one

>  <PUBCHEM_IUPAC_CAS_NAME>
(2S)-5-hydroxy-2-(3-hydroxy-4-methoxyphenyl)-7-[[(3R,4S,5R,6R)-3,4,5-trihydroxy-6-[[(2S,3R,4R,5S,6S)-3,4,5-trihydroxy-6-methyl-2-oxanyl]oxymethyl]-2-oxanyl]oxy]-3,4-dihydro-2H-1-benzopyran-4-one

>  <PUBCHEM_IUPAC_NAME>
(2S)-5-hydroxy-2-(3-hydroxy-4-methoxyphenyl)-7-[(3R,4S,5R,6R)-3,4,5-trihydroxy-6-[[(2S,3R,4R,5S,6S)-3,4,5-trihydroxy-6-methyloxan-2-yl]oxymethyl]oxan-2-yl]oxy-2,3-dihydrochromen-4-one

>  <PUBCHEM_IUPAC_SYSTEMATIC_NAME>
(2S)-2-(4-methoxy-3-oxidanyl-phenyl)-7-[(3R,4S,5R,6R)-6-[[(2S,3R,4R,5S,6S)-6-methyl-3,4,5-tris(oxidanyl)oxan-2-yl]oxymethyl]-3,4,5-tris(oxidanyl)oxan-2-yl]oxy-5-oxidanyl-2,3-dihydrochromen-4-one

>  <PUBCHEM_IUPAC_TRADITIONAL_NAME>
(2S)-5-hydroxy-2-(3-hydroxy-4-methoxy-phenyl)-7-[(3R,4S,5R,6R)-3,4,5-trihydroxy-6-[[(2S,3R,4R,5S,6S)-3,4,5-trihydroxy-6-methyl-tetrahydropyran-2-yl]oxymethyl]tetrahydropyran-2-yl]oxy-chroman-4-one

>  <PUBCHEM_IUPAC_INCHI>
InChI=1S/C28H34O15/c1-10-21(32)23(34)25(36)27(40-10)39-9-19-22(33)24(35)26(37)28(43-19)41-12-6-14(30)20-15(31)8-17(42-18(20)7-12)11-3-4-16(38-2)13(29)5-11/h3-7,10,17,19,21-30,32-37H,8-9H2,1-2H3/t10-,17-,19+,21+,22-,23+,24-,25+,26+,27-,28?/m0/s1

>  <PUBCHEM_IUPAC_INCHIKEY>
QUQPHWDTPGMPEX-UNZJSITISA-N

>  <PUBCHEM_XLOGP3_AA>
-1.1

>  <PUBCHEM_EXACT_MASS>
610.19

>  <PUBCHEM_MOLECULAR_FORMULA>
C28H34O15

>  <PUBCHEM_MOLECULAR_WEIGHT>
610.565

>  <PUBCHEM_OPENEYE_CAN_SMILES>
CC1C(C(C(C(O1)OCC2C(C(C(C(O2)OC3=CC(=C4C(=O)CC(OC4=C3)C5=CC(=C(C=C5)OC)O)O)O)O)O)O)O)O

>  <PUBCHEM_OPENEYE_ISO_SMILES>
C[C@H]1[C@H]([C@H]([C@H]([C@H](O1)OC[C@@H]2[C@@H]([C@@H]([C@H](C(O2)OC3=CC(=C4C(=O)C[C@H](OC4=C3)C5=CC(=C(C=C5)OC)O)O)O)O)O)O)O)O

>  <PUBCHEM_CACTVS_TPSA>
234

>  <PUBCHEM_MONOISOTOPIC_WEIGHT>
610.19

>  <PUBCHEM_TOTAL_CHARGE>
0

>  <PUBCHEM_HEAVY_ATOM_COUNT>
43

>  <PUBCHEM_ATOM_DEF_STEREO_COUNT>
10

>  <PUBCHEM_ATOM_UDEF_STEREO_COUNT>
1

>  <PUBCHEM_BOND_DEF_STEREO_COUNT>
0

>  <PUBCHEM_BOND_UDEF_STEREO_COUNT>
0

>  <PUBCHEM_ISOTOPIC_ATOM_COUNT>
0

>  <PUBCHEM_COMPONENT_COUNT>
1

>  <PUBCHEM_CACTVS_TAUTO_COUNT>
27

>  <PUBCHEM_COORDINATE_TYPE>
1
5
255

>  <PUBCHEM_BONDANNOTATIONS>
23  10  6
16  25  6
21  2  6
26  27  6
28  29  8
28  31  8
29  30  8
30  32  8
31  35  8
32  35  8
33  37  5
37  38  8
37  39  8
38  40  8
39  41  8
17  4  6
40  42  8
41  42  8
24  5  3
18  6  6
19  7  5
20  8  6
22  9  6

$$$$
