5352691
 OpenBabel06101807152D

 15 14  0  0  0  0  0  0  0  0999 V2000
    4.2690   -0.0600    0.0000 S   0  0  0  0  0  0  0  0  0  0  0  0
    6.0010   -0.0600    0.0000 S   0  0  0  0  0  0  0  0  0  0  0  0
    5.1350    0.4400    0.0000 S   0  0  0  0  0  0  0  0  0  0  0  0
    2.5369   -0.0600    0.0000 C   0  0  0  0  0  0  0  0  0  0  0  0
    2.5369   -1.0600    0.0000 C   0  0  0  0  0  0  0  0  0  0  0  0
    3.4030    0.4400    0.0000 C   0  0  0  0  0  0  0  0  0  0  0  0
    6.8671    0.4400    0.0000 C   0  0  0  0  0  0  0  0  0  0  0  0
    2.0000    0.2500    0.0000 H   0  0  0  0  0  0  0  0  0  0  0  0
    1.9169   -1.0600    0.0000 H   0  0  0  0  0  0  0  0  0  0  0  0
    2.5369   -1.6800    0.0000 H   0  0  0  0  0  0  0  0  0  0  0  0
    3.1569   -1.0600    0.0000 H   0  0  0  0  0  0  0  0  0  0  0  0
    3.4030    1.0600    0.0000 H   0  0  0  0  0  0  0  0  0  0  0  0
    7.1771   -0.0969    0.0000 H   0  0  0  0  0  0  0  0  0  0  0  0
    7.4040    0.7500    0.0000 H   0  0  0  0  0  0  0  0  0  0  0  0
    6.5571    0.9769    0.0000 H   0  0  0  0  0  0  0  0  0  0  0  0
  1  3  1  0  0  0  0
  1  6  1  0  0  0  0
  2  3  1  0  0  0  0
  2  7  1  0  0  0  0
  4  5  1  0  0  0  0
  4  6  2  0  0  0  0
  4  8  1  0  0  0  0
  5  9  1  0  0  0  0
  5 10  1  0  0  0  0
  5 11  1  0  0  0  0
  6 12  1  0  0  0  0
  7 13  1  0  0  0  0
  7 14  1  0  0  0  0
  7 15  1  0  0  0  0
M  END
>  <PUBCHEM_COMPOUND_CID>
5352691

>  <PUBCHEM_COMPOUND_CANONICALIZED>
1

>  <PUBCHEM_CACTVS_COMPLEXITY>
50.9

>  <PUBCHEM_CACTVS_HBOND_ACCEPTOR>
3

>  <PUBCHEM_CACTVS_HBOND_DONOR>
0

>  <PUBCHEM_CACTVS_ROTATABLE_BOND>
3

>  <PUBCHEM_CACTVS_SUBSKEYS>
AAADccBgAABgAAAAAAAAAAAAAAAAAAAAAAAAAAAAAAAAAAAAAAAAGAQAAAAACACEQACCAAAAAACAACBCAAAAAAAAAAAIAAAAAAAAAAAAAQAAAAAAAAAAAAAAAAAAAAAAAAAAAAAAAAAAAAAAAAAAAAAAAA==

>  <PUBCHEM_IUPAC_OPENEYE_NAME>
(Z)-1-(methyltrisulfanyl)prop-1-ene

>  <PUBCHEM_IUPAC_CAS_NAME>
(Z)-1-(methyltrisulfanyl)-1-propene

>  <PUBCHEM_IUPAC_NAME>
(Z)-1-(methyltrisulfanyl)prop-1-ene

>  <PUBCHEM_IUPAC_SYSTEMATIC_NAME>
(Z)-1-(methyltrisulfanyl)prop-1-ene

>  <PUBCHEM_IUPAC_TRADITIONAL_NAME>
(Z)-1-(methyltrisulfanyl)prop-1-ene

>  <PUBCHEM_IUPAC_INCHI>
InChI=1S/C4H8S3/c1-3-4-6-7-5-2/h3-4H,1-2H3/b4-3-

>  <PUBCHEM_IUPAC_INCHIKEY>
WPRUFZZPIFLBDG-ARJAWSKDSA-N

>  <PUBCHEM_XLOGP3_AA>
2.1

>  <PUBCHEM_EXACT_MASS>
151.979

>  <PUBCHEM_MOLECULAR_FORMULA>
C4H8S3

>  <PUBCHEM_MOLECULAR_WEIGHT>
152.288

>  <PUBCHEM_OPENEYE_CAN_SMILES>
CC=CSSSC

>  <PUBCHEM_OPENEYE_ISO_SMILES>
C/C=C\SSSC

>  <PUBCHEM_CACTVS_TPSA>
75.9

>  <PUBCHEM_MONOISOTOPIC_WEIGHT>
151.979

>  <PUBCHEM_TOTAL_CHARGE>
0

>  <PUBCHEM_HEAVY_ATOM_COUNT>
7

>  <PUBCHEM_ATOM_DEF_STEREO_COUNT>
0

>  <PUBCHEM_ATOM_UDEF_STEREO_COUNT>
0

>  <PUBCHEM_BOND_DEF_STEREO_COUNT>
1

>  <PUBCHEM_BOND_UDEF_STEREO_COUNT>
0

>  <PUBCHEM_ISOTOPIC_ATOM_COUNT>
0

>  <PUBCHEM_COMPONENT_COUNT>
1

>  <PUBCHEM_CACTVS_TAUTO_COUNT>
1

>  <PUBCHEM_COORDINATE_TYPE>
1
5
255

$$$$
