5352001
 OpenBabel06101807152D

 37 39  0  0  0  0  0  0  0  0999 V2000
    6.0682   -0.4254    0.0000 O   0  0  0  0  0  0  0  0  0  0  0  0
    7.8003    1.5746    0.0000 O   0  0  0  0  0  0  0  0  0  0  0  0
    4.3198    2.6092    0.0000 O   0  0  0  0  0  0  0  0  0  0  0  0
    6.0682    2.5746    0.0000 O   0  0  0  0  0  0  0  0  0  0  0  0
    2.5381   -0.4495    0.0000 O   0  0  0  0  0  0  0  0  0  0  0  0
   10.3984   -1.9254    0.0000 O   0  0  0  0  0  0  0  0  0  0  0  0
    5.2022    1.0746    0.0000 C   0  0  0  0  0  0  0  0  0  0  0  0
    6.9343    0.0746    0.0000 C   0  0  0  0  0  0  0  0  0  0  0  0
    5.2022    0.0746    0.0000 C   0  0  0  0  0  0  0  0  0  0  0  0
    6.9343    1.0746    0.0000 C   0  0  0  0  0  0  0  0  0  0  0  0
    7.8003   -0.4254    0.0000 C   0  0  0  0  0  0  0  0  0  0  0  0
    6.0682    1.5746    0.0000 C   0  0  0  0  0  0  0  0  0  0  0  0
    4.3083    1.6093    0.0000 C   0  0  0  0  0  0  0  0  0  0  0  0
    4.3083   -0.4601    0.0000 C   0  0  0  0  0  0  0  0  0  0  0  0
    3.4022    1.0954    0.0000 C   0  0  0  0  0  0  0  0  0  0  0  0
    3.4022    0.0538    0.0000 C   0  0  0  0  0  0  0  0  0  0  0  0
    7.8003   -1.4254    0.0000 C   0  0  0  0  0  0  0  0  0  0  0  0
    8.6663    0.0746    0.0000 C   0  0  0  0  0  0  0  0  0  0  0  0
    8.6663   -1.9254    0.0000 C   0  0  0  0  0  0  0  0  0  0  0  0
    9.5323   -0.4254    0.0000 C   0  0  0  0  0  0  0  0  0  0  0  0
    9.5323   -1.4254    0.0000 C   0  0  0  0  0  0  0  0  0  0  0  0
    7.8003    2.5746    0.0000 C   0  0  0  0  0  0  0  0  0  0  0  0
   10.3984   -2.9254    0.0000 C   0  0  0  0  0  0  0  0  0  0  0  0
    4.3154   -1.0800    0.0000 H   0  0  0  0  0  0  0  0  0  0  0  0
    2.8665    1.4075    0.0000 H   0  0  0  0  0  0  0  0  0  0  0  0
    7.2634   -1.7354    0.0000 H   0  0  0  0  0  0  0  0  0  0  0  0
    8.6663    0.6946    0.0000 H   0  0  0  0  0  0  0  0  0  0  0  0
    8.6663   -2.5454    0.0000 H   0  0  0  0  0  0  0  0  0  0  0  0
   10.0693   -0.1154    0.0000 H   0  0  0  0  0  0  0  0  0  0  0  0
    3.7865    2.9254    0.0000 H   0  0  0  0  0  0  0  0  0  0  0  0
    8.4203    2.5746    0.0000 H   0  0  0  0  0  0  0  0  0  0  0  0
    7.8003    3.1946    0.0000 H   0  0  0  0  0  0  0  0  0  0  0  0
    7.1803    2.5746    0.0000 H   0  0  0  0  0  0  0  0  0  0  0  0
    2.0000   -0.1416    0.0000 H   0  0  0  0  0  0  0  0  0  0  0  0
    9.7784   -2.9254    0.0000 H   0  0  0  0  0  0  0  0  0  0  0  0
   10.3984   -3.5454    0.0000 H   0  0  0  0  0  0  0  0  0  0  0  0
   11.0184   -2.9254    0.0000 H   0  0  0  0  0  0  0  0  0  0  0  0
  1  8  1  0  0  0  0
  1  9  1  0  0  0  0
  2 10  1  0  0  0  0
  2 22  1  0  0  0  0
  3 13  1  0  0  0  0
  3 30  1  0  0  0  0
  4 12  2  0  0  0  0
  5 16  1  0  0  0  0
  5 34  1  0  0  0  0
  6 21  1  0  0  0  0
  6 23  1  0  0  0  0
  7  9  1  0  0  0  0
  7 12  1  0  0  0  0
  7 13  2  0  0  0  0
  8 10  2  0  0  0  0
  8 11  1  0  0  0  0
  9 14  2  0  0  0  0
 10 12  1  0  0  0  0
 11 17  2  0  0  0  0
 11 18  1  0  0  0  0
 13 15  1  0  0  0  0
 14 16  1  0  0  0  0
 14 24  1  0  0  0  0
 15 16  2  0  0  0  0
 15 25  1  0  0  0  0
 17 19  1  0  0  0  0
 17 26  1  0  0  0  0
 18 20  2  0  0  0  0
 18 27  1  0  0  0  0
 19 21  2  0  0  0  0
 19 28  1  0  0  0  0
 20 21  1  0  0  0  0
 20 29  1  0  0  0  0
 22 31  1  0  0  0  0
 22 32  1  0  0  0  0
 22 33  1  0  0  0  0
 23 35  1  0  0  0  0
 23 36  1  0  0  0  0
 23 37  1  0  0  0  0
M  END
>  <PUBCHEM_COMPOUND_CID>
5352001

>  <PUBCHEM_COMPOUND_CANONICALIZED>
1

>  <PUBCHEM_CACTVS_COMPLEXITY>
480

>  <PUBCHEM_CACTVS_HBOND_ACCEPTOR>
6

>  <PUBCHEM_CACTVS_HBOND_DONOR>
2

>  <PUBCHEM_CACTVS_ROTATABLE_BOND>
3

>  <PUBCHEM_CACTVS_SUBSKEYS>
AAADccB4OAAAAAAAAAAAAAAAAAAAAAAAAAAwYIAAAAAAAACBQAAAGgAACAAADASAmAIyBoAABgCIAqBSAAICCAAkIAAIiAFGCMgMJzaGNR6CeWCl4BUIuQfI7KzOIAAACAAIAABAAAAQABAAAAAAAAAAAA==

>  <PUBCHEM_IUPAC_OPENEYE_NAME>
5,7-dihydroxy-3-methoxy-2-(4-methoxyphenyl)chromen-4-one

>  <PUBCHEM_IUPAC_CAS_NAME>
5,7-dihydroxy-3-methoxy-2-(4-methoxyphenyl)-1-benzopyran-4-one

>  <PUBCHEM_IUPAC_NAME>
5,7-dihydroxy-3-methoxy-2-(4-methoxyphenyl)chromen-4-one

>  <PUBCHEM_IUPAC_SYSTEMATIC_NAME>
3-methoxy-2-(4-methoxyphenyl)-5,7-bis(oxidanyl)chromen-4-one

>  <PUBCHEM_IUPAC_TRADITIONAL_NAME>
5,7-dihydroxy-3-methoxy-2-(4-methoxyphenyl)chromone

>  <PUBCHEM_IUPAC_INCHI>
InChI=1S/C17H14O6/c1-21-11-5-3-9(4-6-11)16-17(22-2)15(20)14-12(19)7-10(18)8-13(14)23-16/h3-8,18-19H,1-2H3

>  <PUBCHEM_IUPAC_INCHIKEY>
RJCJVIFSIXKSAH-UHFFFAOYSA-N

>  <PUBCHEM_XLOGP3>
2.5

>  <PUBCHEM_EXACT_MASS>
314.079

>  <PUBCHEM_MOLECULAR_FORMULA>
C17H14O6

>  <PUBCHEM_MOLECULAR_WEIGHT>
314.293

>  <PUBCHEM_OPENEYE_CAN_SMILES>
COC1=CC=C(C=C1)C2=C(C(=O)C3=C(C=C(C=C3O2)O)O)OC

>  <PUBCHEM_OPENEYE_ISO_SMILES>
COC1=CC=C(C=C1)C2=C(C(=O)C3=C(C=C(C=C3O2)O)O)OC

>  <PUBCHEM_CACTVS_TPSA>
85.2

>  <PUBCHEM_MONOISOTOPIC_WEIGHT>
314.079

>  <PUBCHEM_TOTAL_CHARGE>
0

>  <PUBCHEM_HEAVY_ATOM_COUNT>
23

>  <PUBCHEM_ATOM_DEF_STEREO_COUNT>
0

>  <PUBCHEM_ATOM_UDEF_STEREO_COUNT>
0

>  <PUBCHEM_BOND_DEF_STEREO_COUNT>
0

>  <PUBCHEM_BOND_UDEF_STEREO_COUNT>
0

>  <PUBCHEM_ISOTOPIC_ATOM_COUNT>
0

>  <PUBCHEM_COMPONENT_COUNT>
1

>  <PUBCHEM_CACTVS_TAUTO_COUNT>
12

>  <PUBCHEM_COORDINATE_TYPE>
1
5
255

>  <PUBCHEM_BONDANNOTATIONS>
1  8  8
1  9  8
10  12  8
11  17  8
11  18  8
13  15  8
14  16  8
15  16  8
17  19  8
18  20  8
19  21  8
20  21  8
7  12  8
7  13  8
7  9  8
8  10  8
9  14  8

$$$$
