53627695
 OpenBabel06101807152D

 76 78  0  0  0  0  0  0  0  0999 V2000
    7.9649   12.3789    0.0000 Fe  0  1  0  0  0 15  0  0  0  0  0  0
    0.0000    5.9394    0.0000 Cl  0  0  0  0  0  0  0  0  0  0  0  0
    8.5576   11.5735    0.0000 O   0  5  0  0  0  0  0  0  0  0  0  0
    7.1627   10.5468    0.0000 O   0  0  0  0  0  0  0  0  0  0  0  0
    3.0000    6.0975    0.0000 O   0  5  0  0  0  0  0  0  0  0  0  0
    4.0487    7.4760    0.0000 O   0  0  0  0  0  0  0  0  0  0  0  0
    9.4415    6.5285    0.0000 N   0  0  0  0  0  0  0  0  0  0  0  0
   10.9767    5.1590    0.0000 N   0  0  0  0  0  0  0  0  0  0  0  0
    7.9716    5.1590    0.0000 N   0  5  0  0  0  0  0  0  0  0  0  0
    9.4750    3.7895    0.0000 N   0  0  0  0  0  0  0  0  0  0  0  0
    8.9409    8.1307    0.0000 C   0  0  0  0  0  0  0  0  0  0  0  0
    6.4363    5.6596    0.0000 C   0  0  0  0  0  0  0  0  0  0  0  0
    9.9421    8.1307    0.0000 C   0  0  0  0  0  0  0  0  0  0  0  0
    8.6396    7.1630    0.0000 C   0  0  0  0  0  0  0  0  0  0  0  0
    7.4040    5.9274    0.0000 C   0  0  0  0  0  0  0  0  0  0  0  0
    6.4363    4.6584    0.0000 C   0  0  0  0  0  0  0  0  0  0  0  0
   10.2769    7.1965    0.0000 C   0  0  0  0  0  0  0  0  0  0  0  0
    8.3482    8.9361    0.0000 C   0  0  0  0  0  0  0  0  0  0  0  0
    7.4040    4.3905    0.0000 C   0  0  0  0  0  0  0  0  0  0  0  0
    5.6404    6.2650    0.0000 C   0  0  0  0  0  0  0  0  0  0  0  0
    7.6719    6.8951    0.0000 C   0  0  0  0  0  0  0  0  0  0  0  0
   11.5443    5.9609    0.0000 C   0  0  0  0  0  0  0  0  0  0  0  0
   11.5778    4.4240    0.0000 C   0  0  0  0  0  0  0  0  0  0  0  0
   12.5137    4.6919    0.0000 C   0  0  0  0  0  0  0  0  0  0  0  0
   11.2446    6.8951    0.0000 C   0  0  0  0  0  0  0  0  0  0  0  0
   12.5137    5.6931    0.0000 C   0  0  0  0  0  0  0  0  0  0  0  0
    8.6730    3.1550    0.0000 C   0  0  0  0  0  0  0  0  0  0  0  0
    7.7054    3.4563    0.0000 C   0  0  0  0  0  0  0  0  0  0  0  0
   10.2769    3.1884    0.0000 C   0  0  0  0  0  0  0  0  0  0  0  0
    8.9744    2.2208    0.0000 C   0  0  0  0  0  0  0  0  0  0  0  0
   10.5177    8.9484    0.0000 C   0  0  0  0  0  0  0  0  0  0  0  0
   11.2781    3.4563    0.0000 C   0  0  0  0  0  0  0  0  0  0  0  0
    8.7493    9.8521    0.0000 C   0  0  0  0  0  0  0  0  0  0  0  0
    9.9756    2.2208    0.0000 C   0  0  0  0  0  0  0  0  0  0  0  0
    4.7181    5.8785    0.0000 C   0  0  0  0  0  0  0  0  0  0  0  0
    5.5703    4.1584    0.0000 C   0  0  0  0  0  0  0  0  0  0  0  0
   13.3122    4.0899    0.0000 C   0  0  0  0  0  0  0  0  0  0  0  0
   13.3094    6.2987    0.0000 C   0  0  0  0  0  0  0  0  0  0  0  0
    8.3037    1.4790    0.0000 C   0  0  0  0  0  0  0  0  0  0  0  0
   10.5683    1.4154    0.0000 C   0  0  0  0  0  0  0  0  0  0  0  0
    8.1565   10.6575    0.0000 C   0  0  0  0  0  0  0  0  0  0  0  0
    3.9223    6.4840    0.0000 C   0  0  0  0  0  0  0  0  0  0  0  0
   14.2318    5.9124    0.0000 C   0  0  0  0  0  0  0  0  0  0  0  0
   10.1672    0.4993    0.0000 C   0  0  0  0  0  0  0  0  0  0  0  0
    7.8320    9.2796    0.0000 H   0  0  0  0  0  0  0  0  0  0  0  0
    7.9202    8.4874    0.0000 H   0  0  0  0  0  0  0  0  0  0  0  0
    6.0958    6.6858    0.0000 H   0  0  0  0  0  0  0  0  0  0  0  0
    5.3052    6.7866    0.0000 H   0  0  0  0  0  0  0  0  0  0  0  0
    7.2335    7.3335    0.0000 H   0  0  0  0  0  0  0  0  0  0  0  0
   11.6812    7.3354    0.0000 H   0  0  0  0  0  0  0  0  0  0  0  0
   10.3571    5.1374    0.0000 H   0  0  0  0  0  0  0  0  0  0  0  0
    7.2692    3.0157    0.0000 H   0  0  0  0  0  0  0  0  0  0  0  0
   11.0247    8.5916    0.0000 H   0  0  0  0  0  0  0  0  0  0  0  0
   10.8745    9.4554    0.0000 H   0  0  0  0  0  0  0  0  0  0  0  0
   10.0107    9.3053    0.0000 H   0  0  0  0  0  0  0  0  0  0  0  0
   11.7079    3.0095    0.0000 H   0  0  0  0  0  0  0  0  0  0  0  0
    9.2654    9.5086    0.0000 H   0  0  0  0  0  0  0  0  0  0  0  0
    9.1772   10.3007    0.0000 H   0  0  0  0  0  0  0  0  0  0  0  0
    4.2628    5.4578    0.0000 H   0  0  0  0  0  0  0  0  0  0  0  0
    5.0534    5.3570    0.0000 H   0  0  0  0  0  0  0  0  0  0  0  0
    5.2603    4.6953    0.0000 H   0  0  0  0  0  0  0  0  0  0  0  0
    5.0334    3.8484    0.0000 H   0  0  0  0  0  0  0  0  0  0  0  0
    5.8803    3.6214    0.0000 H   0  0  0  0  0  0  0  0  0  0  0  0
   12.9389    3.5948    0.0000 H   0  0  0  0  0  0  0  0  0  0  0  0
   13.8072    3.7166    0.0000 H   0  0  0  0  0  0  0  0  0  0  0  0
   13.6854    4.5849    0.0000 H   0  0  0  0  0  0  0  0  0  0  0  0
   13.2308    6.9137    0.0000 H   0  0  0  0  0  0  0  0  0  0  0  0
    7.8438    1.8949    0.0000 H   0  0  0  0  0  0  0  0  0  0  0  0
    7.8878    1.0192    0.0000 H   0  0  0  0  0  0  0  0  0  0  0  0
    8.7635    1.0632    0.0000 H   0  0  0  0  0  0  0  0  0  0  0  0
   11.1845    1.4840    0.0000 H   0  0  0  0  0  0  0  0  0  0  0  0
   14.3103    5.2974    0.0000 H   0  0  0  0  0  0  0  0  0  0  0  0
   14.7251    6.2879    0.0000 H   0  0  0  0  0  0  0  0  0  0  0  0
    9.5510    0.4307    0.0000 H   0  0  0  0  0  0  0  0  0  0  0  0
   10.5347    0.0000    0.0000 H   0  0  0  0  0  0  0  0  0  0  0  0
    1.0000    5.9394    0.0000 H   0  0  0  0  0  0  0  0  0  0  0  0
  2 76  1  0  0  0  0
  3 41  1  0  0  0  0
  4 41  2  0  0  0  0
  5 42  1  0  0  0  0
  6 42  2  0  0  0  0
  7 14  1  0  0  0  0
  7 17  2  0  0  0  0
  8 22  1  0  0  0  0
  8 23  1  0  0  0  0
  8 51  1  0  0  0  0
  9 15  1  0  0  0  0
  9 19  1  0  0  0  0
 10 27  1  0  0  0  0
 10 29  2  0  0  0  0
 11 13  2  0  0  0  0
 11 14  1  0  0  0  0
 11 18  1  0  0  0  0
 12 15  2  0  0  0  0
 12 16  1  0  0  0  0
 12 20  1  0  0  0  0
 13 17  1  0  0  0  0
 13 31  1  0  0  0  0
 14 21  2  0  0  0  0
 15 21  1  0  0  0  0
 16 19  2  0  0  0  0
 16 36  1  0  0  0  0
 17 25  1  0  0  0  0
 18 33  1  0  0  0  0
 18 45  1  0  0  0  0
 18 46  1  0  0  0  0
 19 28  1  0  0  0  0
 20 35  1  0  0  0  0
 20 47  1  0  0  0  0
 20 48  1  0  0  0  0
 21 49  1  0  0  0  0
 22 25  2  0  0  0  0
 22 26  1  0  0  0  0
 23 24  1  0  0  0  0
 23 32  2  0  0  0  0
 24 26  2  0  0  0  0
 24 37  1  0  0  0  0
 25 50  1  0  0  0  0
 26 38  1  0  0  0  0
 27 28  2  0  0  0  0
 27 30  1  0  0  0  0
 28 52  1  0  0  0  0
 29 32  1  0  0  0  0
 29 34  1  0  0  0  0
 30 34  2  0  0  0  0
 30 39  1  0  0  0  0
 31 53  1  0  0  0  0
 31 54  1  0  0  0  0
 31 55  1  0  0  0  0
 32 56  1  0  0  0  0
 33 41  1  0  0  0  0
 33 57  1  0  0  0  0
 33 58  1  0  0  0  0
 34 40  1  0  0  0  0
 35 42  1  0  0  0  0
 35 59  1  0  0  0  0
 35 60  1  0  0  0  0
 36 61  1  0  0  0  0
 36 62  1  0  0  0  0
 36 63  1  0  0  0  0
 37 64  1  0  0  0  0
 37 65  1  0  0  0  0
 37 66  1  0  0  0  0
 38 43  2  0  0  0  0
 38 67  1  0  0  0  0
 39 68  1  0  0  0  0
 39 69  1  0  0  0  0
 39 70  1  0  0  0  0
 40 44  2  0  0  0  0
 40 71  1  0  0  0  0
 43 72  1  0  0  0  0
 43 73  1  0  0  0  0
 44 74  1  0  0  0  0
 44 75  1  0  0  0  0
M  CHG  4   1   3   3  -1   5  -1   9  -1
M  END
>  <PUBCHEM_COMPOUND_CID>
53627695

>  <PUBCHEM_COMPOUND_CANONICALIZED>
1

>  <PUBCHEM_CACTVS_COMPLEXITY>
995

>  <PUBCHEM_CACTVS_HBOND_ACCEPTOR>
7

>  <PUBCHEM_CACTVS_HBOND_DONOR>
2

>  <PUBCHEM_CACTVS_ROTATABLE_BOND>
6

>  <PUBCHEM_CACTVS_SUBSKEYS>
AAADcfB/uAAEAAAgAAAAAAAAAAAAAWLFiwAAAAAAAAAAAAAB/gAAHgAQAAAADAiBngAyyLLJkACoAyTyTACCgCAhAiAImSEwZJgIIHLA0NGEJAhkkADIyAeY2fOegAAAAAAAAAAAAAAAAAAAAAAAAAAAAA==

>  <PUBCHEM_IUPAC_OPENEYE_NAME>
ferric;3-[18-(2-carboxylatoethyl)-3,7,12,17-tetramethyl-8,13-divinyl-23H-porphyrin-21-id-2-yl]propanoate;hydrochloride

>  <PUBCHEM_IUPAC_CAS_NAME>
3-[18-(2-carboxylatoethyl)-8,13-bis(ethenyl)-3,7,12,17-tetramethyl-23H-porphyrin-21-id-2-yl]propanoate;iron(3+);hydrochloride

>  <PUBCHEM_IUPAC_NAME>
3-[18-(2-carboxylatoethyl)-8,13-bis(ethenyl)-3,7,12,17-tetramethyl-23H-porphyrin-21-id-2-yl]propanoate;iron(3+);hydrochloride

>  <PUBCHEM_IUPAC_SYSTEMATIC_NAME>
3-[8,13-bis(ethenyl)-3,7,12,17-tetramethyl-18-(3-oxidanidyl-3-oxidanylidene-propyl)-23H-porphyrin-21-id-2-yl]propanoate;iron(3+);hydrochloride

>  <PUBCHEM_IUPAC_TRADITIONAL_NAME>
ferric;3-[18-(2-carboxylatoethyl)-3,7,12,17-tetramethyl-8,13-divinyl-23H-porphin-21-id-2-yl]propionate;hydrochloride

>  <PUBCHEM_IUPAC_INCHI>
InChI=1S/C34H34N4O4.ClH.Fe/c1-7-21-17(3)25-13-26-19(5)23(9-11-33(39)40)31(37-26)16-32-24(10-12-34(41)42)20(6)28(38-32)15-30-22(8-2)18(4)27(36-30)14-29(21)35-25;;/h7-8,13-16H,1-2,9-12H2,3-6H3,(H4,35,36,37,38,39,40,41,42);1H;/q;;+3/p-3

>  <PUBCHEM_IUPAC_INCHIKEY>
BTIJJDXEELBZFS-UHFFFAOYSA-K

>  <PUBCHEM_EXACT_MASS>
651.146

>  <PUBCHEM_MOLECULAR_FORMULA>
C34H32ClFeN4O4

>  <PUBCHEM_MOLECULAR_WEIGHT>
651.949

>  <PUBCHEM_OPENEYE_CAN_SMILES>
CC1=C(C2=CC3=NC(=CC4=C(C(=C(N4)C=C5C(=C(C(=N5)C=C1[N-]2)C)C=C)C)C=C)C(=C3CCC(=O)[O-])C)CCC(=O)[O-].Cl.[Fe+3]

>  <PUBCHEM_OPENEYE_ISO_SMILES>
CC1=C(C2=CC3=NC(=CC4=C(C(=C(N4)C=C5C(=C(C(=N5)C=C1[N-]2)C)C=C)C)C=C)C(=C3CCC(=O)[O-])C)CCC(=O)[O-].Cl.[Fe+3]

>  <PUBCHEM_CACTVS_TPSA>
123

>  <PUBCHEM_MONOISOTOPIC_WEIGHT>
651.146

>  <PUBCHEM_TOTAL_CHARGE>
0

>  <PUBCHEM_HEAVY_ATOM_COUNT>
44

>  <PUBCHEM_ATOM_DEF_STEREO_COUNT>
0

>  <PUBCHEM_ATOM_UDEF_STEREO_COUNT>
0

>  <PUBCHEM_BOND_DEF_STEREO_COUNT>
0

>  <PUBCHEM_BOND_UDEF_STEREO_COUNT>
0

>  <PUBCHEM_ISOTOPIC_ATOM_COUNT>
0

>  <PUBCHEM_COMPONENT_COUNT>
3

>  <PUBCHEM_CACTVS_TAUTO_COUNT>
3

>  <PUBCHEM_COORDINATE_TYPE>
1
5
255

>  <PUBCHEM_BONDANNOTATIONS>
10  27  8
10  29  8
12  15  8
12  16  8
14  21  8
15  21  8
16  19  8
17  25  8
19  28  8
22  25  8
22  26  8
23  24  8
23  32  8
24  26  8
27  28  8
29  32  8
7  14  8
7  17  8
8  22  8
8  23  8
9  15  8
9  19  8

$$$$
