5363746
 OpenBabel06101807152D

 40 41  0  0  1  0  0  0  0  0999 V2000
    6.3887   -3.4103    0.0000 O   0  0  0  0  0  0  0  0  0  0  0  0
    3.5984   -0.5462    0.0000 O   0  0  0  0  0  0  0  0  0  0  0  0
    2.0000   -3.5500    0.0000 O   0  0  0  0  0  0  0  0  0  0  0  0
    7.5662    3.2508    0.0000 O   0  0  0  0  0  0  0  0  0  0  0  0
    5.8436    3.4319    0.0000 O   0  0  0  0  0  0  0  0  0  0  0  0
    5.2486   -1.9356    0.0000 C   0  0  3  0  0  0  0  0  0  0  0  0
    4.5120   -0.9530    0.0000 C   0  0  3  0  0  0  0  0  0  0  0  0
    4.9898   -2.9015    0.0000 C   0  0  3  0  0  0  0  0  0  0  0  0
    6.6475   -2.4444    0.0000 C   0  0  0  0  0  0  0  0  0  0  0  0
    3.2153   -2.2467    0.0000 C   0  0  0  0  0  0  0  0  0  0  0  0
    3.7687   -3.7672    0.0000 C   0  0  0  0  0  0  0  0  0  0  0  0
    5.5074   -0.9696    0.0000 C   0  0  0  0  0  0  0  0  0  0  0  0
    2.9397   -3.2080    0.0000 C   0  0  0  0  0  0  0  0  0  0  0  0
    4.7309   -3.8674    0.0000 C   0  0  0  0  0  0  0  0  0  0  0  0
    4.6165    0.0416    0.0000 C   0  0  0  0  0  0  0  0  0  0  0  0
    5.5300    0.4483    0.0000 C   0  0  0  0  0  0  0  0  0  0  0  0
    5.6346    1.4428    0.0000 C   0  0  0  0  0  0  0  0  0  0  0  0
    4.8255    2.0306    0.0000 C   0  0  0  0  0  0  0  0  0  0  0  0
    6.5481    1.8496    0.0000 C   0  0  0  0  0  0  0  0  0  0  0  0
    6.6526    2.8441    0.0000 C   0  0  0  0  0  0  0  0  0  0  0  0
    7.2415   -2.6222    0.0000 H   0  0  0  0  0  0  0  0  0  0  0  0
    6.8424   -1.8558    0.0000 H   0  0  0  0  0  0  0  0  0  0  0  0
    3.2103   -1.6267    0.0000 H   0  0  0  0  0  0  0  0  0  0  0  0
    2.6010   -2.1629    0.0000 H   0  0  0  0  0  0  0  0  0  0  0  0
    3.3629   -4.2359    0.0000 H   0  0  0  0  0  0  0  0  0  0  0  0
    4.1854   -4.2263    0.0000 H   0  0  0  0  0  0  0  0  0  0  0  0
    6.1063   -1.1301    0.0000 H   0  0  0  0  0  0  0  0  0  0  0  0
    5.6679   -0.3708    0.0000 H   0  0  0  0  0  0  0  0  0  0  0  0
    4.9085   -0.8092    0.0000 H   0  0  0  0  0  0  0  0  0  0  0  0
    4.1321   -3.7070    0.0000 H   0  0  0  0  0  0  0  0  0  0  0  0
    4.5705   -4.4663    0.0000 H   0  0  0  0  0  0  0  0  0  0  0  0
    5.3298   -4.0279    0.0000 H   0  0  0  0  0  0  0  0  0  0  0  0
    4.1149    0.4060    0.0000 H   0  0  0  0  0  0  0  0  0  0  0  0
    3.0968   -0.9106    0.0000 H   0  0  0  0  0  0  0  0  0  0  0  0
    6.0316    0.0839    0.0000 H   0  0  0  0  0  0  0  0  0  0  0  0
    5.1900    2.5322    0.0000 H   0  0  0  0  0  0  0  0  0  0  0  0
    4.3240    2.3950    0.0000 H   0  0  0  0  0  0  0  0  0  0  0  0
    4.4611    1.5290    0.0000 H   0  0  0  0  0  0  0  0  0  0  0  0
    7.0497    1.4851    0.0000 H   0  0  0  0  0  0  0  0  0  0  0  0
    7.6310    3.8674    0.0000 H   0  0  0  0  0  0  0  0  0  0  0  0
  1  8  1  0  0  0  0
  1  9  1  0  0  0  0
  2  7  1  0  0  0  0
  2 34  1  0  0  0  0
  3 13  2  0  0  0  0
  4 20  1  0  0  0  0
  4 40  1  0  0  0  0
  5 20  2  0  0  0  0
  6  7  1  0  0  0  0
  6  9  1  0  0  0  0
  6 10  1  0  0  0  0
  6 12  1  0  0  0  0
  7  8  1  0  0  0  0
  7 15  1  0  0  0  0
  8 11  1  0  0  0  0
  8 14  1  0  0  0  0
  9 21  1  0  0  0  0
  9 22  1  0  0  0  0
 10 13  1  0  0  0  0
 10 23  1  0  0  0  0
 10 24  1  0  0  0  0
 11 13  1  0  0  0  0
 11 25  1  0  0  0  0
 11 26  1  0  0  0  0
 12 27  1  0  0  0  0
 12 28  1  0  0  0  0
 12 29  1  0  0  0  0
 14 30  1  0  0  0  0
 14 31  1  0  0  0  0
 14 32  1  0  0  0  0
 15 16  2  0  0  0  0
 15 33  1  0  0  0  0
 16 17  1  0  0  0  0
 16 35  1  0  0  0  0
 17 18  1  0  0  0  0
 17 19  2  0  0  0  0
 18 36  1  0  0  0  0
 18 37  1  0  0  0  0
 18 38  1  0  0  0  0
 19 20  1  0  0  0  0
 19 39  1  0  0  0  0
M  END
>  <PUBCHEM_COMPOUND_CID>
5363746

>  <PUBCHEM_COMPOUND_CANONICALIZED>
1

>  <PUBCHEM_CACTVS_COMPLEXITY>
520

>  <PUBCHEM_CACTVS_HBOND_ACCEPTOR>
5

>  <PUBCHEM_CACTVS_HBOND_DONOR>
2

>  <PUBCHEM_CACTVS_ROTATABLE_BOND>
3

>  <PUBCHEM_CACTVS_SUBSKEYS>
AAADceBwOAAAAAAAAAAAAAAAAAAAASAAAAAwAAAABIAAAAAAAAAAGgAACAAADkSggAICCAAABgCIAqDSCAAAAAAgAAAICAEAAEgJBBYAAQACUAAF4AALkQOKzPBPgAAAAAAAAAAAAAYAADCAAAAAAAAAAA==

>  <PUBCHEM_IUPAC_OPENEYE_NAME>
(2E,4E)-5-(8-hydroxy-1,5-dimethyl-3-oxo-6-oxabicyclo[3.2.1]octan-8-yl)-3-methyl-penta-2,4-dienoic acid

>  <PUBCHEM_IUPAC_CAS_NAME>
(2E,4E)-5-(8-hydroxy-1,5-dimethyl-3-oxo-6-oxabicyclo[3.2.1]octan-8-yl)-3-methylpenta-2,4-dienoic acid

>  <PUBCHEM_IUPAC_NAME>
(2E,4E)-5-(8-hydroxy-1,5-dimethyl-3-oxo-6-oxabicyclo[3.2.1]octan-8-yl)-3-methylpenta-2,4-dienoic acid

>  <PUBCHEM_IUPAC_SYSTEMATIC_NAME>
(2E,4E)-5-(1,5-dimethyl-8-oxidanyl-3-oxidanylidene-6-oxabicyclo[3.2.1]octan-8-yl)-3-methyl-penta-2,4-dienoic acid

>  <PUBCHEM_IUPAC_TRADITIONAL_NAME>
(2E,4E)-5-(8-hydroxy-3-keto-1,5-dimethyl-6-oxabicyclo[3.2.1]octan-8-yl)-3-methyl-penta-2,4-dienoic acid

>  <PUBCHEM_IUPAC_INCHI>
InChI=1S/C15H20O5/c1-10(6-12(17)18)4-5-15(19)13(2)7-11(16)8-14(15,3)20-9-13/h4-6,19H,7-9H2,1-3H3,(H,17,18)/b5-4+,10-6+

>  <PUBCHEM_IUPAC_INCHIKEY>
IZGYIFFQBZWOLJ-UMCKCUICSA-N

>  <PUBCHEM_XLOGP3_AA>
0.5

>  <PUBCHEM_EXACT_MASS>
280.131

>  <PUBCHEM_MOLECULAR_FORMULA>
C15H20O5

>  <PUBCHEM_MOLECULAR_WEIGHT>
280.32

>  <PUBCHEM_OPENEYE_CAN_SMILES>
CC(=CC(=O)O)C=CC1(C2(CC(=O)CC1(OC2)C)C)O

>  <PUBCHEM_OPENEYE_ISO_SMILES>
C/C(=C\C(=O)O)/C=C/C1(C2(CC(=O)CC1(OC2)C)C)O

>  <PUBCHEM_CACTVS_TPSA>
83.8

>  <PUBCHEM_MONOISOTOPIC_WEIGHT>
280.131

>  <PUBCHEM_TOTAL_CHARGE>
0

>  <PUBCHEM_HEAVY_ATOM_COUNT>
20

>  <PUBCHEM_ATOM_DEF_STEREO_COUNT>
0

>  <PUBCHEM_ATOM_UDEF_STEREO_COUNT>
3

>  <PUBCHEM_BOND_DEF_STEREO_COUNT>
2

>  <PUBCHEM_BOND_UDEF_STEREO_COUNT>
0

>  <PUBCHEM_ISOTOPIC_ATOM_COUNT>
0

>  <PUBCHEM_COMPONENT_COUNT>
1

>  <PUBCHEM_CACTVS_TAUTO_COUNT>
3

>  <PUBCHEM_COORDINATE_TYPE>
1
5
255

>  <PUBCHEM_BONDANNOTATIONS>
6  12  3
7  15  3
8  14  3

$$$$
