5367769
 OpenBabel06101807152D

 37 37  0  0  0  0  0  0  0  0999 V2000
    2.8090   -2.5829    0.0000 O   0  0  0  0  0  0  0  0  0  0  0  0
    8.4627    0.1559    0.0000 O   0  0  0  0  0  0  0  0  0  0  0  0
    4.8913   -0.3396    0.0000 C   0  0  0  0  0  0  0  0  0  0  0  0
    3.8968   -0.2350    0.0000 C   0  0  0  0  0  0  0  0  0  0  0  0
    6.4736    0.3649    0.0000 C   0  0  0  0  0  0  0  0  0  0  0  0
    5.4791    0.4694    0.0000 C   0  0  0  0  0  0  0  0  0  0  0  0
    7.0614    1.1739    0.0000 C   0  0  0  0  0  0  0  0  0  0  0  0
    3.3090   -1.0441    0.0000 C   0  0  0  0  0  0  0  0  0  0  0  0
    6.8804   -0.5486    0.0000 C   0  0  0  0  0  0  0  0  0  0  0  0
    8.0559    1.0694    0.0000 C   0  0  0  0  0  0  0  0  0  0  0  0
    2.3090   -1.0441    0.0000 C   0  0  0  0  0  0  0  0  0  0  0  0
    3.6180   -1.9951    0.0000 C   0  0  0  0  0  0  0  0  0  0  0  0
    8.6437    1.8784    0.0000 C   0  0  0  0  0  0  0  0  0  0  0  0
    9.6382    1.7739    0.0000 C   0  0  0  0  0  0  0  0  0  0  0  0
    2.0000   -1.9951    0.0000 C   0  0  0  0  0  0  0  0  0  0  0  0
   10.2260    2.5829    0.0000 C   0  0  0  0  0  0  0  0  0  0  0  0
   10.0450    0.8603    0.0000 C   0  0  0  0  0  0  0  0  0  0  0  0
    4.7204   -0.9356    0.0000 H   0  0  0  0  0  0  0  0  0  0  0  0
    5.4486   -0.6114    0.0000 H   0  0  0  0  0  0  0  0  0  0  0  0
    4.0677    0.3609    0.0000 H   0  0  0  0  0  0  0  0  0  0  0  0
    3.3396    0.0367    0.0000 H   0  0  0  0  0  0  0  0  0  0  0  0
    5.2269    1.0358    0.0000 H   0  0  0  0  0  0  0  0  0  0  0  0
    7.2323    1.7699    0.0000 H   0  0  0  0  0  0  0  0  0  0  0  0
    6.5042    1.4457    0.0000 H   0  0  0  0  0  0  0  0  0  0  0  0
    6.3140   -0.8008    0.0000 H   0  0  0  0  0  0  0  0  0  0  0  0
    7.1325   -1.1150    0.0000 H   0  0  0  0  0  0  0  0  0  0  0  0
    7.4468   -0.2965    0.0000 H   0  0  0  0  0  0  0  0  0  0  0  0
    1.9446   -0.5425    0.0000 H   0  0  0  0  0  0  0  0  0  0  0  0
    4.2077   -2.1867    0.0000 H   0  0  0  0  0  0  0  0  0  0  0  0
    8.3916    2.4448    0.0000 H   0  0  0  0  0  0  0  0  0  0  0  0
    1.4103   -2.1867    0.0000 H   0  0  0  0  0  0  0  0  0  0  0  0
    9.4786    0.6082    0.0000 H   0  0  0  0  0  0  0  0  0  0  0  0
   10.2972    0.2939    0.0000 H   0  0  0  0  0  0  0  0  0  0  0  0
   10.6114    1.1125    0.0000 H   0  0  0  0  0  0  0  0  0  0  0  0
   10.7276    2.2185    0.0000 H   0  0  0  0  0  0  0  0  0  0  0  0
   10.5905    3.0845    0.0000 H   0  0  0  0  0  0  0  0  0  0  0  0
    9.7244    2.9473    0.0000 H   0  0  0  0  0  0  0  0  0  0  0  0
  1 12  1  0  0  0  0
  1 15  1  0  0  0  0
  2 10  2  0  0  0  0
  3  4  1  0  0  0  0
  3  6  1  0  0  0  0
  3 18  1  0  0  0  0
  3 19  1  0  0  0  0
  4  8  1  0  0  0  0
  4 20  1  0  0  0  0
  4 21  1  0  0  0  0
  5  6  2  0  0  0  0
  5  7  1  0  0  0  0
  5  9  1  0  0  0  0
  6 22  1  0  0  0  0
  7 10  1  0  0  0  0
  7 23  1  0  0  0  0
  7 24  1  0  0  0  0
  8 11  1  0  0  0  0
  8 12  2  0  0  0  0
  9 25  1  0  0  0  0
  9 26  1  0  0  0  0
  9 27  1  0  0  0  0
 10 13  1  0  0  0  0
 11 15  2  0  0  0  0
 11 28  1  0  0  0  0
 12 29  1  0  0  0  0
 13 14  2  0  0  0  0
 13 30  1  0  0  0  0
 14 16  1  0  0  0  0
 14 17  1  0  0  0  0
 15 31  1  0  0  0  0
 16 35  1  0  0  0  0
 16 36  1  0  0  0  0
 16 37  1  0  0  0  0
 17 32  1  0  0  0  0
 17 33  1  0  0  0  0
 17 34  1  0  0  0  0
M  END
>  <PUBCHEM_COMPOUND_CID>
5367769

>  <PUBCHEM_COMPOUND_CANONICALIZED>
1

>  <PUBCHEM_CACTVS_COMPLEXITY>
309

>  <PUBCHEM_CACTVS_HBOND_ACCEPTOR>
2

>  <PUBCHEM_CACTVS_HBOND_DONOR>
0

>  <PUBCHEM_CACTVS_ROTATABLE_BOND>
6

>  <PUBCHEM_CACTVS_SUBSKEYS>
AAADceBwMAAAAAAAAAAAAAAAAAAAASAAAAAAAAAAAAAAAAABgAAAGgAAAAAADASgmAIyBIAABECIAqhSgAACCAAkIAAIiAEGCMgMJhIENQqCGSCkwBEIKYOISAAOAAAAAAAAAAAAAAAAAAAAAAAAAAAAAA==

>  <PUBCHEM_IUPAC_OPENEYE_NAME>
(6E)-9-(3-furyl)-2,6-dimethyl-nona-2,6-dien-4-one

>  <PUBCHEM_IUPAC_CAS_NAME>
(6E)-9-(3-furanyl)-2,6-dimethyl-4-nona-2,6-dienone

>  <PUBCHEM_IUPAC_NAME>
(6E)-9-(furan-3-yl)-2,6-dimethylnona-2,6-dien-4-one

>  <PUBCHEM_IUPAC_SYSTEMATIC_NAME>
(6E)-9-(furan-3-yl)-2,6-dimethyl-nona-2,6-dien-4-one

>  <PUBCHEM_IUPAC_TRADITIONAL_NAME>
(6E)-9-(3-furyl)-2,6-dimethyl-nona-2,6-dien-4-one

>  <PUBCHEM_IUPAC_INCHI>
InChI=1S/C15H20O2/c1-12(2)9-15(16)10-13(3)5-4-6-14-7-8-17-11-14/h5,7-9,11H,4,6,10H2,1-3H3/b13-5+

>  <PUBCHEM_IUPAC_INCHIKEY>
UFGQHNWFUWHNSS-WLRTZDKTSA-N

>  <PUBCHEM_XLOGP3_AA>
3.9

>  <PUBCHEM_EXACT_MASS>
232.146

>  <PUBCHEM_MOLECULAR_FORMULA>
C15H20O2

>  <PUBCHEM_MOLECULAR_WEIGHT>
232.323

>  <PUBCHEM_OPENEYE_CAN_SMILES>
CC(=CC(=O)CC(=CCCC1=COC=C1)C)C

>  <PUBCHEM_OPENEYE_ISO_SMILES>
CC(=CC(=O)C/C(=C/CCC1=COC=C1)/C)C

>  <PUBCHEM_CACTVS_TPSA>
30.2

>  <PUBCHEM_MONOISOTOPIC_WEIGHT>
232.146

>  <PUBCHEM_TOTAL_CHARGE>
0

>  <PUBCHEM_HEAVY_ATOM_COUNT>
17

>  <PUBCHEM_ATOM_DEF_STEREO_COUNT>
0

>  <PUBCHEM_ATOM_UDEF_STEREO_COUNT>
0

>  <PUBCHEM_BOND_DEF_STEREO_COUNT>
1

>  <PUBCHEM_BOND_UDEF_STEREO_COUNT>
0

>  <PUBCHEM_ISOTOPIC_ATOM_COUNT>
0

>  <PUBCHEM_COMPONENT_COUNT>
1

>  <PUBCHEM_CACTVS_TAUTO_COUNT>
13

>  <PUBCHEM_COORDINATE_TYPE>
1
5
255

>  <PUBCHEM_BONDANNOTATIONS>
1  12  8
1  15  8
11  15  8
8  11  8
8  12  8

$$$$
