5378284
 OpenBabel06101807152D

 36 38  0  0  0  0  0  0  0  0999 V2000
    6.3981   -1.7550    0.0000 O   0  0  0  0  0  0  0  0  0  0  0  0
    8.1465    1.2796    0.0000 O   0  0  0  0  0  0  0  0  0  0  0  0
    9.9282    0.2692    0.0000 O   0  0  0  0  0  0  0  0  0  0  0  0
    6.3981    1.2450    0.0000 O   0  0  0  0  0  0  0  0  0  0  0  0
    4.6497    1.2796    0.0000 O   0  0  0  0  0  0  0  0  0  0  0  0
    2.8680   -1.7791    0.0000 O   0  0  0  0  0  0  0  0  0  0  0  0
    7.2641   -0.2550    0.0000 C   0  0  0  0  0  0  0  0  0  0  0  0
    5.5320   -0.2550    0.0000 C   0  0  0  0  0  0  0  0  0  0  0  0
    7.2641   -1.2550    0.0000 C   0  0  0  0  0  0  0  0  0  0  0  0
    5.5320   -1.2550    0.0000 C   0  0  0  0  0  0  0  0  0  0  0  0
    6.3981    0.2450    0.0000 C   0  0  0  0  0  0  0  0  0  0  0  0
    8.1580    0.2797    0.0000 C   0  0  0  0  0  0  0  0  0  0  0  0
    4.6381    0.2797    0.0000 C   0  0  0  0  0  0  0  0  0  0  0  0
    8.1580   -1.7896    0.0000 C   0  0  0  0  0  0  0  0  0  0  0  0
    9.0641   -0.2341    0.0000 C   0  0  0  0  0  0  0  0  0  0  0  0
    4.6381   -1.7896    0.0000 C   0  0  0  0  0  0  0  0  0  0  0  0
    9.0641   -1.2758    0.0000 C   0  0  0  0  0  0  0  0  0  0  0  0
    3.7320   -1.2758    0.0000 C   0  0  0  0  0  0  0  0  0  0  0  0
    3.7320   -0.2341    0.0000 C   0  0  0  0  0  0  0  0  0  0  0  0
    9.0067    1.7896    0.0000 C   0  0  0  0  0  0  0  0  0  0  0  0
   10.7961   -0.2275    0.0000 C   0  0  0  0  0  0  0  0  0  0  0  0
    2.0000   -1.2824    0.0000 C   0  0  0  0  0  0  0  0  0  0  0  0
    8.1509   -2.4096    0.0000 H   0  0  0  0  0  0  0  0  0  0  0  0
    4.6453   -2.4096    0.0000 H   0  0  0  0  0  0  0  0  0  0  0  0
    9.5998   -1.5878    0.0000 H   0  0  0  0  0  0  0  0  0  0  0  0
    3.1963    0.0779    0.0000 H   0  0  0  0  0  0  0  0  0  0  0  0
    4.1164    1.5958    0.0000 H   0  0  0  0  0  0  0  0  0  0  0  0
    9.3229    1.2563    0.0000 H   0  0  0  0  0  0  0  0  0  0  0  0
    9.5400    2.1058    0.0000 H   0  0  0  0  0  0  0  0  0  0  0  0
    8.6905    2.3229    0.0000 H   0  0  0  0  0  0  0  0  0  0  0  0
   10.4882   -0.7656    0.0000 H   0  0  0  0  0  0  0  0  0  0  0  0
   11.3343   -0.5354    0.0000 H   0  0  0  0  0  0  0  0  0  0  0  0
   11.1041    0.3107    0.0000 H   0  0  0  0  0  0  0  0  0  0  0  0
    2.3079   -0.7443    0.0000 H   0  0  0  0  0  0  0  0  0  0  0  0
    1.4619   -0.9745    0.0000 H   0  0  0  0  0  0  0  0  0  0  0  0
    1.6921   -1.8206    0.0000 H   0  0  0  0  0  0  0  0  0  0  0  0
  1  9  1  0  0  0  0
  1 10  1  0  0  0  0
  2 12  1  0  0  0  0
  2 20  1  0  0  0  0
  3 15  1  0  0  0  0
  3 21  1  0  0  0  0
  4 11  2  0  0  0  0
  5 13  1  0  0  0  0
  5 27  1  0  0  0  0
  6 18  1  0  0  0  0
  6 22  1  0  0  0  0
  7  9  2  0  0  0  0
  7 11  1  0  0  0  0
  7 12  1  0  0  0  0
  8 10  1  0  0  0  0
  8 11  1  0  0  0  0
  8 13  2  0  0  0  0
  9 14  1  0  0  0  0
 10 16  2  0  0  0  0
 12 15  2  0  0  0  0
 13 19  1  0  0  0  0
 14 17  2  0  0  0  0
 14 23  1  0  0  0  0
 15 17  1  0  0  0  0
 16 18  1  0  0  0  0
 16 24  1  0  0  0  0
 17 25  1  0  0  0  0
 18 19  2  0  0  0  0
 19 26  1  0  0  0  0
 20 28  1  0  0  0  0
 20 29  1  0  0  0  0
 20 30  1  0  0  0  0
 21 31  1  0  0  0  0
 21 32  1  0  0  0  0
 21 33  1  0  0  0  0
 22 34  1  0  0  0  0
 22 35  1  0  0  0  0
 22 36  1  0  0  0  0
M  END
>  <PUBCHEM_COMPOUND_CID>
5378284

>  <PUBCHEM_COMPOUND_CANONICALIZED>
1

>  <PUBCHEM_CACTVS_COMPLEXITY>
413

>  <PUBCHEM_CACTVS_HBOND_ACCEPTOR>
6

>  <PUBCHEM_CACTVS_HBOND_DONOR>
1

>  <PUBCHEM_CACTVS_ROTATABLE_BOND>
3

>  <PUBCHEM_CACTVS_SUBSKEYS>
AAADccB4OAAAAAAAAAAAAAAAAAAAAAAAAAA0YIAAAAAAAACRQAAAGgAACAAADASAmAIyBoAABgCIAqBSAAACCAAkIAAIiAEGiMgNJzaGNRqCeWKl4BUKuQfK7PzOIQABCAAIQABCAAIQABCAAAAAAAAAAA==

>  <PUBCHEM_IUPAC_OPENEYE_NAME>
8-hydroxy-1,2,6-trimethoxy-xanthen-9-one

>  <PUBCHEM_IUPAC_CAS_NAME>
8-hydroxy-1,2,6-trimethoxy-9-xanthenone

>  <PUBCHEM_IUPAC_NAME>
8-hydroxy-1,2,6-trimethoxyxanthen-9-one

>  <PUBCHEM_IUPAC_SYSTEMATIC_NAME>
1,2,6-trimethoxy-8-oxidanyl-xanthen-9-one

>  <PUBCHEM_IUPAC_TRADITIONAL_NAME>
8-hydroxy-1,2,6-trimethoxy-xanthone

>  <PUBCHEM_IUPAC_INCHI>
InChI=1S/C16H14O6/c1-19-8-6-9(17)13-12(7-8)22-10-4-5-11(20-2)16(21-3)14(10)15(13)18/h4-7,17H,1-3H3

>  <PUBCHEM_IUPAC_INCHIKEY>
VYRIGRQQKUZPEX-UHFFFAOYSA-N

>  <PUBCHEM_XLOGP3_AA>
3.1

>  <PUBCHEM_EXACT_MASS>
302.079

>  <PUBCHEM_MOLECULAR_FORMULA>
C16H14O6

>  <PUBCHEM_MOLECULAR_WEIGHT>
302.282

>  <PUBCHEM_OPENEYE_CAN_SMILES>
COC1=C(C2=C(C=C1)OC3=CC(=CC(=C3C2=O)O)OC)OC

>  <PUBCHEM_OPENEYE_ISO_SMILES>
COC1=C(C2=C(C=C1)OC3=CC(=CC(=C3C2=O)O)OC)OC

>  <PUBCHEM_CACTVS_TPSA>
74.2

>  <PUBCHEM_MONOISOTOPIC_WEIGHT>
302.079

>  <PUBCHEM_TOTAL_CHARGE>
0

>  <PUBCHEM_HEAVY_ATOM_COUNT>
22

>  <PUBCHEM_ATOM_DEF_STEREO_COUNT>
0

>  <PUBCHEM_ATOM_UDEF_STEREO_COUNT>
0

>  <PUBCHEM_BOND_DEF_STEREO_COUNT>
0

>  <PUBCHEM_BOND_UDEF_STEREO_COUNT>
0

>  <PUBCHEM_ISOTOPIC_ATOM_COUNT>
0

>  <PUBCHEM_COMPONENT_COUNT>
1

>  <PUBCHEM_CACTVS_TAUTO_COUNT>
5

>  <PUBCHEM_COORDINATE_TYPE>
1
5
255

>  <PUBCHEM_BONDANNOTATIONS>
1  10  8
1  9  8
10  16  8
12  15  8
13  19  8
14  17  8
15  17  8
16  18  8
18  19  8
7  11  8
7  12  8
7  9  8
8  10  8
8  11  8
8  13  8
9  14  8

$$$$
