5378945
 OpenBabel06101807152D

 44 46  0  0  0  0  0  0  0  0999 V2000
    9.4931   -1.4917    0.0000 O   0  0  0  0  0  0  0  0  0  0  0  0
    7.7331    1.5429    0.0000 O   0  0  0  0  0  0  0  0  0  0  0  0
    6.0010   -1.4571    0.0000 O   0  0  0  0  0  0  0  0  0  0  0  0
    9.4815    1.5775    0.0000 O   0  0  0  0  0  0  0  0  0  0  0  0
    2.5369    0.5429    0.0000 O   0  0  0  0  0  0  0  0  0  0  0  0
   13.8555    2.0771    0.0000 O   0  0  0  0  0  0  0  0  0  0  0  0
    6.8671    0.0429    0.0000 C   0  0  0  0  0  0  0  0  0  0  0  0
    8.5991    0.0429    0.0000 C   0  0  0  0  0  0  0  0  0  0  0  0
    7.7331    0.5429    0.0000 C   0  0  0  0  0  0  0  0  0  0  0  0
    6.0010    0.5429    0.0000 C   0  0  0  0  0  0  0  0  0  0  0  0
    8.5991   -0.9571    0.0000 C   0  0  0  0  0  0  0  0  0  0  0  0
    6.8671   -0.9571    0.0000 C   0  0  0  0  0  0  0  0  0  0  0  0
    9.4931    0.5776    0.0000 C   0  0  0  0  0  0  0  0  0  0  0  0
   10.3991    0.0637    0.0000 C   0  0  0  0  0  0  0  0  0  0  0  0
    7.7331   -1.4571    0.0000 C   0  0  0  0  0  0  0  0  0  0  0  0
    5.1350    0.0429    0.0000 C   0  0  0  0  0  0  0  0  0  0  0  0
   11.2632    0.5671    0.0000 C   0  0  0  0  0  0  0  0  0  0  0  0
   10.3991   -0.9779    0.0000 C   0  0  0  0  0  0  0  0  0  0  0  0
    4.2690    0.5429    0.0000 C   0  0  0  0  0  0  0  0  0  0  0  0
   12.1312    0.0704    0.0000 C   0  0  0  0  0  0  0  0  0  0  0  0
   11.2594    1.5671    0.0000 C   0  0  0  0  0  0  0  0  0  0  0  0
    3.4030    0.0429    0.0000 C   0  0  0  0  0  0  0  0  0  0  0  0
    4.2690    1.5429    0.0000 C   0  0  0  0  0  0  0  0  0  0  0  0
   12.9953    0.5738    0.0000 C   0  0  0  0  0  0  0  0  0  0  0  0
   12.1235    2.0704    0.0000 C   0  0  0  0  0  0  0  0  0  0  0  0
   12.9914    1.5737    0.0000 C   0  0  0  0  0  0  0  0  0  0  0  0
    6.3996    1.0179    0.0000 H   0  0  0  0  0  0  0  0  0  0  0  0
    5.6025    1.0179    0.0000 H   0  0  0  0  0  0  0  0  0  0  0  0
    7.7331   -2.0771    0.0000 H   0  0  0  0  0  0  0  0  0  0  0  0
    5.1350   -0.5771    0.0000 H   0  0  0  0  0  0  0  0  0  0  0  0
   10.9349   -1.2900    0.0000 H   0  0  0  0  0  0  0  0  0  0  0  0
   12.1336   -0.5496    0.0000 H   0  0  0  0  0  0  0  0  0  0  0  0
   10.7212    1.8750    0.0000 H   0  0  0  0  0  0  0  0  0  0  0  0
    7.1962    1.8529    0.0000 H   0  0  0  0  0  0  0  0  0  0  0  0
    3.0044   -0.4320    0.0000 H   0  0  0  0  0  0  0  0  0  0  0  0
    3.8015   -0.4320    0.0000 H   0  0  0  0  0  0  0  0  0  0  0  0
    4.8890    1.5429    0.0000 H   0  0  0  0  0  0  0  0  0  0  0  0
    4.2690    2.1629    0.0000 H   0  0  0  0  0  0  0  0  0  0  0  0
    3.6490    1.5429    0.0000 H   0  0  0  0  0  0  0  0  0  0  0  0
    6.0010   -2.0771    0.0000 H   0  0  0  0  0  0  0  0  0  0  0  0
   13.5334    0.2658    0.0000 H   0  0  0  0  0  0  0  0  0  0  0  0
   12.1211    2.6904    0.0000 H   0  0  0  0  0  0  0  0  0  0  0  0
    2.0000    0.2329    0.0000 H   0  0  0  0  0  0  0  0  0  0  0  0
   14.3936    1.7692    0.0000 H   0  0  0  0  0  0  0  0  0  0  0  0
  1 11  1  0  0  0  0
  1 18  1  0  0  0  0
  2  9  1  0  0  0  0
  2 34  1  0  0  0  0
  3 12  1  0  0  0  0
  3 40  1  0  0  0  0
  4 13  2  0  0  0  0
  5 22  1  0  0  0  0
  5 43  1  0  0  0  0
  6 26  1  0  0  0  0
  6 44  1  0  0  0  0
  7  9  2  0  0  0  0
  7 10  1  0  0  0  0
  7 12  1  0  0  0  0
  8  9  1  0  0  0  0
  8 11  2  0  0  0  0
  8 13  1  0  0  0  0
 10 16  1  0  0  0  0
 10 27  1  0  0  0  0
 10 28  1  0  0  0  0
 11 15  1  0  0  0  0
 12 15  2  0  0  0  0
 13 14  1  0  0  0  0
 14 17  1  0  0  0  0
 14 18  2  0  0  0  0
 15 29  1  0  0  0  0
 16 19  2  0  0  0  0
 16 30  1  0  0  0  0
 17 20  2  0  0  0  0
 17 21  1  0  0  0  0
 18 31  1  0  0  0  0
 19 22  1  0  0  0  0
 19 23  1  0  0  0  0
 20 24  1  0  0  0  0
 20 32  1  0  0  0  0
 21 25  2  0  0  0  0
 21 33  1  0  0  0  0
 22 35  1  0  0  0  0
 22 36  1  0  0  0  0
 23 37  1  0  0  0  0
 23 38  1  0  0  0  0
 23 39  1  0  0  0  0
 24 26  2  0  0  0  0
 24 41  1  0  0  0  0
 25 26  1  0  0  0  0
 25 42  1  0  0  0  0
M  END
>  <PUBCHEM_COMPOUND_CID>
5378945

>  <PUBCHEM_COMPOUND_CANONICALIZED>
1

>  <PUBCHEM_CACTVS_COMPLEXITY>
575

>  <PUBCHEM_CACTVS_HBOND_ACCEPTOR>
6

>  <PUBCHEM_CACTVS_HBOND_DONOR>
4

>  <PUBCHEM_CACTVS_ROTATABLE_BOND>
4

>  <PUBCHEM_CACTVS_SUBSKEYS>
AAADceB4OAAAAAAAAAAAAAAAAAAAAAAAAAAwYIAAAAAAAACBQAAAGgAACAAADASgmAIyBoAABgCIAqBSAAACCAAkIAAIiAEGCMgMNzaGNRqAcWAl4BUIuYeI7PzOIAACCAAIAABAAAQQABAAAAAAAAAAAA==

>  <PUBCHEM_IUPAC_OPENEYE_NAME>
5,7-dihydroxy-6-[(E)-4-hydroxy-3-methyl-but-2-enyl]-3-(4-hydroxyphenyl)chromen-4-one

>  <PUBCHEM_IUPAC_CAS_NAME>
5,7-dihydroxy-6-[(E)-4-hydroxy-3-methylbut-2-enyl]-3-(4-hydroxyphenyl)-1-benzopyran-4-one

>  <PUBCHEM_IUPAC_NAME>
5,7-dihydroxy-6-[(E)-4-hydroxy-3-methylbut-2-enyl]-3-(4-hydroxyphenyl)chromen-4-one

>  <PUBCHEM_IUPAC_SYSTEMATIC_NAME>
3-(4-hydroxyphenyl)-6-[(E)-3-methyl-4-oxidanyl-but-2-enyl]-5,7-bis(oxidanyl)chromen-4-one

>  <PUBCHEM_IUPAC_TRADITIONAL_NAME>
5,7-dihydroxy-6-[(E)-4-hydroxy-3-methyl-but-2-enyl]-3-(4-hydroxyphenyl)chromone

>  <PUBCHEM_IUPAC_INCHI>
InChI=1S/C20H18O6/c1-11(9-21)2-7-14-16(23)8-17-18(19(14)24)20(25)15(10-26-17)12-3-5-13(22)6-4-12/h2-6,8,10,21-24H,7,9H2,1H3/b11-2+

>  <PUBCHEM_IUPAC_INCHIKEY>
AROTXIUFXQZGLT-BIIKFXOESA-N

>  <PUBCHEM_XLOGP3_AA>
3.3

>  <PUBCHEM_EXACT_MASS>
354.11

>  <PUBCHEM_MOLECULAR_FORMULA>
C20H18O6

>  <PUBCHEM_MOLECULAR_WEIGHT>
354.358

>  <PUBCHEM_OPENEYE_CAN_SMILES>
CC(=CCC1=C(C=C2C(=C1O)C(=O)C(=CO2)C3=CC=C(C=C3)O)O)CO

>  <PUBCHEM_OPENEYE_ISO_SMILES>
C/C(=C\CC1=C(C=C2C(=C1O)C(=O)C(=CO2)C3=CC=C(C=C3)O)O)/CO

>  <PUBCHEM_CACTVS_TPSA>
107

>  <PUBCHEM_MONOISOTOPIC_WEIGHT>
354.11

>  <PUBCHEM_TOTAL_CHARGE>
0

>  <PUBCHEM_HEAVY_ATOM_COUNT>
26

>  <PUBCHEM_ATOM_DEF_STEREO_COUNT>
0

>  <PUBCHEM_ATOM_UDEF_STEREO_COUNT>
0

>  <PUBCHEM_BOND_DEF_STEREO_COUNT>
1

>  <PUBCHEM_BOND_UDEF_STEREO_COUNT>
0

>  <PUBCHEM_ISOTOPIC_ATOM_COUNT>
0

>  <PUBCHEM_COMPONENT_COUNT>
1

>  <PUBCHEM_CACTVS_TAUTO_COUNT>
24

>  <PUBCHEM_COORDINATE_TYPE>
1
5
255

>  <PUBCHEM_BONDANNOTATIONS>
1  11  8
1  18  8
11  15  8
12  15  8
13  14  8
14  18  8
17  20  8
17  21  8
20  24  8
21  25  8
24  26  8
25  26  8
7  12  8
7  9  8
8  11  8
8  13  8
8  9  8

$$$$
