5385026
 OpenBabel06101807152D

 37 39  0  0  0  0  0  0  0  0999 V2000
    6.3981   -1.0223    0.0000 O   0  0  0  0  0  0  0  0  0  0  0  0
    4.6497    2.0123    0.0000 O   0  0  0  0  0  0  0  0  0  0  0  0
    2.8680    1.0019    0.0000 O   0  0  0  0  0  0  0  0  0  0  0  0
    8.1301    0.9777    0.0000 O   0  0  0  0  0  0  0  0  0  0  0  0
    2.8680   -1.0464    0.0000 O   0  0  0  0  0  0  0  0  0  0  0  0
    6.3981    1.9777    0.0000 O   0  0  0  0  0  0  0  0  0  0  0  0
    5.5320    0.4777    0.0000 C   0  0  0  0  0  0  0  0  0  0  0  0
    5.5320   -0.5223    0.0000 C   0  0  0  0  0  0  0  0  0  0  0  0
    4.6381    1.0124    0.0000 C   0  0  0  0  0  0  0  0  0  0  0  0
    7.2641   -0.5223    0.0000 C   0  0  0  0  0  0  0  0  0  0  0  0
    6.3981    0.9777    0.0000 C   0  0  0  0  0  0  0  0  0  0  0  0
    3.7320    0.4985    0.0000 C   0  0  0  0  0  0  0  0  0  0  0  0
    7.2641    0.4777    0.0000 C   0  0  0  0  0  0  0  0  0  0  0  0
    4.6381   -1.0570    0.0000 C   0  0  0  0  0  0  0  0  0  0  0  0
    3.7320   -0.5431    0.0000 C   0  0  0  0  0  0  0  0  0  0  0  0
    8.1301   -1.0223    0.0000 C   0  0  0  0  0  0  0  0  0  0  0  0
    8.1301   -2.0223    0.0000 C   0  0  0  0  0  0  0  0  0  0  0  0
    8.9962   -0.5223    0.0000 C   0  0  0  0  0  0  0  0  0  0  0  0
    8.9962   -2.5223    0.0000 C   0  0  0  0  0  0  0  0  0  0  0  0
    9.8622   -1.0223    0.0000 C   0  0  0  0  0  0  0  0  0  0  0  0
    9.8622   -2.0223    0.0000 C   0  0  0  0  0  0  0  0  0  0  0  0
    3.7895    2.5223    0.0000 C   0  0  0  0  0  0  0  0  0  0  0  0
    2.0000    0.5052    0.0000 C   0  0  0  0  0  0  0  0  0  0  0  0
    4.6453   -1.6769    0.0000 H   0  0  0  0  0  0  0  0  0  0  0  0
    7.5932   -2.3323    0.0000 H   0  0  0  0  0  0  0  0  0  0  0  0
    8.9962    0.0977    0.0000 H   0  0  0  0  0  0  0  0  0  0  0  0
    8.9962   -3.1423    0.0000 H   0  0  0  0  0  0  0  0  0  0  0  0
   10.3991   -0.7123    0.0000 H   0  0  0  0  0  0  0  0  0  0  0  0
    8.1301    1.5977    0.0000 H   0  0  0  0  0  0  0  0  0  0  0  0
   10.3991   -2.3323    0.0000 H   0  0  0  0  0  0  0  0  0  0  0  0
    2.8703   -1.6664    0.0000 H   0  0  0  0  0  0  0  0  0  0  0  0
    4.1057    3.0556    0.0000 H   0  0  0  0  0  0  0  0  0  0  0  0
    3.2562    2.8385    0.0000 H   0  0  0  0  0  0  0  0  0  0  0  0
    3.4733    1.9890    0.0000 H   0  0  0  0  0  0  0  0  0  0  0  0
    1.6921    1.0433    0.0000 H   0  0  0  0  0  0  0  0  0  0  0  0
    1.4619    0.1973    0.0000 H   0  0  0  0  0  0  0  0  0  0  0  0
    2.3079   -0.0329    0.0000 H   0  0  0  0  0  0  0  0  0  0  0  0
  1  8  1  0  0  0  0
  1 10  1  0  0  0  0
  2  9  1  0  0  0  0
  2 22  1  0  0  0  0
  3 12  1  0  0  0  0
  3 23  1  0  0  0  0
  4 13  1  0  0  0  0
  4 29  1  0  0  0  0
  5 15  1  0  0  0  0
  5 31  1  0  0  0  0
  6 11  2  0  0  0  0
  7  8  2  0  0  0  0
  7  9  1  0  0  0  0
  7 11  1  0  0  0  0
  8 14  1  0  0  0  0
  9 12  2  0  0  0  0
 10 13  2  0  0  0  0
 10 16  1  0  0  0  0
 11 13  1  0  0  0  0
 12 15  1  0  0  0  0
 14 15  2  0  0  0  0
 14 24  1  0  0  0  0
 16 17  2  0  0  0  0
 16 18  1  0  0  0  0
 17 19  1  0  0  0  0
 17 25  1  0  0  0  0
 18 20  2  0  0  0  0
 18 26  1  0  0  0  0
 19 21  2  0  0  0  0
 19 27  1  0  0  0  0
 20 21  1  0  0  0  0
 20 28  1  0  0  0  0
 21 30  1  0  0  0  0
 22 32  1  0  0  0  0
 22 33  1  0  0  0  0
 22 34  1  0  0  0  0
 23 35  1  0  0  0  0
 23 36  1  0  0  0  0
 23 37  1  0  0  0  0
M  END
>  <PUBCHEM_COMPOUND_CID>
5385026

>  <PUBCHEM_COMPOUND_CANONICALIZED>
1

>  <PUBCHEM_CACTVS_COMPLEXITY>
482

>  <PUBCHEM_CACTVS_HBOND_ACCEPTOR>
6

>  <PUBCHEM_CACTVS_HBOND_DONOR>
2

>  <PUBCHEM_CACTVS_ROTATABLE_BOND>
3

>  <PUBCHEM_CACTVS_SUBSKEYS>
AAADccB4OAAAAAAAAAAAAAAAAAAAAAAAAAAwYIAAAAAAAACBQAAAGgAACAAADASAmAIyBoAABgCIAqBSAAICCAAkIAAIiAFGiMgNJzaGNRqCeWOl4BULuQfK7LzOIQABCAAIQABCAAIQABCAAAAAAAAAAA==

>  <PUBCHEM_IUPAC_OPENEYE_NAME>
3,7-dihydroxy-5,6-dimethoxy-2-phenyl-chromen-4-one

>  <PUBCHEM_IUPAC_CAS_NAME>
3,7-dihydroxy-5,6-dimethoxy-2-phenyl-1-benzopyran-4-one

>  <PUBCHEM_IUPAC_NAME>
3,7-dihydroxy-5,6-dimethoxy-2-phenylchromen-4-one

>  <PUBCHEM_IUPAC_SYSTEMATIC_NAME>
5,6-dimethoxy-3,7-bis(oxidanyl)-2-phenyl-chromen-4-one

>  <PUBCHEM_IUPAC_TRADITIONAL_NAME>
3,7-dihydroxy-5,6-dimethoxy-2-phenyl-chromone

>  <PUBCHEM_IUPAC_INCHI>
InChI=1S/C17H14O6/c1-21-16-10(18)8-11-12(17(16)22-2)13(19)14(20)15(23-11)9-6-4-3-5-7-9/h3-8,18,20H,1-2H3

>  <PUBCHEM_IUPAC_INCHIKEY>
JQVMODDCULNOHN-UHFFFAOYSA-N

>  <PUBCHEM_XLOGP3_AA>
2.6

>  <PUBCHEM_EXACT_MASS>
314.079

>  <PUBCHEM_MOLECULAR_FORMULA>
C17H14O6

>  <PUBCHEM_MOLECULAR_WEIGHT>
314.293

>  <PUBCHEM_OPENEYE_CAN_SMILES>
COC1=C(C=C2C(=C1OC)C(=O)C(=C(O2)C3=CC=CC=C3)O)O

>  <PUBCHEM_OPENEYE_ISO_SMILES>
COC1=C(C=C2C(=C1OC)C(=O)C(=C(O2)C3=CC=CC=C3)O)O

>  <PUBCHEM_CACTVS_TPSA>
85.2

>  <PUBCHEM_MONOISOTOPIC_WEIGHT>
314.079

>  <PUBCHEM_TOTAL_CHARGE>
0

>  <PUBCHEM_HEAVY_ATOM_COUNT>
23

>  <PUBCHEM_ATOM_DEF_STEREO_COUNT>
0

>  <PUBCHEM_ATOM_UDEF_STEREO_COUNT>
0

>  <PUBCHEM_BOND_DEF_STEREO_COUNT>
0

>  <PUBCHEM_BOND_UDEF_STEREO_COUNT>
0

>  <PUBCHEM_ISOTOPIC_ATOM_COUNT>
0

>  <PUBCHEM_COMPONENT_COUNT>
1

>  <PUBCHEM_CACTVS_TAUTO_COUNT>
10

>  <PUBCHEM_COORDINATE_TYPE>
1
5
255

>  <PUBCHEM_BONDANNOTATIONS>
1  10  8
1  8  8
10  13  8
11  13  8
12  15  8
14  15  8
16  17  8
16  18  8
17  19  8
18  20  8
19  21  8
20  21  8
7  11  8
7  8  8
7  9  8
8  14  8
9  12  8

$$$$
