5386264
 OpenBabel06101807152D

 28 30  0  0  0  0  0  0  0  0999 V2000
    4.6660   -1.1900    0.0000 O   0  0  0  0  0  0  0  0  0  0  0  0
    8.1962    0.8342    0.0000 O   0  0  0  0  0  0  0  0  0  0  0  0
    4.6660    1.8100    0.0000 O   0  0  0  0  0  0  0  0  0  0  0  0
    8.1962   -1.2142    0.0000 O   0  0  0  0  0  0  0  0  0  0  0  0
    5.5321    0.3100    0.0000 C   0  0  0  0  0  0  0  0  0  0  0  0
    5.5321   -0.6900    0.0000 C   0  0  0  0  0  0  0  0  0  0  0  0
    3.8000    0.3100    0.0000 C   0  0  0  0  0  0  0  0  0  0  0  0
    4.6660    0.8100    0.0000 C   0  0  0  0  0  0  0  0  0  0  0  0
    3.8000   -0.6900    0.0000 C   0  0  0  0  0  0  0  0  0  0  0  0
    6.4260    0.8447    0.0000 C   0  0  0  0  0  0  0  0  0  0  0  0
    6.4260   -1.2247    0.0000 C   0  0  0  0  0  0  0  0  0  0  0  0
    7.3321    0.3308    0.0000 C   0  0  0  0  0  0  0  0  0  0  0  0
    7.3321   -0.7108    0.0000 C   0  0  0  0  0  0  0  0  0  0  0  0
    2.9061    0.8447    0.0000 C   0  0  0  0  0  0  0  0  0  0  0  0
    2.9061   -1.2247    0.0000 C   0  0  0  0  0  0  0  0  0  0  0  0
    2.0000    0.3308    0.0000 C   0  0  0  0  0  0  0  0  0  0  0  0
    2.0000   -0.7108    0.0000 C   0  0  0  0  0  0  0  0  0  0  0  0
    8.1923    1.8341    0.0000 C   0  0  0  0  0  0  0  0  0  0  0  0
    6.4188    1.4646    0.0000 H   0  0  0  0  0  0  0  0  0  0  0  0
    6.4188   -1.8446    0.0000 H   0  0  0  0  0  0  0  0  0  0  0  0
    2.9132    1.4646    0.0000 H   0  0  0  0  0  0  0  0  0  0  0  0
    2.9132   -1.8446    0.0000 H   0  0  0  0  0  0  0  0  0  0  0  0
    1.4643    0.6429    0.0000 H   0  0  0  0  0  0  0  0  0  0  0  0
    1.4643   -1.0229    0.0000 H   0  0  0  0  0  0  0  0  0  0  0  0
    8.1938   -1.8341    0.0000 H   0  0  0  0  0  0  0  0  0  0  0  0
    8.8123    1.8365    0.0000 H   0  0  0  0  0  0  0  0  0  0  0  0
    8.1899    2.4541    0.0000 H   0  0  0  0  0  0  0  0  0  0  0  0
    7.5723    1.8318    0.0000 H   0  0  0  0  0  0  0  0  0  0  0  0
  1  6  1  0  0  0  0
  1  9  1  0  0  0  0
  2 12  1  0  0  0  0
  2 18  1  0  0  0  0
  3  8  2  0  0  0  0
  4 13  1  0  0  0  0
  4 25  1  0  0  0  0
  5  6  1  0  0  0  0
  5  8  1  0  0  0  0
  5 10  2  0  0  0  0
  6 11  2  0  0  0  0
  7  8  1  0  0  0  0
  7  9  1  0  0  0  0
  7 14  2  0  0  0  0
  9 15  2  0  0  0  0
 10 12  1  0  0  0  0
 10 19  1  0  0  0  0
 11 13  1  0  0  0  0
 11 20  1  0  0  0  0
 12 13  2  0  0  0  0
 14 16  1  0  0  0  0
 14 21  1  0  0  0  0
 15 17  1  0  0  0  0
 15 22  1  0  0  0  0
 16 17  2  0  0  0  0
 16 23  1  0  0  0  0
 17 24  1  0  0  0  0
 18 26  1  0  0  0  0
 18 27  1  0  0  0  0
 18 28  1  0  0  0  0
M  END
>  <PUBCHEM_COMPOUND_CID>
5386264

>  <PUBCHEM_COMPOUND_CANONICALIZED>
1

>  <PUBCHEM_CACTVS_COMPLEXITY>
330

>  <PUBCHEM_CACTVS_HBOND_ACCEPTOR>
4

>  <PUBCHEM_CACTVS_HBOND_DONOR>
1

>  <PUBCHEM_CACTVS_ROTATABLE_BOND>
1

>  <PUBCHEM_CACTVS_SUBSKEYS>
AAADccBwOAAAAAAAAAAAAAAAAAAAAAAAAAA0YIAAAAAAAACRQAAAGgAACAAADASAmAIyBoAABgCIAqBSAAACCAAkIAAIiAEGiMgNJzaGNRqCeWOl4BULuYfK7PzOIQABCAAIQABCAAIQABCAAAAAAAAAAA==

>  <PUBCHEM_IUPAC_OPENEYE_NAME>
3-hydroxy-2-methoxy-xanthen-9-one

>  <PUBCHEM_IUPAC_CAS_NAME>
3-hydroxy-2-methoxy-9-xanthenone

>  <PUBCHEM_IUPAC_NAME>
3-hydroxy-2-methoxyxanthen-9-one

>  <PUBCHEM_IUPAC_SYSTEMATIC_NAME>
2-methoxy-3-oxidanyl-xanthen-9-one

>  <PUBCHEM_IUPAC_TRADITIONAL_NAME>
3-hydroxy-2-methoxy-xanthone

>  <PUBCHEM_IUPAC_INCHI>
InChI=1S/C14H10O4/c1-17-13-6-9-12(7-10(13)15)18-11-5-3-2-4-8(11)14(9)16/h2-7,15H,1H3

>  <PUBCHEM_IUPAC_INCHIKEY>
VVZBRQKEVJGCCA-UHFFFAOYSA-N

>  <PUBCHEM_XLOGP3_AA>
2.6

>  <PUBCHEM_EXACT_MASS>
242.058

>  <PUBCHEM_MOLECULAR_FORMULA>
C14H10O4

>  <PUBCHEM_MOLECULAR_WEIGHT>
242.23

>  <PUBCHEM_OPENEYE_CAN_SMILES>
COC1=C(C=C2C(=C1)C(=O)C3=CC=CC=C3O2)O

>  <PUBCHEM_OPENEYE_ISO_SMILES>
COC1=C(C=C2C(=C1)C(=O)C3=CC=CC=C3O2)O

>  <PUBCHEM_CACTVS_TPSA>
55.8

>  <PUBCHEM_MONOISOTOPIC_WEIGHT>
242.058

>  <PUBCHEM_TOTAL_CHARGE>
0

>  <PUBCHEM_HEAVY_ATOM_COUNT>
18

>  <PUBCHEM_ATOM_DEF_STEREO_COUNT>
0

>  <PUBCHEM_ATOM_UDEF_STEREO_COUNT>
0

>  <PUBCHEM_BOND_DEF_STEREO_COUNT>
0

>  <PUBCHEM_BOND_UDEF_STEREO_COUNT>
0

>  <PUBCHEM_ISOTOPIC_ATOM_COUNT>
0

>  <PUBCHEM_COMPONENT_COUNT>
1

>  <PUBCHEM_CACTVS_TAUTO_COUNT>
5

>  <PUBCHEM_COORDINATE_TYPE>
1
5
255

>  <PUBCHEM_BONDANNOTATIONS>
1  6  8
1  9  8
10  12  8
11  13  8
12  13  8
14  16  8
15  17  8
16  17  8
5  10  8
5  6  8
5  8  8
6  11  8
7  14  8
7  8  8
7  9  8
9  15  8

$$$$
