5388319
 OpenBabel06101807152D

 83 90  0  0  1  0  0  0  0  0999 V2000
    9.3033   -2.1178    0.0000 O   0  0  0  0  0  0  0  0  0  0  0  0
    8.4228    2.0915    0.0000 O   0  0  0  0  0  0  0  0  0  0  0  0
    5.7590   -2.3131    0.0000 O   0  0  0  0  0  0  0  0  0  0  0  0
    5.3882    3.9331    0.0000 O   0  0  0  0  0  0  0  0  0  0  0  0
    8.5890    2.8813    0.0000 O   0  0  0  0  0  0  0  0  0  0  0  0
   11.8817    1.8051    0.0000 O   0  0  0  0  0  0  0  0  0  0  0  0
   12.3607   -0.1359    0.0000 O   0  0  0  0  0  0  0  0  0  0  0  0
   13.3510   -3.3131    0.0000 O   0  0  0  0  0  0  0  0  0  0  0  0
    2.6197   -3.0908    0.0000 O   0  0  0  0  0  0  0  0  0  0  0  0
    7.6647    0.6717    0.0000 C   0  0  3  0  0  0  0  0  0  0  0  0
    9.3033   -0.5084    0.0000 C   0  0  3  0  0  0  0  0  0  0  0  0
    8.3571   -0.8131    0.0000 C   0  0  0  0  0  0  0  0  0  0  0  0
    7.4911   -0.3131    0.0000 C   0  0  0  0  0  0  0  0  0  0  0  0
    8.5586    1.1067    0.0000 C   0  0  3  0  0  0  0  0  0  0  0  0
    9.8869   -1.3131    0.0000 C   0  0  3  0  0  0  0  0  0  0  0  0
    6.9736    1.3862    0.0000 C   0  0  0  0  0  0  0  0  0  0  0  0
    8.3571   -1.8131    0.0000 C   0  0  0  0  0  0  0  0  0  0  0  0
    7.4446    2.2683    0.0000 C   0  0  0  0  0  0  0  0  0  0  0  0
    9.6140    0.4422    0.0000 C   0  0  0  0  0  0  0  0  0  0  0  0
    6.6250   -0.8131    0.0000 C   0  0  0  0  0  0  0  0  0  0  0  0
    9.5091    0.7961    0.0000 C   0  0  0  0  0  0  0  0  0  0  0  0
   10.7530   -1.8131    0.0000 C   0  0  0  0  0  0  0  0  0  0  0  0
    5.9741    1.3530    0.0000 C   0  0  0  0  0  0  0  0  0  0  0  0
    7.4911   -2.3131    0.0000 C   0  0  0  0  0  0  0  0  0  0  0  0
    6.6250   -1.8131    0.0000 C   0  0  0  0  0  0  0  0  0  0  0  0
    6.9161    3.1173    0.0000 C   0  0  0  0  0  0  0  0  0  0  0  0
   10.5925    0.6484    0.0000 C   0  0  0  0  0  0  0  0  0  0  0  0
    8.9461    1.1865    0.0000 C   0  0  0  0  0  0  0  0  0  0  0  0
    5.4457    2.2020    0.0000 C   0  0  0  0  0  0  0  0  0  0  0  0
    9.7153   -0.1824    0.0000 C   0  0  0  0  0  0  0  0  0  0  0  0
   10.2534    1.4639    0.0000 C   0  0  0  0  0  0  0  0  0  0  0  0
    5.9167    3.0841    0.0000 C   0  0  0  0  0  0  0  0  0  0  0  0
   11.6190   -1.3131    0.0000 C   0  0  0  0  0  0  0  0  0  0  0  0
   10.7530   -2.8131    0.0000 C   0  0  0  0  0  0  0  0  0  0  0  0
    5.5031    0.4709    0.0000 C   0  0  0  0  0  0  0  0  0  0  0  0
    9.2568    2.1370    0.0000 C   0  0  0  0  0  0  0  0  0  0  0  0
   10.9032    1.5989    0.0000 C   0  0  0  0  0  0  0  0  0  0  0  0
   10.6658   -0.4931    0.0000 C   0  0  0  0  0  0  0  0  0  0  0  0
   11.2039    1.1532    0.0000 C   0  0  0  0  0  0  0  0  0  0  0  0
   12.4850   -1.8131    0.0000 C   0  0  0  0  0  0  0  0  0  0  0  0
   11.6190   -3.3131    0.0000 C   0  0  0  0  0  0  0  0  0  0  0  0
   10.2353    2.3432    0.0000 C   0  0  0  0  0  0  0  0  0  0  0  0
   11.4101    0.1747    0.0000 C   0  0  0  0  0  0  0  0  0  0  0  0
   12.4850   -2.8131    0.0000 C   0  0  0  0  0  0  0  0  0  0  0  0
    4.5037    0.4377    0.0000 C   0  0  0  0  0  0  0  0  0  0  0  0
    4.0327   -0.4443    0.0000 C   0  0  0  0  0  0  0  0  0  0  0  0
    3.0332   -0.4775    0.0000 C   0  0  0  0  0  0  0  0  0  0  0  0
    4.5611   -1.2933    0.0000 C   0  0  0  0  0  0  0  0  0  0  0  0
    2.5622   -1.3597    0.0000 C   0  0  0  0  0  0  0  0  0  0  0  0
    4.0901   -2.1755    0.0000 C   0  0  0  0  0  0  0  0  0  0  0  0
    3.0907   -2.2086    0.0000 C   0  0  0  0  0  0  0  0  0  0  0  0
    8.3433    0.1599    0.0000 H   0  0  0  0  0  0  0  0  0  0  0  0
   10.1430   -0.3765    0.0000 H   0  0  0  0  0  0  0  0  0  0  0  0
    8.6010    0.4882    0.0000 H   0  0  0  0  0  0  0  0  0  0  0  0
   10.3020   -0.8525    0.0000 H   0  0  0  0  0  0  0  0  0  0  0  0
    6.0881   -0.5031    0.0000 H   0  0  0  0  0  0  0  0  0  0  0  0
    7.4911   -2.9331    0.0000 H   0  0  0  0  0  0  0  0  0  0  0  0
    7.2081    3.6642    0.0000 H   0  0  0  0  0  0  0  0  0  0  0  0
   11.0066    0.1869    0.0000 H   0  0  0  0  0  0  0  0  0  0  0  0
    8.3395    1.0586    0.0000 H   0  0  0  0  0  0  0  0  0  0  0  0
    4.8260    2.1814    0.0000 H   0  0  0  0  0  0  0  0  0  0  0  0
    9.2538   -0.5965    0.0000 H   0  0  0  0  0  0  0  0  0  0  0  0
   10.1255    2.0706    0.0000 H   0  0  0  0  0  0  0  0  0  0  0  0
   11.6190   -0.6931    0.0000 H   0  0  0  0  0  0  0  0  0  0  0  0
   10.2160   -3.1231    0.0000 H   0  0  0  0  0  0  0  0  0  0  0  0
    5.8308   -0.0554    0.0000 H   0  0  0  0  0  0  0  0  0  0  0  0
   10.7937   -1.0998    0.0000 H   0  0  0  0  0  0  0  0  0  0  0  0
   11.6654    1.5673    0.0000 H   0  0  0  0  0  0  0  0  0  0  0  0
   13.0219   -1.5031    0.0000 H   0  0  0  0  0  0  0  0  0  0  0  0
   11.6190   -3.9331    0.0000 H   0  0  0  0  0  0  0  0  0  0  0  0
    5.7590   -2.9331    0.0000 H   0  0  0  0  0  0  0  0  0  0  0  0
   10.4279    2.9325    0.0000 H   0  0  0  0  0  0  0  0  0  0  0  0
    4.1760    0.9641    0.0000 H   0  0  0  0  0  0  0  0  0  0  0  0
    4.7686    3.9125    0.0000 H   0  0  0  0  0  0  0  0  0  0  0  0
    8.7816    3.4706    0.0000 H   0  0  0  0  0  0  0  0  0  0  0  0
   12.0743    2.3944    0.0000 H   0  0  0  0  0  0  0  0  0  0  0  0
   12.8221    0.2781    0.0000 H   0  0  0  0  0  0  0  0  0  0  0  0
   13.3510   -3.9331    0.0000 H   0  0  0  0  0  0  0  0  0  0  0  0
    2.7056    0.0489    0.0000 H   0  0  0  0  0  0  0  0  0  0  0  0
    5.1808   -1.2728    0.0000 H   0  0  0  0  0  0  0  0  0  0  0  0
    1.9426   -1.3802    0.0000 H   0  0  0  0  0  0  0  0  0  0  0  0
    4.4178   -2.7018    0.0000 H   0  0  0  0  0  0  0  0  0  0  0  0
    2.0000   -3.1114    0.0000 H   0  0  0  0  0  0  0  0  0  0  0  0
  1 15  1  0  0  0  0
  1 17  1  0  0  0  0
  2 14  1  0  0  0  0
  2 18  1  0  0  0  0
  3 25  1  0  0  0  0
  3 71  1  0  0  0  0
  4 32  1  0  0  0  0
  4 74  1  0  0  0  0
  5 36  1  0  0  0  0
  5 75  1  0  0  0  0
  6 37  1  0  0  0  0
  6 76  1  0  0  0  0
  7 43  1  0  0  0  0
  7 77  1  0  0  0  0
  8 44  1  0  0  0  0
  8 78  1  0  0  0  0
  9 51  1  0  0  0  0
  9 83  1  0  0  0  0
 10 13  1  0  0  0  0
 10 14  1  0  0  0  0
 10 16  1  0  0  0  0
 10 52  1  0  0  0  0
 11 12  1  0  0  0  0
 11 15  1  0  0  0  0
 11 19  1  0  0  0  0
 11 53  1  0  0  0  0
 12 13  2  0  0  0  0
 12 17  1  0  0  0  0
 13 20  1  0  0  0  0
 14 21  1  0  0  0  0
 14 54  1  0  0  0  0
 15 22  1  0  0  0  0
 15 55  1  0  0  0  0
 16 18  1  0  0  0  0
 16 23  2  0  0  0  0
 17 24  2  0  0  0  0
 18 26  2  0  0  0  0
 19 27  2  0  0  0  0
 19 28  1  0  0  0  0
 20 25  2  0  0  0  0
 20 56  1  0  0  0  0
 21 30  2  0  0  0  0
 21 31  1  0  0  0  0
 22 33  2  0  0  0  0
 22 34  1  0  0  0  0
 23 29  1  0  0  0  0
 23 35  1  0  0  0  0
 24 25  1  0  0  0  0
 24 57  1  0  0  0  0
 26 32  1  0  0  0  0
 26 58  1  0  0  0  0
 27 37  1  0  0  0  0
 27 59  1  0  0  0  0
 28 36  2  0  0  0  0
 28 60  1  0  0  0  0
 29 32  2  0  0  0  0
 29 61  1  0  0  0  0
 30 38  1  0  0  0  0
 30 62  1  0  0  0  0
 31 39  2  0  0  0  0
 31 63  1  0  0  0  0
 33 40  1  0  0  0  0
 33 64  1  0  0  0  0
 34 41  2  0  0  0  0
 34 65  1  0  0  0  0
 35 45  2  0  0  0  0
 35 66  1  0  0  0  0
 36 42  1  0  0  0  0
 37 42  2  0  0  0  0
 38 43  2  0  0  0  0
 38 67  1  0  0  0  0
 39 43  1  0  0  0  0
 39 68  1  0  0  0  0
 40 44  2  0  0  0  0
 40 69  1  0  0  0  0
 41 44  1  0  0  0  0
 41 70  1  0  0  0  0
 42 72  1  0  0  0  0
 45 46  1  0  0  0  0
 45 73  1  0  0  0  0
 46 47  2  0  0  0  0
 46 48  1  0  0  0  0
 47 49  1  0  0  0  0
 47 79  1  0  0  0  0
 48 50  2  0  0  0  0
 48 80  1  0  0  0  0
 49 51  2  0  0  0  0
 49 81  1  0  0  0  0
 50 51  1  0  0  0  0
 50 82  1  0  0  0  0
M  END
>  <PUBCHEM_COMPOUND_CID>
5388319

>  <PUBCHEM_COMPOUND_CANONICALIZED>
1

>  <PUBCHEM_CACTVS_COMPLEXITY>
1150

>  <PUBCHEM_CACTVS_HBOND_ACCEPTOR>
9

>  <PUBCHEM_CACTVS_HBOND_DONOR>
7

>  <PUBCHEM_CACTVS_ROTATABLE_BOND>
6

>  <PUBCHEM_CACTVS_SUBSKEYS>
AAADcfB8PAAAAAAAAAAAAAAAAAAAASJAAAAwYMGDAAAAAEgBVAAAGgAACAAADRSgmAIwBoAABgCAAiBCAAACCAAgIAAIiAAGCIgMJyKGMRqCeCClwBUIuAeA4PwOoAABCAAYAABAAAIQADAAAAAAAAAAAA==

>  <PUBCHEM_IUPAC_OPENEYE_NAME>
5-[6-hydroxy-4-[6-hydroxy-2-(4-hydroxyphenyl)-4-[(E)-2-(4-hydroxyphenyl)vinyl]-2,3-dihydrobenzofuran-3-yl]-2-(4-hydroxyphenyl)-2,3-dihydrobenzofuran-3-yl]benzene-1,3-diol

>  <PUBCHEM_IUPAC_CAS_NAME>
5-[6-hydroxy-4-[6-hydroxy-2-(4-hydroxyphenyl)-4-[(E)-2-(4-hydroxyphenyl)ethenyl]-2,3-dihydrobenzofuran-3-yl]-2-(4-hydroxyphenyl)-2,3-dihydrobenzofuran-3-yl]benzene-1,3-diol

>  <PUBCHEM_IUPAC_NAME>
5-[6-hydroxy-4-[6-hydroxy-2-(4-hydroxyphenyl)-4-[(E)-2-(4-hydroxyphenyl)ethenyl]-2,3-dihydro-1-benzofuran-3-yl]-2-(4-hydroxyphenyl)-2,3-dihydro-1-benzofuran-3-yl]benzene-1,3-diol

>  <PUBCHEM_IUPAC_SYSTEMATIC_NAME>
5-[2-(4-hydroxyphenyl)-4-[2-(4-hydroxyphenyl)-4-[(E)-2-(4-hydroxyphenyl)ethenyl]-6-oxidanyl-2,3-dihydro-1-benzofuran-3-yl]-6-oxidanyl-2,3-dihydro-1-benzofuran-3-yl]benzene-1,3-diol

>  <PUBCHEM_IUPAC_TRADITIONAL_NAME>
5-[6-hydroxy-4-[6-hydroxy-2-(4-hydroxyphenyl)-4-[(E)-2-(4-hydroxyphenyl)vinyl]coumaran-3-yl]-2-(4-hydroxyphenyl)coumaran-3-yl]resorcinol

>  <PUBCHEM_IUPAC_INCHI>
InChI=1S/C42H32O9/c43-27-9-2-22(3-10-27)1-4-25-15-32(48)20-35-37(25)40(42(50-35)24-7-13-29(45)14-8-24)34-19-33(49)21-36-39(34)38(26-16-30(46)18-31(47)17-26)41(51-36)23-5-11-28(44)12-6-23/h1-21,38,40-49H/b4-1+

>  <PUBCHEM_IUPAC_INCHIKEY>
RKFYYCKIHVEWHX-DAFODLJHSA-N

>  <PUBCHEM_XLOGP3_AA>
7.7

>  <PUBCHEM_EXACT_MASS>
680.205

>  <PUBCHEM_MOLECULAR_FORMULA>
C42H32O9

>  <PUBCHEM_MOLECULAR_WEIGHT>
680.709

>  <PUBCHEM_OPENEYE_CAN_SMILES>
C1=CC(=CC=C1C=CC2=CC(=CC3=C2C(C(O3)C4=CC=C(C=C4)O)C5=CC(=CC6=C5C(C(O6)C7=CC=C(C=C7)O)C8=CC(=CC(=C8)O)O)O)O)O

>  <PUBCHEM_OPENEYE_ISO_SMILES>
C1=CC(=CC=C1/C=C/C2=CC(=CC3=C2C(C(O3)C4=CC=C(C=C4)O)C5=CC(=CC6=C5C(C(O6)C7=CC=C(C=C7)O)C8=CC(=CC(=C8)O)O)O)O)O

>  <PUBCHEM_CACTVS_TPSA>
160

>  <PUBCHEM_MONOISOTOPIC_WEIGHT>
680.205

>  <PUBCHEM_TOTAL_CHARGE>
0

>  <PUBCHEM_HEAVY_ATOM_COUNT>
51

>  <PUBCHEM_ATOM_DEF_STEREO_COUNT>
0

>  <PUBCHEM_ATOM_UDEF_STEREO_COUNT>
4

>  <PUBCHEM_BOND_DEF_STEREO_COUNT>
1

>  <PUBCHEM_BOND_UDEF_STEREO_COUNT>
0

>  <PUBCHEM_ISOTOPIC_ATOM_COUNT>
0

>  <PUBCHEM_COMPONENT_COUNT>
1

>  <PUBCHEM_CACTVS_TAUTO_COUNT>
998

>  <PUBCHEM_COORDINATE_TYPE>
1
5
255

>  <PUBCHEM_BONDANNOTATIONS>
10  52  3
11  53  3
12  13  8
12  17  8
13  20  8
14  21  3
15  22  3
16  18  8
16  23  8
17  24  8
18  26  8
19  27  8
19  28  8
20  25  8
21  30  8
21  31  8
22  33  8
22  34  8
23  29  8
24  25  8
26  32  8
27  37  8
28  36  8
29  32  8
30  38  8
31  39  8
33  40  8
34  41  8
36  42  8
37  42  8
38  43  8
39  43  8
40  44  8
41  44  8
46  47  8
46  48  8
47  49  8
48  50  8
49  51  8
50  51  8

$$$$
