53883083
 OpenBabel06101807152D

 24 24  0  0  0  0  0  0  0  0999 V2000
    2.0000   -0.9339    0.0000 O   0  0  0  0  0  0  0  0  0  0  0  0
    5.0916    0.0000    0.0000 C   0  0  0  0  0  0  0  0  0  0  0  0
    4.6577    0.9010    0.0000 C   0  0  0  0  0  0  0  0  0  0  0  0
    3.6828    1.1235    0.0000 C   0  0  0  0  0  0  0  0  0  0  0  0
    4.6577   -0.9010    0.0000 C   0  0  0  0  0  0  0  0  0  0  0  0
    5.9926   -0.4339    0.0000 C   0  0  0  0  0  0  0  0  0  0  0  0
    5.9926    0.4339    0.0000 C   0  0  0  0  0  0  0  0  0  0  0  0
    2.9010    0.5000    0.0000 C   0  0  0  0  0  0  0  0  0  0  0  0
    3.6828   -1.1235    0.0000 C   0  0  0  0  0  0  0  0  0  0  0  0
    2.9010   -0.5000    0.0000 C   0  0  0  0  0  0  0  0  0  0  0  0
    5.2622    1.0389    0.0000 H   0  0  0  0  0  0  0  0  0  0  0  0
    4.6577    1.5210    0.0000 H   0  0  0  0  0  0  0  0  0  0  0  0
    3.9518    1.6821    0.0000 H   0  0  0  0  0  0  0  0  0  0  0  0
    3.1981    1.5100    0.0000 H   0  0  0  0  0  0  0  0  0  0  0  0
    5.0443   -1.3857    0.0000 H   0  0  0  0  0  0  0  0  0  0  0  0
    6.2616   -0.1247    0.0000 H   0  0  0  0  0  0  0  0  0  0  0  0
    6.5512    0.7029    0.0000 H   0  0  0  0  0  0  0  0  0  0  0  0
    5.7236    0.9925    0.0000 H   0  0  0  0  0  0  0  0  0  0  0  0
    5.7236   -0.9925    0.0000 H   0  0  0  0  0  0  0  0  0  0  0  0
    6.5512   -0.7029    0.0000 H   0  0  0  0  0  0  0  0  0  0  0  0
    6.2616    0.1247    0.0000 H   0  0  0  0  0  0  0  0  0  0  0  0
    2.6320    1.0586    0.0000 H   0  0  0  0  0  0  0  0  0  0  0  0
    2.2965    0.3620    0.0000 H   0  0  0  0  0  0  0  0  0  0  0  0
    3.5448   -1.7280    0.0000 H   0  0  0  0  0  0  0  0  0  0  0  0
  1 10  2  0  0  0  0
  2  3  1  0  0  0  0
  2  5  1  0  0  0  0
  2  6  1  0  0  0  0
  2  7  1  0  0  0  0
  3  4  1  0  0  0  0
  3 11  1  0  0  0  0
  3 12  1  0  0  0  0
  4  8  1  0  0  0  0
  4 13  1  0  0  0  0
  4 14  1  0  0  0  0
  5  9  2  0  0  0  0
  5 15  1  0  0  0  0
  6 19  1  0  0  0  0
  6 20  1  0  0  0  0
  6 21  1  0  0  0  0
  7 16  1  0  0  0  0
  7 17  1  0  0  0  0
  7 18  1  0  0  0  0
  8 10  1  0  0  0  0
  8 22  1  0  0  0  0
  8 23  1  0  0  0  0
  9 10  1  0  0  0  0
  9 24  1  0  0  0  0
M  END
>  <PUBCHEM_COMPOUND_CID>
53883083

>  <PUBCHEM_COMPOUND_CANONICALIZED>
1

>  <PUBCHEM_CACTVS_COMPLEXITY>
166

>  <PUBCHEM_CACTVS_HBOND_ACCEPTOR>
1

>  <PUBCHEM_CACTVS_HBOND_DONOR>
0

>  <PUBCHEM_CACTVS_ROTATABLE_BOND>
0

>  <PUBCHEM_CACTVS_SUBSKEYS>
AAADccBwIAAAAAAAAAAAAAAAAAAAAAAAAAAAAAAABAAAAAAAAAAAGgAAAAAADgSAgAACAAAAAACIAKBSAAAAAAAgAAAICAEAAEgAABIAAAAAAAAAgAAIAYMIiEANAAAAAAAAAAAAAAAAAAAAAAAAAAAAAA==

>  <PUBCHEM_IUPAC_OPENEYE_NAME>
4,4-dimethylcyclohept-2-en-1-one

>  <PUBCHEM_IUPAC_CAS_NAME>
4,4-dimethyl-1-cyclohept-2-enone

>  <PUBCHEM_IUPAC_NAME>
4,4-dimethylcyclohept-2-en-1-one

>  <PUBCHEM_IUPAC_SYSTEMATIC_NAME>
4,4-dimethylcyclohept-2-en-1-one

>  <PUBCHEM_IUPAC_TRADITIONAL_NAME>
4,4-dimethylcyclohept-2-en-1-one

>  <PUBCHEM_IUPAC_INCHI>
InChI=1S/C9H14O/c1-9(2)6-3-4-8(10)5-7-9/h5,7H,3-4,6H2,1-2H3

>  <PUBCHEM_IUPAC_INCHIKEY>
HLEDGYPSKFZVFV-UHFFFAOYSA-N

>  <PUBCHEM_XLOGP3_AA>
2.3

>  <PUBCHEM_EXACT_MASS>
138.104

>  <PUBCHEM_MOLECULAR_FORMULA>
C9H14O

>  <PUBCHEM_MOLECULAR_WEIGHT>
138.21

>  <PUBCHEM_OPENEYE_CAN_SMILES>
CC1(CCCC(=O)C=C1)C

>  <PUBCHEM_OPENEYE_ISO_SMILES>
CC1(CCCC(=O)C=C1)C

>  <PUBCHEM_CACTVS_TPSA>
17.1

>  <PUBCHEM_MONOISOTOPIC_WEIGHT>
138.104

>  <PUBCHEM_TOTAL_CHARGE>
0

>  <PUBCHEM_HEAVY_ATOM_COUNT>
10

>  <PUBCHEM_ATOM_DEF_STEREO_COUNT>
0

>  <PUBCHEM_ATOM_UDEF_STEREO_COUNT>
0

>  <PUBCHEM_BOND_DEF_STEREO_COUNT>
0

>  <PUBCHEM_BOND_UDEF_STEREO_COUNT>
0

>  <PUBCHEM_ISOTOPIC_ATOM_COUNT>
0

>  <PUBCHEM_COMPONENT_COUNT>
1

>  <PUBCHEM_CACTVS_TAUTO_COUNT>
2

>  <PUBCHEM_COORDINATE_TYPE>
1
5
255

$$$$
