5458181
 OpenBabel06101807152D

 60 62  0  0  1  0  0  0  0  0999 V2000
    9.4056    0.8564    0.0000 O   0  0  0  0  0  0  0  0  0  0  0  0
   11.3025   -0.9037    0.0000 O   0  0  0  0  0  0  0  0  0  0  0  0
   11.9747    1.1654    0.0000 O   0  0  0  0  0  0  0  0  0  0  0  0
    8.9458   -2.6262    0.0000 O   0  0  0  0  0  0  0  0  0  0  0  0
   10.5281   -1.9218    0.0000 O   0  0  0  0  0  0  0  0  0  0  0  0
    7.9513   -2.5217    0.0000 O   0  0  0  0  0  0  0  0  0  0  0  0
    4.5610   -1.2946    0.0000 O   0  0  0  0  0  0  0  0  0  0  0  0
   11.9467    2.4442    0.0000 O   0  0  0  0  0  0  0  0  0  0  0  0
   10.2147    5.4442    0.0000 O   0  0  0  0  0  0  0  0  0  0  0  0
    2.6166   -5.4442    0.0000 O   0  0  0  0  0  0  0  0  0  0  0  0
   10.2147    2.4442    0.0000 N   0  0  0  0  0  0  0  0  0  0  0  0
    8.1324   -0.7991    0.0000 N   0  0  0  0  0  0  0  0  0  0  0  0
    6.1433   -0.5901    0.0000 N   0  0  0  0  0  0  0  0  0  0  0  0
   11.0807    3.9442    0.0000 N   0  0  0  0  0  0  0  0  0  0  0  0
    3.3854   -2.9126    0.0000 N   0  0  0  0  0  0  0  0  0  0  0  0
    9.7147   -0.0947    0.0000 C   0  0  2  0  0  0  0  0  0  0  0  0
   10.7147   -0.0947    0.0000 C   0  0  1  0  0  0  0  0  0  0  0  0
   11.0237    0.8564    0.0000 C   0  0  1  0  0  0  0  0  0  0  0  0
   10.2147    1.4442    0.0000 C   0  0  2  0  0  0  0  0  0  0  0  0
    9.1269   -0.9037    0.0000 C   0  0  2  0  0  0  0  0  0  0  0  0
    6.5500   -1.5036    0.0000 C   0  0  2  0  0  0  0  0  0  0  0  0
    9.5336   -1.8172    0.0000 C   0  0  0  0  0  0  0  0  0  0  0  0
    5.9623   -2.3126    0.0000 C   0  0  2  0  0  0  0  0  0  0  0  0
    7.5446   -1.6082    0.0000 C   0  0  0  0  0  0  0  0  0  0  0  0
   11.0807    2.9442    0.0000 C   0  0  0  0  0  0  0  0  0  0  0  0
    9.3486    2.9442    0.0000 C   0  0  0  0  0  0  0  0  0  0  0  0
    4.9677   -2.2081    0.0000 C   0  0  2  0  0  0  0  0  0  0  0  0
    6.3690   -3.2262    0.0000 C   0  0  0  0  0  0  0  0  0  0  0  0
    9.3486    3.9442    0.0000 C   0  0  0  0  0  0  0  0  0  0  0  0
    4.3800   -3.0171    0.0000 C   0  0  0  0  0  0  0  0  0  0  0  0
   10.2147    4.4442    0.0000 C   0  0  0  0  0  0  0  0  0  0  0  0
    4.7867   -3.9307    0.0000 C   0  0  0  0  0  0  0  0  0  0  0  0
    4.1989   -4.7397    0.0000 C   0  0  0  0  0  0  0  0  0  0  0  0
    2.7976   -3.7216    0.0000 C   0  0  0  0  0  0  0  0  0  0  0  0
    3.2044   -4.6352    0.0000 C   0  0  0  0  0  0  0  0  0  0  0  0
    8.8751    0.0383    0.0000 H   0  0  0  0  0  0  0  0  0  0  0  0
   11.3270    0.0023    0.0000 H   0  0  0  0  0  0  0  0  0  0  0  0
   11.1207    1.4688    0.0000 H   0  0  0  0  0  0  0  0  0  0  0  0
   10.7671    1.7257    0.0000 H   0  0  0  0  0  0  0  0  0  0  0  0
    9.4577   -0.3373    0.0000 H   0  0  0  0  0  0  0  0  0  0  0  0
    7.8802   -0.2327    0.0000 H   0  0  0  0  0  0  0  0  0  0  0  0
   11.9191   -0.8389    0.0000 H   0  0  0  0  0  0  0  0  0  0  0  0
    5.9334   -1.4388    0.0000 H   0  0  0  0  0  0  0  0  0  0  0  0
    5.5978   -2.8142    0.0000 H   0  0  0  0  0  0  0  0  0  0  0  0
   12.4355    0.7506    0.0000 H   0  0  0  0  0  0  0  0  0  0  0  0
    8.8117    2.6342    0.0000 H   0  0  0  0  0  0  0  0  0  0  0  0
    4.3511   -2.1433    0.0000 H   0  0  0  0  0  0  0  0  0  0  0  0
    5.8026   -3.4784    0.0000 H   0  0  0  0  0  0  0  0  0  0  0  0
    6.6212   -3.7926    0.0000 H   0  0  0  0  0  0  0  0  0  0  0  0
    6.9354   -2.9740    0.0000 H   0  0  0  0  0  0  0  0  0  0  0  0
    5.5267   -0.5253    0.0000 H   0  0  0  0  0  0  0  0  0  0  0  0
    6.5077   -0.0885    0.0000 H   0  0  0  0  0  0  0  0  0  0  0  0
   11.6176    4.2542    0.0000 H   0  0  0  0  0  0  0  0  0  0  0  0
    8.8117    4.2542    0.0000 H   0  0  0  0  0  0  0  0  0  0  0  0
    9.1980   -3.1926    0.0000 H   0  0  0  0  0  0  0  0  0  0  0  0
    3.9444   -1.2298    0.0000 H   0  0  0  0  0  0  0  0  0  0  0  0
    5.4033   -3.9955    0.0000 H   0  0  0  0  0  0  0  0  0  0  0  0
    4.4511   -5.3061    0.0000 H   0  0  0  0  0  0  0  0  0  0  0  0
    2.1810   -3.6568    0.0000 H   0  0  0  0  0  0  0  0  0  0  0  0
    2.0000   -5.3794    0.0000 H   0  0  0  0  0  0  0  0  0  0  0  0
  1 16  1  0  0  0  0
  1 19  1  0  0  0  0
  2 42  1  0  0  0  0
  3 45  1  0  0  0  0
  4 22  1  0  0  0  0
  4 55  1  0  0  0  0
  5 22  2  0  0  0  0
  6 24  2  0  0  0  0
  7 56  1  0  0  0  0
  8 25  2  0  0  0  0
  9 31  2  0  0  0  0
 10 35  1  0  0  0  0
 10 60  1  0  0  0  0
 11 25  1  0  0  0  0
 11 26  1  0  0  0  0
 12 24  1  0  0  0  0
 12 41  1  0  0  0  0
 13 51  1  0  0  0  0
 13 52  1  0  0  0  0
 14 25  1  0  0  0  0
 14 31  1  0  0  0  0
 14 53  1  0  0  0  0
 15 30  2  0  0  0  0
 15 34  1  0  0  0  0
 16 17  1  1  0  0  0
 16 20  1  0  0  0  0
 16 36  1  0  0  0  0
 17  2  1  0  0  0  0
 17 18  1  1  0  0  0
 17 37  1  0  0  0  0
 18  3  1  0  0  0  0
 18 19  1  1  0  0  0
 18 38  1  0  0  0  0
 19 11  1  0  0  0  0
 19 39  1  1  0  0  0
 20 12  1  0  0  0  0
 20 22  1  0  0  0  0
 20 40  1  1  0  0  0
 21 13  1  0  0  0  0
 21 23  1  0  0  0  0
 21 24  1  0  0  0  0
 21 43  1  6  0  0  0
 23 27  1  0  0  0  0
 23 28  1  0  0  0  0
 23 44  1  6  0  0  0
 26 29  2  0  0  0  0
 26 46  1  0  0  0  0
 27  7  1  0  0  0  0
 27 30  1  0  0  0  0
 27 47  1  1  0  0  0
 28 48  1  0  0  0  0
 28 49  1  0  0  0  0
 28 50  1  0  0  0  0
 29 31  1  0  0  0  0
 29 54  1  0  0  0  0
 30 32  1  0  0  0  0
 32 33  2  0  0  0  0
 32 57  1  0  0  0  0
 33 35  1  0  0  0  0
 33 58  1  0  0  0  0
 34 35  2  0  0  0  0
 34 59  1  0  0  0  0
M  END
>  <PUBCHEM_COMPOUND_CID>
5458181

>  <PUBCHEM_COMPOUND_CANONICALIZED>
1

>  <PUBCHEM_CACTVS_COMPLEXITY>
871

>  <PUBCHEM_CACTVS_HBOND_ACCEPTOR>
12

>  <PUBCHEM_CACTVS_HBOND_DONOR>
8

>  <PUBCHEM_CACTVS_ROTATABLE_BOND>
8

>  <PUBCHEM_CACTVS_SUBSKEYS>
AAADceB7vAAAAAAAAAAAAAAAAAAAASAAAAAsQAAAAAAAAAABgAAAHgAQCAAADTzhlgY/jpPIFgCoATX3XASCgCAxYiAI2KG/bNiLdvbSkbOfcAhv9zPb2Mf6/efeAAAAAAAAAAAAAAAAAAAAAAAAAAAAAA==

>  <PUBCHEM_IUPAC_OPENEYE_NAME>
(2R)-2-[[(2R,3R,4R)-2-amino-4-hydroxy-4-(5-hydroxy-2-pyridyl)-3-methyl-butanoyl]amino]-2-[(2S,3R,4S,5S)-5-(2,4-dioxopyrimidin-1-yl)-3,4-dihydroxy-tetrahydrofuran-2-yl]acetic acid

>  <PUBCHEM_IUPAC_CAS_NAME>
(2R)-2-[[(2R,3R,4R)-2-amino-4-hydroxy-4-(5-hydroxy-2-pyridinyl)-3-methyl-1-oxobutyl]amino]-2-[(2S,3R,4S,5S)-5-(2,4-dioxo-1-pyrimidinyl)-3,4-dihydroxy-2-oxolanyl]acetic acid

>  <PUBCHEM_IUPAC_NAME>
(2R)-2-[[(2R,3R,4R)-2-amino-4-hydroxy-4-(5-hydroxypyridin-2-yl)-3-methylbutanoyl]amino]-2-[(2S,3R,4S,5S)-5-(2,4-dioxopyrimidin-1-yl)-3,4-dihydroxyoxolan-2-yl]acetic acid

>  <PUBCHEM_IUPAC_SYSTEMATIC_NAME>
(2R)-2-[[(2R,3R,4R)-2-azanyl-3-methyl-4-oxidanyl-4-(5-oxidanylpyridin-2-yl)butanoyl]amino]-2-[(2S,3R,4S,5S)-5-[2,4-bis(oxidanylidene)pyrimidin-1-yl]-3,4-bis(oxidanyl)oxolan-2-yl]ethanoic acid

>  <PUBCHEM_IUPAC_TRADITIONAL_NAME>
(2R)-2-[[(2R,3R,4R)-2-amino-4-hydroxy-4-(5-hydroxy-2-pyridyl)-3-methyl-butanoyl]amino]-2-[(2S,3R,4S,5S)-5-(2,4-diketopyrimidin-1-yl)-3,4-dihydroxy-tetrahydrofuran-2-yl]acetic acid

>  <PUBCHEM_IUPAC_INCHI>
InChI=1S/C20H25N5O10/c1-7(13(28)9-3-2-8(26)6-22-9)11(21)17(31)24-12(19(32)33)16-14(29)15(30)18(35-16)25-5-4-10(27)23-20(25)34/h2-7,11-16,18,26,28-30H,21H2,1H3,(H,24,31)(H,32,33)(H,23,27,34)/t7-,11-,12-,13-,14-,15+,16+,18+/m1/s1

>  <PUBCHEM_IUPAC_INCHIKEY>
WWJFFVUVFNBJTN-MLOKMKBISA-N

>  <PUBCHEM_XLOGP3_AA>
-5.6

>  <PUBCHEM_EXACT_MASS>
495.16

>  <PUBCHEM_MOLECULAR_FORMULA>
C20H25N5O10

>  <PUBCHEM_MOLECULAR_WEIGHT>
495.445

>  <PUBCHEM_OPENEYE_CAN_SMILES>
CC(C(C1=NC=C(C=C1)O)O)C(C(=O)NC(C2C(C(C(O2)N3C=CC(=O)NC3=O)O)O)C(=O)O)N

>  <PUBCHEM_OPENEYE_ISO_SMILES>
C[C@@H]([C@H](C1=NC=C(C=C1)O)O)[C@H](C(=O)N[C@H]([C@H]2[C@@H]([C@@H]([C@H](O2)N3C=CC(=O)NC3=O)O)O)C(=O)O)N

>  <PUBCHEM_CACTVS_TPSA>
245

>  <PUBCHEM_MONOISOTOPIC_WEIGHT>
495.16

>  <PUBCHEM_TOTAL_CHARGE>
0

>  <PUBCHEM_HEAVY_ATOM_COUNT>
35

>  <PUBCHEM_ATOM_DEF_STEREO_COUNT>
8

>  <PUBCHEM_ATOM_UDEF_STEREO_COUNT>
0

>  <PUBCHEM_BOND_DEF_STEREO_COUNT>
0

>  <PUBCHEM_BOND_UDEF_STEREO_COUNT>
0

>  <PUBCHEM_ISOTOPIC_ATOM_COUNT>
0

>  <PUBCHEM_COMPONENT_COUNT>
1

>  <PUBCHEM_CACTVS_TAUTO_COUNT>
18

>  <PUBCHEM_COORDINATE_TYPE>
1
5
255

>  <PUBCHEM_BONDANNOTATIONS>
19  11  6
11  25  8
11  26  8
20  12  6
21  13  5
14  25  8
14  31  8
15  30  8
15  34  8
16  36  5
17  2  5
23  28  5
26  29  8
29  31  8
18  3  5
30  32  8
32  33  8
33  35  8
34  35  8
27  7  6

$$$$
