54600668
 OpenBabel06101807152D

 58 59  0  0  1  0  0  0  0  0999 V2000
   10.2022   -1.6071    0.0000 O   0  0  0  0  0  0  0  0  0  0  0  0
    6.8671   -1.4400    0.0000 O   0  0  0  0  0  0  0  0  0  0  0  0
   11.1972    2.0600    0.0000 O   0  0  0  0  0  0  0  0  0  0  0  0
   10.2970   -3.3809    0.0000 O   0  0  0  0  0  0  0  0  0  0  0  0
    6.0010    0.0600    0.0000 O   0  0  0  0  0  0  0  0  0  0  0  0
   10.3312    3.5600    0.0000 O   0  0  0  0  0  0  0  0  0  0  0  0
    4.2690   -2.9400    0.0000 O   0  0  0  0  0  0  0  0  0  0  0  0
    2.5369   -0.9400    0.0000 O   0  0  0  0  0  0  0  0  0  0  0  0
    8.5991   -1.4400    0.0000 C   0  0  3  0  0  0  0  0  0  0  0  0
    7.7331   -0.9400    0.0000 C   0  0  3  0  0  0  0  0  0  0  0  0
    9.4651   -0.9400    0.0000 C   0  0  3  0  0  0  0  0  0  0  0  0
    7.7331    0.0600    0.0000 C   0  0  0  0  0  0  0  0  0  0  0  0
    8.8083   -2.4118    0.0000 C   0  0  0  0  0  0  0  0  0  0  0  0
    9.4651    0.0600    0.0000 C   0  0  0  0  0  0  0  0  0  0  0  0
    8.5991    0.5600    0.0000 C   0  0  0  0  0  0  0  0  0  0  0  0
   10.3312    0.5600    0.0000 C   0  0  0  0  0  0  0  0  0  0  0  0
    9.7970   -2.5149    0.0000 C   0  0  0  0  0  0  0  0  0  0  0  0
   10.3312    1.5600    0.0000 C   0  0  3  0  0  0  0  0  0  0  0  0
    9.4651    2.0600    0.0000 C   0  0  0  0  0  0  0  0  0  0  0  0
    8.5991    1.5600    0.0000 C   0  0  0  0  0  0  0  0  0  0  0  0
    8.1405   -3.1561    0.0000 C   0  0  0  0  0  0  0  0  0  0  0  0
    9.7865   -0.4363    0.0000 C   0  0  0  0  0  0  0  0  0  0  0  0
   11.1972    0.0600    0.0000 C   0  0  0  0  0  0  0  0  0  0  0  0
    6.0010   -0.9400    0.0000 C   0  0  0  0  0  0  0  0  0  0  0  0
    5.1350   -1.4400    0.0000 C   0  0  0  0  0  0  0  0  0  0  0  0
   11.1972    3.0600    0.0000 C   0  0  0  0  0  0  0  0  0  0  0  0
    5.1350   -2.4400    0.0000 C   0  0  0  0  0  0  0  0  0  0  0  0
    4.2690   -0.9400    0.0000 C   0  0  0  0  0  0  0  0  0  0  0  0
   12.0632    3.5600    0.0000 C   0  0  0  0  0  0  0  0  0  0  0  0
    3.4030   -1.4400    0.0000 C   0  0  0  0  0  0  0  0  0  0  0  0
    8.0980   -1.8051    0.0000 H   0  0  0  0  0  0  0  0  0  0  0  0
    7.1962   -0.6300    0.0000 H   0  0  0  0  0  0  0  0  0  0  0  0
   10.0319   -0.6886    0.0000 H   0  0  0  0  0  0  0  0  0  0  0  0
    7.5210    0.6426    0.0000 H   0  0  0  0  0  0  0  0  0  0  0  0
    7.1225   -0.0477    0.0000 H   0  0  0  0  0  0  0  0  0  0  0  0
    9.2531    0.6426    0.0000 H   0  0  0  0  0  0  0  0  0  0  0  0
   10.8681    1.2500    0.0000 H   0  0  0  0  0  0  0  0  0  0  0  0
    9.8637    2.5349    0.0000 H   0  0  0  0  0  0  0  0  0  0  0  0
    9.0666    2.5349    0.0000 H   0  0  0  0  0  0  0  0  0  0  0  0
    8.0622    1.8700    0.0000 H   0  0  0  0  0  0  0  0  0  0  0  0
    7.5338   -3.0283    0.0000 H   0  0  0  0  0  0  0  0  0  0  0  0
    8.3331   -3.7454    0.0000 H   0  0  0  0  0  0  0  0  0  0  0  0
    9.3880   -0.9113    0.0000 H   0  0  0  0  0  0  0  0  0  0  0  0
   10.2614   -0.8348    0.0000 H   0  0  0  0  0  0  0  0  0  0  0  0
   10.1850    0.0386    0.0000 H   0  0  0  0  0  0  0  0  0  0  0  0
   10.8872   -0.4769    0.0000 H   0  0  0  0  0  0  0  0  0  0  0  0
   11.7341   -0.2500    0.0000 H   0  0  0  0  0  0  0  0  0  0  0  0
   11.5072    0.5969    0.0000 H   0  0  0  0  0  0  0  0  0  0  0  0
    5.3471   -3.0226    0.0000 H   0  0  0  0  0  0  0  0  0  0  0  0
    5.7456   -2.3323    0.0000 H   0  0  0  0  0  0  0  0  0  0  0  0
    4.2690   -0.3200    0.0000 H   0  0  0  0  0  0  0  0  0  0  0  0
   12.3732    3.0231    0.0000 H   0  0  0  0  0  0  0  0  0  0  0  0
   12.6002    3.8700    0.0000 H   0  0  0  0  0  0  0  0  0  0  0  0
   11.7532    4.0969    0.0000 H   0  0  0  0  0  0  0  0  0  0  0  0
    3.0044   -1.9150    0.0000 H   0  0  0  0  0  0  0  0  0  0  0  0
    3.8015   -1.9150    0.0000 H   0  0  0  0  0  0  0  0  0  0  0  0
    4.2690   -3.5600    0.0000 H   0  0  0  0  0  0  0  0  0  0  0  0
    2.0000   -1.2500    0.0000 H   0  0  0  0  0  0  0  0  0  0  0  0
  1 11  1  0  0  0  0
  1 17  1  0  0  0  0
  2 10  1  0  0  0  0
  2 24  1  0  0  0  0
  3 18  1  0  0  0  0
  3 26  1  0  0  0  0
  4 17  2  0  0  0  0
  5 24  2  0  0  0  0
  6 26  2  0  0  0  0
  7 27  1  0  0  0  0
  7 57  1  0  0  0  0
  8 30  1  0  0  0  0
  8 58  1  0  0  0  0
  9 10  1  0  0  0  0
  9 11  1  0  0  0  0
  9 13  1  0  0  0  0
  9 31  1  0  0  0  0
 10 12  1  0  0  0  0
 10 32  1  0  0  0  0
 11 14  1  0  0  0  0
 11 33  1  0  0  0  0
 12 15  1  0  0  0  0
 12 34  1  0  0  0  0
 12 35  1  0  0  0  0
 13 17  1  0  0  0  0
 13 21  2  0  0  0  0
 14 16  2  0  0  0  0
 14 36  1  0  0  0  0
 15 20  2  0  0  0  0
 15 22  1  0  0  0  0
 16 18  1  0  0  0  0
 16 23  1  0  0  0  0
 18 19  1  0  0  0  0
 18 37  1  0  0  0  0
 19 20  1  0  0  0  0
 19 38  1  0  0  0  0
 19 39  1  0  0  0  0
 20 40  1  0  0  0  0
 21 41  1  0  0  0  0
 21 42  1  0  0  0  0
 22 43  1  0  0  0  0
 22 44  1  0  0  0  0
 22 45  1  0  0  0  0
 23 46  1  0  0  0  0
 23 47  1  0  0  0  0
 23 48  1  0  0  0  0
 24 25  1  0  0  0  0
 25 27  1  0  0  0  0
 25 28  2  0  0  0  0
 26 29  1  0  0  0  0
 27 49  1  0  0  0  0
 27 50  1  0  0  0  0
 28 30  1  0  0  0  0
 28 51  1  0  0  0  0
 29 52  1  0  0  0  0
 29 53  1  0  0  0  0
 29 54  1  0  0  0  0
 30 55  1  0  0  0  0
 30 56  1  0  0  0  0
M  END
>  <PUBCHEM_COMPOUND_CID>
54600668

>  <PUBCHEM_COMPOUND_CANONICALIZED>
1

>  <PUBCHEM_CACTVS_COMPLEXITY>
804

>  <PUBCHEM_CACTVS_HBOND_ACCEPTOR>
8

>  <PUBCHEM_CACTVS_HBOND_DONOR>
2

>  <PUBCHEM_CACTVS_ROTATABLE_BOND>
7

>  <PUBCHEM_CACTVS_SUBSKEYS>
AAADceB4PAAAAAAAAAAAAAAAAAAAASAAAAAAAAAAAAAAAACAAAAAGgAACAAADRSggAICCAAABgCIAiDSCAAAAAAgAAAACAEAAEgAFBYAIQACUAAF4AAIMYPKyCCOAAAAAAAAAAAAAAAAAAAAAAAAAAAAAA==

>  <PUBCHEM_IUPAC_OPENEYE_NAME>
[(6E,10E)-9-acetoxy-6,10-dimethyl-3-methylene-2-oxo-3a,4,5,8,9,11a-hexahydrocyclodeca[b]furan-4-yl] (E)-4-hydroxy-2-(hydroxymethyl)but-2-enoate

>  <PUBCHEM_IUPAC_CAS_NAME>
(E)-4-hydroxy-2-(hydroxymethyl)-2-butenoic acid [(6E,10E)-9-acetyloxy-6,10-dimethyl-3-methylene-2-oxo-3a,4,5,8,9,11a-hexahydrocyclodeca[b]furan-4-yl] ester

>  <PUBCHEM_IUPAC_NAME>
[(6E,10E)-9-acetyloxy-6,10-dimethyl-3-methylidene-2-oxo-3a,4,5,8,9,11a-hexahydrocyclodeca[b]furan-4-yl] (E)-4-hydroxy-2-(hydroxymethyl)but-2-enoate

>  <PUBCHEM_IUPAC_SYSTEMATIC_NAME>
[(6E,10E)-9-acetyloxy-6,10-dimethyl-3-methylidene-2-oxidanylidene-3a,4,5,8,9,11a-hexahydrocyclodeca[b]furan-4-yl] (E)-2-(hydroxymethyl)-4-oxidanyl-but-2-enoate

>  <PUBCHEM_IUPAC_TRADITIONAL_NAME>
(E)-4-hydroxy-2-methylol-but-2-enoic acid [(6E,10E)-9-acetoxy-2-keto-6,10-dimethyl-3-methylene-3a,4,5,8,9,11a-hexahydrocyclodeca[b]furan-4-yl] ester

>  <PUBCHEM_IUPAC_INCHI>
InChI=1S/C22H28O8/c1-12-5-6-17(28-15(4)25)13(2)10-19-20(14(3)21(26)29-19)18(9-12)30-22(27)16(11-24)7-8-23/h5,7,10,17-20,23-24H,3,6,8-9,11H2,1-2,4H3/b12-5+,13-10+,16-7+

>  <PUBCHEM_IUPAC_INCHIKEY>
XYPJAWWDSQFSQA-VISQRNLASA-N

>  <PUBCHEM_XLOGP3_AA>
0.6

>  <PUBCHEM_EXACT_MASS>
420.178

>  <PUBCHEM_MOLECULAR_FORMULA>
C22H28O8

>  <PUBCHEM_MOLECULAR_WEIGHT>
420.458

>  <PUBCHEM_OPENEYE_CAN_SMILES>
CC1=CCC(C(=CC2C(C(C1)OC(=O)C(=CCO)CO)C(=C)C(=O)O2)C)OC(=O)C

>  <PUBCHEM_OPENEYE_ISO_SMILES>
C/C/1=C\CC(/C(=C/C2C(C(C1)OC(=O)/C(=C/CO)/CO)C(=C)C(=O)O2)/C)OC(=O)C

>  <PUBCHEM_CACTVS_TPSA>
119

>  <PUBCHEM_MONOISOTOPIC_WEIGHT>
420.178

>  <PUBCHEM_TOTAL_CHARGE>
0

>  <PUBCHEM_HEAVY_ATOM_COUNT>
30

>  <PUBCHEM_ATOM_DEF_STEREO_COUNT>
0

>  <PUBCHEM_ATOM_UDEF_STEREO_COUNT>
4

>  <PUBCHEM_BOND_DEF_STEREO_COUNT>
3

>  <PUBCHEM_BOND_UDEF_STEREO_COUNT>
0

>  <PUBCHEM_ISOTOPIC_ATOM_COUNT>
0

>  <PUBCHEM_COMPONENT_COUNT>
1

>  <PUBCHEM_CACTVS_TAUTO_COUNT>
1

>  <PUBCHEM_COORDINATE_TYPE>
1
5
255

>  <PUBCHEM_BONDANNOTATIONS>
11  14  3
10  2  3
18  3  3
9  13  3

$$$$
