5461010
 OpenBabel06101807152D

 53 52  0  0  0  0  0  0  0  0999 V2000
    2.0000    4.1900    0.0000 O   0  5  0  0  0  0  0  0  0  0  0  0
    2.8660    2.6900    0.0000 O   0  0  0  0  0  0  0  0  0  0  0  0
    9.7942   -0.3100    0.0000 C   0  0  0  0  0  0  0  0  0  0  0  0
   10.6603   -0.8100    0.0000 C   0  0  0  0  0  0  0  0  0  0  0  0
    9.7942    0.6900    0.0000 C   0  0  0  0  0  0  0  0  0  0  0  0
   10.6603   -1.8100    0.0000 C   0  0  0  0  0  0  0  0  0  0  0  0
    8.9282    1.1900    0.0000 C   0  0  0  0  0  0  0  0  0  0  0  0
   11.5263   -2.3100    0.0000 C   0  0  0  0  0  0  0  0  0  0  0  0
    8.9282    2.1900    0.0000 C   0  0  0  0  0  0  0  0  0  0  0  0
   11.5263   -3.3100    0.0000 C   0  0  0  0  0  0  0  0  0  0  0  0
    8.0622    2.6900    0.0000 C   0  0  0  0  0  0  0  0  0  0  0  0
   12.3923   -3.8100    0.0000 C   0  0  0  0  0  0  0  0  0  0  0  0
    8.0622    3.6900    0.0000 C   0  0  0  0  0  0  0  0  0  0  0  0
    6.3301    3.6900    0.0000 C   0  0  0  0  0  0  0  0  0  0  0  0
    5.4641    4.1900    0.0000 C   0  0  0  0  0  0  0  0  0  0  0  0
   12.3923   -4.8100    0.0000 C   0  0  0  0  0  0  0  0  0  0  0  0
    7.1962    4.1900    0.0000 C   0  0  0  0  0  0  0  0  0  0  0  0
    4.5981    3.6900    0.0000 C   0  0  0  0  0  0  0  0  0  0  0  0
    3.7320    4.1900    0.0000 C   0  0  0  0  0  0  0  0  0  0  0  0
    2.8660    3.6900    0.0000 C   0  0  0  0  0  0  0  0  0  0  0  0
    9.1836   -0.2023    0.0000 H   0  0  0  0  0  0  0  0  0  0  0  0
    9.5822   -0.8926    0.0000 H   0  0  0  0  0  0  0  0  0  0  0  0
   11.2708   -0.9177    0.0000 H   0  0  0  0  0  0  0  0  0  0  0  0
   10.8723   -0.2274    0.0000 H   0  0  0  0  0  0  0  0  0  0  0  0
   10.4048    0.5823    0.0000 H   0  0  0  0  0  0  0  0  0  0  0  0
   10.0063    1.2726    0.0000 H   0  0  0  0  0  0  0  0  0  0  0  0
   10.0497   -1.7023    0.0000 H   0  0  0  0  0  0  0  0  0  0  0  0
   10.4482   -2.3926    0.0000 H   0  0  0  0  0  0  0  0  0  0  0  0
    8.3176    1.2977    0.0000 H   0  0  0  0  0  0  0  0  0  0  0  0
    8.7162    0.6074    0.0000 H   0  0  0  0  0  0  0  0  0  0  0  0
   12.1369   -2.4177    0.0000 H   0  0  0  0  0  0  0  0  0  0  0  0
   11.7383   -1.7274    0.0000 H   0  0  0  0  0  0  0  0  0  0  0  0
    9.5388    2.0823    0.0000 H   0  0  0  0  0  0  0  0  0  0  0  0
    9.1403    2.7726    0.0000 H   0  0  0  0  0  0  0  0  0  0  0  0
   10.9157   -3.2023    0.0000 H   0  0  0  0  0  0  0  0  0  0  0  0
   11.3142   -3.8926    0.0000 H   0  0  0  0  0  0  0  0  0  0  0  0
    7.4516    2.7977    0.0000 H   0  0  0  0  0  0  0  0  0  0  0  0
    7.8501    2.1074    0.0000 H   0  0  0  0  0  0  0  0  0  0  0  0
   13.0029   -3.9177    0.0000 H   0  0  0  0  0  0  0  0  0  0  0  0
   12.6044   -3.2274    0.0000 H   0  0  0  0  0  0  0  0  0  0  0  0
    8.5991    4.0000    0.0000 H   0  0  0  0  0  0  0  0  0  0  0  0
    5.9316    3.2151    0.0000 H   0  0  0  0  0  0  0  0  0  0  0  0
    6.7287    3.2151    0.0000 H   0  0  0  0  0  0  0  0  0  0  0  0
    5.8626    4.6650    0.0000 H   0  0  0  0  0  0  0  0  0  0  0  0
    5.0656    4.6650    0.0000 H   0  0  0  0  0  0  0  0  0  0  0  0
   11.7723   -4.8100    0.0000 H   0  0  0  0  0  0  0  0  0  0  0  0
   12.3923   -5.4300    0.0000 H   0  0  0  0  0  0  0  0  0  0  0  0
   13.0123   -4.8100    0.0000 H   0  0  0  0  0  0  0  0  0  0  0  0
    7.1962    4.8100    0.0000 H   0  0  0  0  0  0  0  0  0  0  0  0
    4.1996    3.2151    0.0000 H   0  0  0  0  0  0  0  0  0  0  0  0
    4.9966    3.2151    0.0000 H   0  0  0  0  0  0  0  0  0  0  0  0
    4.1306    4.6650    0.0000 H   0  0  0  0  0  0  0  0  0  0  0  0
    3.3335    4.6650    0.0000 H   0  0  0  0  0  0  0  0  0  0  0  0
  1 20  1  0  0  0  0
  2 20  2  0  0  0  0
  3  4  1  0  0  0  0
  3  5  1  0  0  0  0
  3 21  1  0  0  0  0
  3 22  1  0  0  0  0
  4  6  1  0  0  0  0
  4 23  1  0  0  0  0
  4 24  1  0  0  0  0
  5  7  1  0  0  0  0
  5 25  1  0  0  0  0
  5 26  1  0  0  0  0
  6  8  1  0  0  0  0
  6 27  1  0  0  0  0
  6 28  1  0  0  0  0
  7  9  1  0  0  0  0
  7 29  1  0  0  0  0
  7 30  1  0  0  0  0
  8 10  1  0  0  0  0
  8 31  1  0  0  0  0
  8 32  1  0  0  0  0
  9 11  1  0  0  0  0
  9 33  1  0  0  0  0
  9 34  1  0  0  0  0
 10 12  1  0  0  0  0
 10 35  1  0  0  0  0
 10 36  1  0  0  0  0
 11 13  1  0  0  0  0
 11 37  1  0  0  0  0
 11 38  1  0  0  0  0
 12 16  1  0  0  0  0
 12 39  1  0  0  0  0
 12 40  1  0  0  0  0
 13 17  2  0  0  0  0
 13 41  1  0  0  0  0
 14 15  1  0  0  0  0
 14 17  1  0  0  0  0
 14 42  1  0  0  0  0
 14 43  1  0  0  0  0
 15 18  1  0  0  0  0
 15 44  1  0  0  0  0
 15 45  1  0  0  0  0
 16 46  1  0  0  0  0
 16 47  1  0  0  0  0
 16 48  1  0  0  0  0
 17 49  1  0  0  0  0
 18 19  1  0  0  0  0
 18 50  1  0  0  0  0
 18 51  1  0  0  0  0
 19 20  1  0  0  0  0
 19 52  1  0  0  0  0
 19 53  1  0  0  0  0
M  CHG  1   1  -1
M  END
>  <PUBCHEM_COMPOUND_CID>
5461010

>  <PUBCHEM_COMPOUND_CANONICALIZED>
1

>  <PUBCHEM_CACTVS_COMPLEXITY>
228

>  <PUBCHEM_CACTVS_HBOND_ACCEPTOR>
2

>  <PUBCHEM_CACTVS_HBOND_DONOR>
0

>  <PUBCHEM_CACTVS_ROTATABLE_BOND>
14

>  <PUBCHEM_CACTVS_SUBSKEYS>
AAADcfB4MAAAAAAAAAAAAAAAAAAAAAAAAAAAAAAAAAAAAAAAAAAAGgAAAAAACACAgAACCAAAAACIACDSCAAAAAAgAAAICAEAAAgAABIAAQAAAAAEgAAIAAOIyIAAAAAAAAAAAAAAAAAAAAAAAAAAAAAAAA==

>  <PUBCHEM_IUPAC_OPENEYE_NAME>
(Z)-octadec-6-enoate

>  <PUBCHEM_IUPAC_CAS_NAME>
(Z)-6-octadecenoate

>  <PUBCHEM_IUPAC_NAME>
(Z)-octadec-6-enoate

>  <PUBCHEM_IUPAC_SYSTEMATIC_NAME>
(Z)-octadec-6-enoate

>  <PUBCHEM_IUPAC_TRADITIONAL_NAME>
(Z)-octadec-6-enoate

>  <PUBCHEM_IUPAC_INCHI>
InChI=1S/C18H34O2/c1-2-3-4-5-6-7-8-9-10-11-12-13-14-15-16-17-18(19)20/h12-13H,2-11,14-17H2,1H3,(H,19,20)/p-1/b13-12-

>  <PUBCHEM_IUPAC_INCHIKEY>
CNVZJPUDSLNTQU-SEYXRHQNSA-M

>  <PUBCHEM_XLOGP3_AA>
7.9

>  <PUBCHEM_EXACT_MASS>
281.248

>  <PUBCHEM_MOLECULAR_FORMULA>
C18H33O2-

>  <PUBCHEM_MOLECULAR_WEIGHT>
281.46

>  <PUBCHEM_OPENEYE_CAN_SMILES>
CCCCCCCCCCCC=CCCCCC(=O)[O-]

>  <PUBCHEM_OPENEYE_ISO_SMILES>
CCCCCCCCCCC/C=C\CCCCC(=O)[O-]

>  <PUBCHEM_CACTVS_TPSA>
40.1

>  <PUBCHEM_MONOISOTOPIC_WEIGHT>
281.248

>  <PUBCHEM_TOTAL_CHARGE>
-1

>  <PUBCHEM_HEAVY_ATOM_COUNT>
20

>  <PUBCHEM_ATOM_DEF_STEREO_COUNT>
0

>  <PUBCHEM_ATOM_UDEF_STEREO_COUNT>
0

>  <PUBCHEM_BOND_DEF_STEREO_COUNT>
1

>  <PUBCHEM_BOND_UDEF_STEREO_COUNT>
0

>  <PUBCHEM_ISOTOPIC_ATOM_COUNT>
0

>  <PUBCHEM_COMPONENT_COUNT>
1

>  <PUBCHEM_CACTVS_TAUTO_COUNT>
1

>  <PUBCHEM_COORDINATE_TYPE>
1
5
255

$$$$
