5467256
 OpenBabel06101807152D

 67 69  0  0  0  0  0  0  0  0999 V2000
    7.2764    1.8292    0.0000 O   0  0  0  0  0  0  0  0  0  0  0  0
    3.7320    1.6340    0.0000 O   0  0  0  0  0  0  0  0  0  0  0  0
   10.8600    0.9019    0.0000 O   0  0  0  0  0  0  0  0  0  0  0  0
   10.8600    4.3660    0.0000 O   0  0  0  0  0  0  0  0  0  0  0  0
    6.3301    2.1340    0.0000 C   0  0  0  0  0  0  0  0  0  0  0  0
    5.4641    1.6340    0.0000 C   0  0  0  0  0  0  0  0  0  0  0  0
    6.3301    3.1340    0.0000 C   0  0  0  0  0  0  0  0  0  0  0  0
    7.8600    2.6340    0.0000 C   0  0  0  0  0  0  0  0  0  0  0  0
    5.4641    0.6340    0.0000 C   0  0  0  0  0  0  0  0  0  0  0  0
    8.8600    2.6340    0.0000 C   0  0  0  0  0  0  0  0  0  0  0  0
    7.2764    3.4387    0.0000 C   0  0  0  0  0  0  0  0  0  0  0  0
    9.3600    1.7680    0.0000 C   0  0  0  0  0  0  0  0  0  0  0  0
    4.5981    2.1340    0.0000 C   0  0  0  0  0  0  0  0  0  0  0  0
    4.5981    0.1340    0.0000 C   0  0  0  0  0  0  0  0  0  0  0  0
    5.4641    3.6340    0.0000 C   0  0  0  0  0  0  0  0  0  0  0  0
    4.5981   -0.8660    0.0000 C   0  0  0  0  0  0  0  0  0  0  0  0
    3.7320   -1.3660    0.0000 C   0  0  0  0  0  0  0  0  0  0  0  0
    8.8600    0.9019    0.0000 C   0  0  0  0  0  0  0  0  0  0  0  0
    4.5981    3.1340    0.0000 C   0  0  0  0  0  0  0  0  0  0  0  0
    9.3600    3.5000    0.0000 C   0  0  0  0  0  0  0  0  0  0  0  0
    3.7320   -2.3660    0.0000 C   0  0  0  0  0  0  0  0  0  0  0  0
   10.3600    1.7680    0.0000 C   0  0  0  0  0  0  0  0  0  0  0  0
   10.3600    3.5000    0.0000 C   0  0  0  0  0  0  0  0  0  0  0  0
    5.4641   -1.3660    0.0000 C   0  0  0  0  0  0  0  0  0  0  0  0
   10.8600    2.6340    0.0000 C   0  0  0  0  0  0  0  0  0  0  0  0
    9.3600    0.0359    0.0000 C   0  0  0  0  0  0  0  0  0  0  0  0
    2.8660   -2.8660    0.0000 C   0  0  0  0  0  0  0  0  0  0  0  0
    8.8600   -0.8301    0.0000 C   0  0  0  0  0  0  0  0  0  0  0  0
    2.8660   -3.8660    0.0000 C   0  0  0  0  0  0  0  0  0  0  0  0
    9.3600   -1.6962    0.0000 C   0  0  0  0  0  0  0  0  0  0  0  0
    7.8600   -0.8301    0.0000 C   0  0  0  0  0  0  0  0  0  0  0  0
    2.0000   -4.3660    0.0000 C   0  0  0  0  0  0  0  0  0  0  0  0
    3.7320   -4.3660    0.0000 C   0  0  0  0  0  0  0  0  0  0  0  0
    5.6762    0.0514    0.0000 H   0  0  0  0  0  0  0  0  0  0  0  0
    6.0747    0.7416    0.0000 H   0  0  0  0  0  0  0  0  0  0  0  0
    7.4690    4.0280    0.0000 H   0  0  0  0  0  0  0  0  0  0  0  0
    4.0611    0.4440    0.0000 H   0  0  0  0  0  0  0  0  0  0  0  0
    5.4641    4.2540    0.0000 H   0  0  0  0  0  0  0  0  0  0  0  0
    3.5200   -0.7834    0.0000 H   0  0  0  0  0  0  0  0  0  0  0  0
    3.1215   -1.4737    0.0000 H   0  0  0  0  0  0  0  0  0  0  0  0
    8.3850    1.3005    0.0000 H   0  0  0  0  0  0  0  0  0  0  0  0
    8.3850    0.5034    0.0000 H   0  0  0  0  0  0  0  0  0  0  0  0
    4.0611    3.4440    0.0000 H   0  0  0  0  0  0  0  0  0  0  0  0
    9.0500    4.0369    0.0000 H   0  0  0  0  0  0  0  0  0  0  0  0
    3.9441   -2.9486    0.0000 H   0  0  0  0  0  0  0  0  0  0  0  0
    4.3426   -2.2584    0.0000 H   0  0  0  0  0  0  0  0  0  0  0  0
    5.1541   -1.9030    0.0000 H   0  0  0  0  0  0  0  0  0  0  0  0
    6.0010   -1.6760    0.0000 H   0  0  0  0  0  0  0  0  0  0  0  0
    5.7741   -0.8291    0.0000 H   0  0  0  0  0  0  0  0  0  0  0  0
   11.4800    2.6340    0.0000 H   0  0  0  0  0  0  0  0  0  0  0  0
    9.9800    0.0359    0.0000 H   0  0  0  0  0  0  0  0  0  0  0  0
    2.3291   -2.5560    0.0000 H   0  0  0  0  0  0  0  0  0  0  0  0
    3.1951    1.9440    0.0000 H   0  0  0  0  0  0  0  0  0  0  0  0
   11.4800    0.9019    0.0000 H   0  0  0  0  0  0  0  0  0  0  0  0
    7.8600   -0.2101    0.0000 H   0  0  0  0  0  0  0  0  0  0  0  0
    7.2400   -0.8301    0.0000 H   0  0  0  0  0  0  0  0  0  0  0  0
    7.8600   -1.4501    0.0000 H   0  0  0  0  0  0  0  0  0  0  0  0
    8.8230   -2.0062    0.0000 H   0  0  0  0  0  0  0  0  0  0  0  0
    9.6700   -2.2331    0.0000 H   0  0  0  0  0  0  0  0  0  0  0  0
    9.8969   -1.3862    0.0000 H   0  0  0  0  0  0  0  0  0  0  0  0
   11.4800    4.3660    0.0000 H   0  0  0  0  0  0  0  0  0  0  0  0
    3.4220   -4.9030    0.0000 H   0  0  0  0  0  0  0  0  0  0  0  0
    4.2690   -4.6760    0.0000 H   0  0  0  0  0  0  0  0  0  0  0  0
    4.0420   -3.8291    0.0000 H   0  0  0  0  0  0  0  0  0  0  0  0
    1.6900   -3.8291    0.0000 H   0  0  0  0  0  0  0  0  0  0  0  0
    1.4631   -4.6760    0.0000 H   0  0  0  0  0  0  0  0  0  0  0  0
    2.3100   -4.9030    0.0000 H   0  0  0  0  0  0  0  0  0  0  0  0
  1  5  1  0  0  0  0
  1  8  1  0  0  0  0
  2 13  1  0  0  0  0
  2 53  1  0  0  0  0
  3 22  1  0  0  0  0
  3 54  1  0  0  0  0
  4 23  1  0  0  0  0
  4 61  1  0  0  0  0
  5  6  1  0  0  0  0
  5  7  2  0  0  0  0
  6  9  1  0  0  0  0
  6 13  2  0  0  0  0
  7 11  1  0  0  0  0
  7 15  1  0  0  0  0
  8 10  1  0  0  0  0
  8 11  2  0  0  0  0
  9 14  1  0  0  0  0
  9 34  1  0  0  0  0
  9 35  1  0  0  0  0
 10 12  2  0  0  0  0
 10 20  1  0  0  0  0
 11 36  1  0  0  0  0
 12 18  1  0  0  0  0
 12 22  1  0  0  0  0
 13 19  1  0  0  0  0
 14 16  2  0  0  0  0
 14 37  1  0  0  0  0
 15 19  2  0  0  0  0
 15 38  1  0  0  0  0
 16 17  1  0  0  0  0
 16 24  1  0  0  0  0
 17 21  1  0  0  0  0
 17 39  1  0  0  0  0
 17 40  1  0  0  0  0
 18 26  1  0  0  0  0
 18 41  1  0  0  0  0
 18 42  1  0  0  0  0
 19 43  1  0  0  0  0
 20 23  2  0  0  0  0
 20 44  1  0  0  0  0
 21 27  1  0  0  0  0
 21 45  1  0  0  0  0
 21 46  1  0  0  0  0
 22 25  2  0  0  0  0
 23 25  1  0  0  0  0
 24 47  1  0  0  0  0
 24 48  1  0  0  0  0
 24 49  1  0  0  0  0
 25 50  1  0  0  0  0
 26 28  2  0  0  0  0
 26 51  1  0  0  0  0
 27 29  2  0  0  0  0
 27 52  1  0  0  0  0
 28 30  1  0  0  0  0
 28 31  1  0  0  0  0
 29 32  1  0  0  0  0
 29 33  1  0  0  0  0
 30 58  1  0  0  0  0
 30 59  1  0  0  0  0
 30 60  1  0  0  0  0
 31 55  1  0  0  0  0
 31 56  1  0  0  0  0
 31 57  1  0  0  0  0
 32 65  1  0  0  0  0
 32 66  1  0  0  0  0
 32 67  1  0  0  0  0
 33 62  1  0  0  0  0
 33 63  1  0  0  0  0
 33 64  1  0  0  0  0
M  END
>  <PUBCHEM_COMPOUND_CID>
5467256

>  <PUBCHEM_COMPOUND_CANONICALIZED>
1

>  <PUBCHEM_CACTVS_COMPLEXITY>
715

>  <PUBCHEM_CACTVS_HBOND_ACCEPTOR>
4

>  <PUBCHEM_CACTVS_HBOND_DONOR>
3

>  <PUBCHEM_CACTVS_ROTATABLE_BOND>
8

>  <PUBCHEM_CACTVS_SUBSKEYS>
AAADcfB4OAAAAAAAAAAAAAAAAAAAASAAAAAwYAAAAAAAAEgB9AAAGgAACAAADASAmAAyBsAABkCIAqBSAAACCAAkIAAIiAEGCMgMJzaGNRqCeWCl4BUIuYfK7PzOoAADCAAYAABAAAYQADAAAAAAAAAAAA==

>  <PUBCHEM_IUPAC_OPENEYE_NAME>
5-[7-[(2E)-3,7-dimethylocta-2,6-dienyl]-6-hydroxy-benzofuran-2-yl]-4-(3-methylbut-2-enyl)benzene-1,3-diol

>  <PUBCHEM_IUPAC_CAS_NAME>
5-[7-[(2E)-3,7-dimethylocta-2,6-dienyl]-6-hydroxy-2-benzofuranyl]-4-(3-methylbut-2-enyl)benzene-1,3-diol

>  <PUBCHEM_IUPAC_NAME>
5-[7-[(2E)-3,7-dimethylocta-2,6-dienyl]-6-hydroxy-1-benzofuran-2-yl]-4-(3-methylbut-2-enyl)benzene-1,3-diol

>  <PUBCHEM_IUPAC_SYSTEMATIC_NAME>
5-[7-[(2E)-3,7-dimethylocta-2,6-dienyl]-6-oxidanyl-1-benzofuran-2-yl]-4-(3-methylbut-2-enyl)benzene-1,3-diol

>  <PUBCHEM_IUPAC_TRADITIONAL_NAME>
5-[7-[(2E)-3,7-dimethylocta-2,6-dienyl]-6-hydroxy-benzofuran-2-yl]-4-(3-methylbut-2-enyl)resorcinol

>  <PUBCHEM_IUPAC_INCHI>
InChI=1S/C29H34O4/c1-18(2)7-6-8-20(5)10-13-24-26(31)14-11-21-15-28(33-29(21)24)25-16-22(30)17-27(32)23(25)12-9-19(3)4/h7,9-11,14-17,30-32H,6,8,12-13H2,1-5H3/b20-10+

>  <PUBCHEM_IUPAC_INCHIKEY>
WCJPAQJEARHLGS-KEBDBYFISA-N

>  <PUBCHEM_XLOGP3_AA>
8.6

>  <PUBCHEM_EXACT_MASS>
446.246

>  <PUBCHEM_MOLECULAR_FORMULA>
C29H34O4

>  <PUBCHEM_MOLECULAR_WEIGHT>
446.587

>  <PUBCHEM_OPENEYE_CAN_SMILES>
CC(=CCCC(=CCC1=C(C=CC2=C1OC(=C2)C3=CC(=CC(=C3CC=C(C)C)O)O)O)C)C

>  <PUBCHEM_OPENEYE_ISO_SMILES>
CC(=CCC/C(=C/CC1=C(C=CC2=C1OC(=C2)C3=CC(=CC(=C3CC=C(C)C)O)O)O)/C)C

>  <PUBCHEM_CACTVS_TPSA>
73.8

>  <PUBCHEM_MONOISOTOPIC_WEIGHT>
446.246

>  <PUBCHEM_TOTAL_CHARGE>
0

>  <PUBCHEM_HEAVY_ATOM_COUNT>
33

>  <PUBCHEM_ATOM_DEF_STEREO_COUNT>
0

>  <PUBCHEM_ATOM_UDEF_STEREO_COUNT>
0

>  <PUBCHEM_BOND_DEF_STEREO_COUNT>
1

>  <PUBCHEM_BOND_UDEF_STEREO_COUNT>
0

>  <PUBCHEM_ISOTOPIC_ATOM_COUNT>
0

>  <PUBCHEM_COMPONENT_COUNT>
1

>  <PUBCHEM_CACTVS_TAUTO_COUNT>
44

>  <PUBCHEM_COORDINATE_TYPE>
1
5
255

>  <PUBCHEM_BONDANNOTATIONS>
1  5  8
1  8  8
10  12  8
10  20  8
12  22  8
13  19  8
15  19  8
20  23  8
22  25  8
23  25  8
5  6  8
5  7  8
6  13  8
7  11  8
7  15  8
8  11  8

$$$$
