54681543
 OpenBabel06101807152D

 40 39  0  0  1  0  0  0  0  0999 V2000
    3.4543    0.8910    0.0000 O   0  0  0  0  0  0  0  0  0  0  0  0
    4.3392    7.7082    0.0000 O   0  0  0  0  0  0  0  0  0  0  0  0
    1.4863    0.1916    0.0000 O   0  0  0  0  0  0  0  0  0  0  0  0
    2.3665    3.2388    0.0000 O   0  0  0  0  0  0  0  0  0  0  0  0
    4.5421    3.2388    0.0000 O   0  0  0  0  0  0  0  0  0  0  0  0
    0.0000    1.5298    0.0000 O   0  5  0  0  0  0  0  0  0  0  0  0
    5.2143    1.1697    0.0000 O   0  0  0  0  0  0  0  0  0  0  0  0
    1.7412    7.2082    0.0000 N   0  3  0  0  0  0  0  0  0  0  0  0
    2.6072    7.7082    0.0000 C   0  0  0  0  0  0  0  0  0  0  0  0
    0.8751    6.7082    0.0000 C   0  0  0  0  0  0  0  0  0  0  0  0
    1.2412    8.0742    0.0000 C   0  0  0  0  0  0  0  0  0  0  0  0
    2.2412    6.3422    0.0000 C   0  0  0  0  0  0  0  0  0  0  0  0
    3.4732    7.2082    0.0000 C   0  0  0  0  0  0  0  0  0  0  0  0
    2.6453    1.4788    0.0000 C   0  0  3  0  0  0  0  0  0  0  0  0
    1.6942    1.1697    0.0000 C   0  0  2  0  0  0  0  0  0  0  0  0
    2.9543    2.4298    0.0000 C   0  0  0  0  0  0  0  0  0  0  0  0
    0.9511    1.8389    0.0000 C   0  0  0  0  0  0  0  0  0  0  0  0
    3.9543    2.4298    0.0000 C   0  0  0  0  0  0  0  0  0  0  0  0
    4.2633    1.4788    0.0000 C   0  0  0  0  0  0  0  0  0  0  0  0
    3.0057    8.1831    0.0000 H   0  0  0  0  0  0  0  0  0  0  0  0
    2.2086    8.1831    0.0000 H   0  0  0  0  0  0  0  0  0  0  0  0
    1.7781    8.3842    0.0000 H   0  0  0  0  0  0  0  0  0  0  0  0
    0.9311    8.6112    0.0000 H   0  0  0  0  0  0  0  0  0  0  0  0
    0.7042    7.7642    0.0000 H   0  0  0  0  0  0  0  0  0  0  0  0
    0.5651    7.2451    0.0000 H   0  0  0  0  0  0  0  0  0  0  0  0
    0.3382    6.3982    0.0000 H   0  0  0  0  0  0  0  0  0  0  0  0
    1.1851    6.1712    0.0000 H   0  0  0  0  0  0  0  0  0  0  0  0
    1.7042    6.0322    0.0000 H   0  0  0  0  0  0  0  0  0  0  0  0
    2.5511    5.8052    0.0000 H   0  0  0  0  0  0  0  0  0  0  0  0
    2.7781    6.6522    0.0000 H   0  0  0  0  0  0  0  0  0  0  0  0
    3.0747    6.7332    0.0000 H   0  0  0  0  0  0  0  0  0  0  0  0
    3.8717    6.7332    0.0000 H   0  0  0  0  0  0  0  0  0  0  0  0
    2.5483    0.8664    0.0000 H   0  0  0  0  0  0  0  0  0  0  0  0
    1.1046    0.9781    0.0000 H   0  0  0  0  0  0  0  0  0  0  0  0
    1.4396    2.2206    0.0000 H   0  0  0  0  0  0  0  0  0  0  0  0
    0.6600    2.3863    0.0000 H   0  0  0  0  0  0  0  0  0  0  0  0
    4.8762    7.3982    0.0000 H   0  0  0  0  0  0  0  0  0  0  0  0
    0.8966    0.0000    0.0000 H   0  0  0  0  0  0  0  0  0  0  0  0
    2.6187    3.8052    0.0000 H   0  0  0  0  0  0  0  0  0  0  0  0
    5.1587    3.1740    0.0000 H   0  0  0  0  0  0  0  0  0  0  0  0
  1 14  1  0  0  0  0
  1 19  1  0  0  0  0
  2 13  1  0  0  0  0
  2 37  1  0  0  0  0
  3 38  1  0  0  0  0
  4 16  1  0  0  0  0
  4 39  1  0  0  0  0
  5 18  1  0  0  0  0
  5 40  1  0  0  0  0
  6 17  1  0  0  0  0
  7 19  2  0  0  0  0
  8  9  1  0  0  0  0
  8 10  1  0  0  0  0
  8 11  1  0  0  0  0
  8 12  1  0  0  0  0
  9 13  1  0  0  0  0
  9 20  1  0  0  0  0
  9 21  1  0  0  0  0
 10 25  1  0  0  0  0
 10 26  1  0  0  0  0
 10 27  1  0  0  0  0
 11 22  1  0  0  0  0
 11 23  1  0  0  0  0
 11 24  1  0  0  0  0
 12 28  1  0  0  0  0
 12 29  1  0  0  0  0
 12 30  1  0  0  0  0
 13 31  1  0  0  0  0
 13 32  1  0  0  0  0
 14 15  1  0  0  0  0
 14 16  1  0  0  0  0
 14 33  1  0  0  0  0
 15  3  1  0  0  0  0
 15 17  1  0  0  0  0
 15 34  1  6  0  0  0
 16 18  2  0  0  0  0
 17 35  1  0  0  0  0
 17 36  1  0  0  0  0
 18 19  1  0  0  0  0
M  CHG  2   6  -1   8   1
M  END
>  <PUBCHEM_COMPOUND_CID>
54681543

>  <PUBCHEM_COMPOUND_CANONICALIZED>
1

>  <PUBCHEM_CACTVS_COMPLEXITY>
279

>  <PUBCHEM_CACTVS_HBOND_ACCEPTOR>
7

>  <PUBCHEM_CACTVS_HBOND_DONOR>
4

>  <PUBCHEM_CACTVS_ROTATABLE_BOND>
4

>  <PUBCHEM_CACTVS_SUBSKEYS>
AAADceByOAAAAAAAAAAAAAAAAAAAAQAAAAAAAAAAAAAAAAAAAAAAHgAACAAACBThgAYCCAMABgCIAADQCAIAAAAgIAAACABIAEgDFAAAIAACUAAFwAAbIQJAAAAAAAAAAAAAAAAAAAAAAAAAAAAAAAAAAA==

>  <PUBCHEM_IUPAC_OPENEYE_NAME>
(2S)-2-(3,4-dihydroxy-5-oxo-2H-furan-2-yl)-2-hydroxy-ethanolate;2-hydroxyethyl(trimethyl)ammonium

>  <PUBCHEM_IUPAC_CAS_NAME>
(2S)-2-(3,4-dihydroxy-5-oxo-2H-furan-2-yl)-2-hydroxyethanolate;2-hydroxyethyl(trimethyl)ammonium

>  <PUBCHEM_IUPAC_NAME>
(2S)-2-(3,4-dihydroxy-5-oxo-2H-furan-2-yl)-2-hydroxyethanolate;2-hydroxyethyl(trimethyl)azanium

>  <PUBCHEM_IUPAC_SYSTEMATIC_NAME>
(2S)-2-[3,4-bis(oxidanyl)-5-oxidanylidene-2H-furan-2-yl]-2-oxidanyl-ethanolate;2-hydroxyethyl(trimethyl)azanium

>  <PUBCHEM_IUPAC_TRADITIONAL_NAME>
(2S)-2-(3,4-dihydroxy-5-keto-2H-furan-2-yl)-2-hydroxy-ethanolate;2-hydroxyethyl(trimethyl)ammonium

>  <PUBCHEM_IUPAC_INCHI>
InChI=1S/C6H7O6.C5H14NO/c7-1-2(8)5-3(9)4(10)6(11)12-5;1-6(2,3)4-5-7/h2,5,8-10H,1H2;7H,4-5H2,1-3H3/q-1;+1/t2-,5?;/m0./s1

>  <PUBCHEM_IUPAC_INCHIKEY>
FSJVVVCZSRCTBM-HXPAKLQESA-N

>  <PUBCHEM_EXACT_MASS>
279.132

>  <PUBCHEM_MOLECULAR_FORMULA>
C11H21NO7

>  <PUBCHEM_MOLECULAR_WEIGHT>
279.289

>  <PUBCHEM_OPENEYE_CAN_SMILES>
C[N+](C)(C)CCO.C(C(C1C(=C(C(=O)O1)O)O)O)[O-]

>  <PUBCHEM_OPENEYE_ISO_SMILES>
C[N+](C)(C)CCO.C([C@@H](C1C(=C(C(=O)O1)O)O)O)[O-]

>  <PUBCHEM_CACTVS_TPSA>
130

>  <PUBCHEM_MONOISOTOPIC_WEIGHT>
279.132

>  <PUBCHEM_TOTAL_CHARGE>
0

>  <PUBCHEM_HEAVY_ATOM_COUNT>
19

>  <PUBCHEM_ATOM_DEF_STEREO_COUNT>
1

>  <PUBCHEM_ATOM_UDEF_STEREO_COUNT>
1

>  <PUBCHEM_BOND_DEF_STEREO_COUNT>
0

>  <PUBCHEM_BOND_UDEF_STEREO_COUNT>
0

>  <PUBCHEM_ISOTOPIC_ATOM_COUNT>
0

>  <PUBCHEM_COMPONENT_COUNT>
2

>  <PUBCHEM_CACTVS_TAUTO_COUNT>
8

>  <PUBCHEM_COORDINATE_TYPE>
1
5
255

>  <PUBCHEM_BONDANNOTATIONS>
14  16  3
15  3  5

$$$$
