5468405
 OpenBabel06101807152D

 91 91  0  0  1  0  0  0  0  0999 V2000
    6.3301    0.2500    0.0000 O   0  0  0  0  0  0  0  0  0  0  0  0
    4.5981    0.2500    0.0000 O   0  0  0  0  0  0  0  0  0  0  0  0
   16.7224    0.2500    0.0000 O   0  0  0  0  0  0  0  0  0  0  0  0
   19.3205   -1.2500    0.0000 O   0  0  0  0  0  0  0  0  0  0  0  0
   21.0526   -1.2500    0.0000 O   0  0  0  0  0  0  0  0  0  0  0  0
    5.4641   -1.2500    0.0000 C   0  0  3  0  0  0  0  0  0  0  0  0
    6.3301   -0.7500    0.0000 C   0  0  3  0  0  0  0  0  0  0  0  0
    4.5981   -0.7500    0.0000 C   0  0  3  0  0  0  0  0  0  0  0  0
    7.1962   -1.2500    0.0000 C   0  0  0  0  0  0  0  0  0  0  0  0
    5.4641   -2.2500    0.0000 C   0  0  0  0  0  0  0  0  0  0  0  0
    3.7320   -1.2500    0.0000 C   0  0  0  0  0  0  0  0  0  0  0  0
    8.0622   -0.7500    0.0000 C   0  0  0  0  0  0  0  0  0  0  0  0
   17.5885   -1.2500    0.0000 C   0  0  3  0  0  0  0  0  0  0  0  0
   16.7224   -0.7500    0.0000 C   0  0  3  0  0  0  0  0  0  0  0  0
    3.7320   -2.2500    0.0000 C   0  0  0  0  0  0  0  0  0  0  0  0
    2.8660   -0.7500    0.0000 C   0  0  0  0  0  0  0  0  0  0  0  0
    8.9282   -1.2500    0.0000 C   0  0  0  0  0  0  0  0  0  0  0  0
   15.8564   -1.2500    0.0000 C   0  0  0  0  0  0  0  0  0  0  0  0
   18.4545   -0.7500    0.0000 C   0  0  0  0  0  0  0  0  0  0  0  0
   17.5885   -2.2500    0.0000 C   0  0  0  0  0  0  0  0  0  0  0  0
    9.7942   -0.7500    0.0000 C   0  0  0  0  0  0  0  0  0  0  0  0
   14.9904   -0.7500    0.0000 C   0  0  0  0  0  0  0  0  0  0  0  0
   10.6603   -1.2500    0.0000 C   0  0  0  0  0  0  0  0  0  0  0  0
    2.0000   -1.2500    0.0000 C   0  0  0  0  0  0  0  0  0  0  0  0
   11.5263   -0.7500    0.0000 C   0  0  0  0  0  0  0  0  0  0  0  0
   18.4545    0.2500    0.0000 C   0  0  0  0  0  0  0  0  0  0  0  0
   14.1244   -1.2500    0.0000 C   0  0  0  0  0  0  0  0  0  0  0  0
    8.9282   -2.2500    0.0000 C   0  0  0  0  0  0  0  0  0  0  0  0
   15.8564   -2.2500    0.0000 C   0  0  0  0  0  0  0  0  0  0  0  0
   12.3923   -1.2500    0.0000 C   0  0  0  0  0  0  0  0  0  0  0  0
   20.1865    0.2500    0.0000 C   0  0  0  0  0  0  0  0  0  0  0  0
   19.3205    0.7500    0.0000 C   0  0  0  0  0  0  0  0  0  0  0  0
   13.2583   -0.7500    0.0000 C   0  0  0  0  0  0  0  0  0  0  0  0
   21.0526    0.7500    0.0000 C   0  0  0  0  0  0  0  0  0  0  0  0
   20.1865   -0.7500    0.0000 C   0  0  0  0  0  0  0  0  0  0  0  0
   10.6603   -2.2500    0.0000 C   0  0  0  0  0  0  0  0  0  0  0  0
   21.0526    1.7500    0.0000 C   0  0  0  0  0  0  0  0  0  0  0  0
   12.3923   -2.2500    0.0000 C   0  0  0  0  0  0  0  0  0  0  0  0
   21.9186    2.2500    0.0000 C   0  0  0  0  0  0  0  0  0  0  0  0
    6.2002   -1.6750    0.0000 H   0  0  0  0  0  0  0  0  0  0  0  0
    7.0662   -0.3250    0.0000 H   0  0  0  0  0  0  0  0  0  0  0  0
    5.3342   -0.3250    0.0000 H   0  0  0  0  0  0  0  0  0  0  0  0
    6.7976   -1.7250    0.0000 H   0  0  0  0  0  0  0  0  0  0  0  0
    7.5947   -1.7250    0.0000 H   0  0  0  0  0  0  0  0  0  0  0  0
    4.8441   -2.2500    0.0000 H   0  0  0  0  0  0  0  0  0  0  0  0
    5.4641   -2.8700    0.0000 H   0  0  0  0  0  0  0  0  0  0  0  0
    6.0841   -2.2500    0.0000 H   0  0  0  0  0  0  0  0  0  0  0  0
   18.3246   -1.6750    0.0000 H   0  0  0  0  0  0  0  0  0  0  0  0
    8.0622   -0.1300    0.0000 H   0  0  0  0  0  0  0  0  0  0  0  0
   15.9863   -0.3250    0.0000 H   0  0  0  0  0  0  0  0  0  0  0  0
    5.7932    0.5600    0.0000 H   0  0  0  0  0  0  0  0  0  0  0  0
    4.0611    0.5600    0.0000 H   0  0  0  0  0  0  0  0  0  0  0  0
    3.1120   -2.2500    0.0000 H   0  0  0  0  0  0  0  0  0  0  0  0
    3.7320   -2.8700    0.0000 H   0  0  0  0  0  0  0  0  0  0  0  0
    4.3520   -2.2500    0.0000 H   0  0  0  0  0  0  0  0  0  0  0  0
    2.8660   -0.1300    0.0000 H   0  0  0  0  0  0  0  0  0  0  0  0
   16.9685   -2.2500    0.0000 H   0  0  0  0  0  0  0  0  0  0  0  0
   17.5885   -2.8700    0.0000 H   0  0  0  0  0  0  0  0  0  0  0  0
   18.2085   -2.2500    0.0000 H   0  0  0  0  0  0  0  0  0  0  0  0
    9.7942   -0.1300    0.0000 H   0  0  0  0  0  0  0  0  0  0  0  0
   14.9904   -0.1300    0.0000 H   0  0  0  0  0  0  0  0  0  0  0  0
   17.9175    0.5600    0.0000 H   0  0  0  0  0  0  0  0  0  0  0  0
   11.9248   -0.2751    0.0000 H   0  0  0  0  0  0  0  0  0  0  0  0
   11.1278   -0.2751    0.0000 H   0  0  0  0  0  0  0  0  0  0  0  0
    1.6900   -0.7131    0.0000 H   0  0  0  0  0  0  0  0  0  0  0  0
    1.4631   -1.5600    0.0000 H   0  0  0  0  0  0  0  0  0  0  0  0
    2.3100   -1.7869    0.0000 H   0  0  0  0  0  0  0  0  0  0  0  0
   13.7258   -1.7250    0.0000 H   0  0  0  0  0  0  0  0  0  0  0  0
   14.5229   -1.7250    0.0000 H   0  0  0  0  0  0  0  0  0  0  0  0
    8.3082   -2.2500    0.0000 H   0  0  0  0  0  0  0  0  0  0  0  0
    8.9282   -2.8700    0.0000 H   0  0  0  0  0  0  0  0  0  0  0  0
    9.5482   -2.2500    0.0000 H   0  0  0  0  0  0  0  0  0  0  0  0
   15.2364   -2.2500    0.0000 H   0  0  0  0  0  0  0  0  0  0  0  0
   15.8564   -2.8700    0.0000 H   0  0  0  0  0  0  0  0  0  0  0  0
   16.4764   -2.2500    0.0000 H   0  0  0  0  0  0  0  0  0  0  0  0
   16.1855    0.5600    0.0000 H   0  0  0  0  0  0  0  0  0  0  0  0
   19.3205    1.3700    0.0000 H   0  0  0  0  0  0  0  0  0  0  0  0
   13.2583   -0.1300    0.0000 H   0  0  0  0  0  0  0  0  0  0  0  0
   21.2646    0.1674    0.0000 H   0  0  0  0  0  0  0  0  0  0  0  0
   21.6631    0.8577    0.0000 H   0  0  0  0  0  0  0  0  0  0  0  0
   10.0403   -2.2500    0.0000 H   0  0  0  0  0  0  0  0  0  0  0  0
   10.6603   -2.8700    0.0000 H   0  0  0  0  0  0  0  0  0  0  0  0
   11.2803   -2.2500    0.0000 H   0  0  0  0  0  0  0  0  0  0  0  0
   20.8405    2.3326    0.0000 H   0  0  0  0  0  0  0  0  0  0  0  0
   20.4420    1.6423    0.0000 H   0  0  0  0  0  0  0  0  0  0  0  0
   11.7723   -2.2500    0.0000 H   0  0  0  0  0  0  0  0  0  0  0  0
   12.3923   -2.8700    0.0000 H   0  0  0  0  0  0  0  0  0  0  0  0
   13.0123   -2.2500    0.0000 H   0  0  0  0  0  0  0  0  0  0  0  0
   22.2286    1.7131    0.0000 H   0  0  0  0  0  0  0  0  0  0  0  0
   22.4555    2.5600    0.0000 H   0  0  0  0  0  0  0  0  0  0  0  0
   21.6086    2.7869    0.0000 H   0  0  0  0  0  0  0  0  0  0  0  0
  1  7  1  0  0  0  0
  1 51  1  0  0  0  0
  2  8  1  0  0  0  0
  2 52  1  0  0  0  0
  3 14  1  0  0  0  0
  3 76  1  0  0  0  0
  4 19  1  0  0  0  0
  4 35  1  0  0  0  0
  5 35  2  0  0  0  0
  6  7  1  0  0  0  0
  6  8  1  0  0  0  0
  6 10  1  0  0  0  0
  6 40  1  0  0  0  0
  7  9  1  0  0  0  0
  7 41  1  0  0  0  0
  8 11  1  0  0  0  0
  8 42  1  0  0  0  0
  9 12  1  0  0  0  0
  9 43  1  0  0  0  0
  9 44  1  0  0  0  0
 10 45  1  0  0  0  0
 10 46  1  0  0  0  0
 10 47  1  0  0  0  0
 11 15  1  0  0  0  0
 11 16  2  0  0  0  0
 12 17  2  0  0  0  0
 12 49  1  0  0  0  0
 13 14  1  0  0  0  0
 13 19  1  0  0  0  0
 13 20  1  0  0  0  0
 13 48  1  0  0  0  0
 14 18  1  0  0  0  0
 14 50  1  0  0  0  0
 15 53  1  0  0  0  0
 15 54  1  0  0  0  0
 15 55  1  0  0  0  0
 16 24  1  0  0  0  0
 16 56  1  0  0  0  0
 17 21  1  0  0  0  0
 17 28  1  0  0  0  0
 18 22  2  0  0  0  0
 18 29  1  0  0  0  0
 19 26  2  0  0  0  0
 20 57  1  0  0  0  0
 20 58  1  0  0  0  0
 20 59  1  0  0  0  0
 21 23  2  0  0  0  0
 21 60  1  0  0  0  0
 22 27  1  0  0  0  0
 22 61  1  0  0  0  0
 23 25  1  0  0  0  0
 23 36  1  0  0  0  0
 24 65  1  0  0  0  0
 24 66  1  0  0  0  0
 24 67  1  0  0  0  0
 25 30  1  0  0  0  0
 25 63  1  0  0  0  0
 25 64  1  0  0  0  0
 26 32  1  0  0  0  0
 26 62  1  0  0  0  0
 27 33  1  0  0  0  0
 27 68  1  0  0  0  0
 27 69  1  0  0  0  0
 28 70  1  0  0  0  0
 28 71  1  0  0  0  0
 28 72  1  0  0  0  0
 29 73  1  0  0  0  0
 29 74  1  0  0  0  0
 29 75  1  0  0  0  0
 30 33  2  0  0  0  0
 30 38  1  0  0  0  0
 31 32  2  0  0  0  0
 31 34  1  0  0  0  0
 31 35  1  0  0  0  0
 32 77  1  0  0  0  0
 33 78  1  0  0  0  0
 34 37  1  0  0  0  0
 34 79  1  0  0  0  0
 34 80  1  0  0  0  0
 36 81  1  0  0  0  0
 36 82  1  0  0  0  0
 36 83  1  0  0  0  0
 37 39  1  0  0  0  0
 37 84  1  0  0  0  0
 37 85  1  0  0  0  0
 38 86  1  0  0  0  0
 38 87  1  0  0  0  0
 38 88  1  0  0  0  0
 39 89  1  0  0  0  0
 39 90  1  0  0  0  0
 39 91  1  0  0  0  0
M  END
>  <PUBCHEM_COMPOUND_CID>
5468405

>  <PUBCHEM_COMPOUND_CANONICALIZED>
1

>  <PUBCHEM_CACTVS_COMPLEXITY>
1030

>  <PUBCHEM_CACTVS_HBOND_ACCEPTOR>
5

>  <PUBCHEM_CACTVS_HBOND_DONOR>
3

>  <PUBCHEM_CACTVS_ROTATABLE_BOND>
15

>  <PUBCHEM_CACTVS_SUBSKEYS>
AAADcfB8OAAAAAAAAAAAAAAAAAAAAAAAAAAgAAAAAAAAAAAAAAAAGgAACAAADRSggAICCAAABgCIAiDSCAAACAAgIAAACAEAAEgIFBIAIQACUAAFwAAIsYOIgAAOAAAAAAAAAAAAAAAAAAAAAAAAAAAAAA==

>  <PUBCHEM_IUPAC_OPENEYE_NAME>
3-propyl-6-[(3E,6E,9E,11E,17E)-2,14,16-trihydroxy-1,3,7,9,11,15,17-heptamethyl-nonadeca-3,6,9,11,17-pentaenyl]pyran-2-one

>  <PUBCHEM_IUPAC_CAS_NAME>
3-propyl-6-[(4E,7E,10E,12E,18E)-3,15,17-trihydroxy-4,8,10,12,16,18-hexamethyleicosa-4,7,10,12,18-pentaen-2-yl]-2-pyranone

>  <PUBCHEM_IUPAC_NAME>
3-propyl-6-[(4E,7E,10E,12E,18E)-3,15,17-trihydroxy-4,8,10,12,16,18-hexamethylicosa-4,7,10,12,18-pentaen-2-yl]pyran-2-one

>  <PUBCHEM_IUPAC_SYSTEMATIC_NAME>
6-[(4E,7E,10E,12E,18E)-4,8,10,12,16,18-hexamethyl-3,15,17-tris(oxidanyl)icosa-4,7,10,12,18-pentaen-2-yl]-3-propyl-pyran-2-one

>  <PUBCHEM_IUPAC_TRADITIONAL_NAME>
3-propyl-6-[(3E,6E,9E,11E,17E)-2,14,16-trihydroxy-1,3,7,9,11,15,17-heptamethyl-nonadeca-3,6,9,11,17-pentaenyl]pyran-2-one

>  <PUBCHEM_IUPAC_INCHI>
InChI=1S/C34H52O5/c1-10-13-29-17-19-31(39-34(29)38)28(9)33(37)26(7)15-12-14-22(3)20-24(5)21-23(4)16-18-30(35)27(8)32(36)25(6)11-2/h11,14-17,19,21,27-28,30,32-33,35-37H,10,12-13,18,20H2,1-9H3/b22-14+,23-16+,24-21+,25-11+,26-15+

>  <PUBCHEM_IUPAC_INCHIKEY>
OTNYCNDIGKWKTO-RCXJYNBZSA-N

>  <PUBCHEM_XLOGP3_AA>
8.9

>  <PUBCHEM_EXACT_MASS>
540.381

>  <PUBCHEM_MOLECULAR_FORMULA>
C34H52O5

>  <PUBCHEM_MOLECULAR_WEIGHT>
540.785

>  <PUBCHEM_OPENEYE_CAN_SMILES>
CCCC1=CC=C(OC1=O)C(C)C(C(=CCC=C(C)CC(=CC(=CCC(C(C)C(C(=CC)C)O)O)C)C)C)O

>  <PUBCHEM_OPENEYE_ISO_SMILES>
CCCC1=CC=C(OC1=O)C(C)C(/C(=C/C/C=C(\C)/C/C(=C/C(=C/CC(C(C)C(/C(=C/C)/C)O)O)/C)/C)/C)O

>  <PUBCHEM_CACTVS_TPSA>
87

>  <PUBCHEM_MONOISOTOPIC_WEIGHT>
540.381

>  <PUBCHEM_TOTAL_CHARGE>
0

>  <PUBCHEM_HEAVY_ATOM_COUNT>
39

>  <PUBCHEM_ATOM_DEF_STEREO_COUNT>
0

>  <PUBCHEM_ATOM_UDEF_STEREO_COUNT>
5

>  <PUBCHEM_BOND_DEF_STEREO_COUNT>
5

>  <PUBCHEM_BOND_UDEF_STEREO_COUNT>
0

>  <PUBCHEM_ISOTOPIC_ATOM_COUNT>
0

>  <PUBCHEM_COMPONENT_COUNT>
1

>  <PUBCHEM_CACTVS_TAUTO_COUNT>
3

>  <PUBCHEM_COORDINATE_TYPE>
1
5
255

>  <PUBCHEM_BONDANNOTATIONS>
13  48  3
14  50  3
19  26  8
26  32  8
31  32  8
31  35  8
4  19  8
4  35  8
6  40  3
7  41  3
8  42  3

$$$$
