54729713
 OpenBabel06101807152D

 63 64  0  0  0  0  0  0  0  0999 V2000
    4.6660   -1.6377    0.0000 O   0  0  0  0  0  0  0  0  0  0  0  0
    4.6660    1.3623    0.0000 O   0  0  0  0  0  0  0  0  0  0  0  0
   16.7904    0.3623    0.0000 O   0  0  0  0  0  0  0  0  0  0  0  0
    6.3981   -1.6377    0.0000 O   0  0  0  0  0  0  0  0  0  0  0  0
   17.6564   -1.1377    0.0000 O   0  0  0  0  0  0  0  0  0  0  0  0
    8.9962   -0.1377    0.0000 C   0  0  0  0  0  0  0  0  0  0  0  0
    9.8622    0.3623    0.0000 C   0  0  0  0  0  0  0  0  0  0  0  0
   12.4603   -0.1377    0.0000 C   0  0  0  0  0  0  0  0  0  0  0  0
   11.5942    0.3623    0.0000 C   0  0  0  0  0  0  0  0  0  0  0  0
    8.1301    0.3623    0.0000 C   0  0  0  0  0  0  0  0  0  0  0  0
   10.7282   -0.1377    0.0000 C   0  0  0  0  0  0  0  0  0  0  0  0
   13.3263    0.3623    0.0000 C   0  0  0  0  0  0  0  0  0  0  0  0
    6.3981    0.3623    0.0000 C   0  0  0  0  0  0  0  0  0  0  0  0
    7.2641   -0.1377    0.0000 C   0  0  0  0  0  0  0  0  0  0  0  0
    5.5321   -0.1377    0.0000 C   0  0  0  0  0  0  0  0  0  0  0  0
   11.5942    1.3623    0.0000 C   0  0  0  0  0  0  0  0  0  0  0  0
    8.1301    1.3623    0.0000 C   0  0  0  0  0  0  0  0  0  0  0  0
   14.1923   -0.1377    0.0000 C   0  0  0  0  0  0  0  0  0  0  0  0
    4.6660    0.3623    0.0000 C   0  0  0  0  0  0  0  0  0  0  0  0
    3.8000   -0.1377    0.0000 C   0  0  0  0  0  0  0  0  0  0  0  0
   15.0583    0.3623    0.0000 C   0  0  0  0  0  0  0  0  0  0  0  0
    3.8000   -1.1377    0.0000 C   0  0  0  0  0  0  0  0  0  0  0  0
    5.5321   -1.1377    0.0000 C   0  0  0  0  0  0  0  0  0  0  0  0
    2.9061    0.3970    0.0000 C   0  0  0  0  0  0  0  0  0  0  0  0
   15.9244   -0.1377    0.0000 C   0  0  0  0  0  0  0  0  0  0  0  0
    2.9061   -1.6723    0.0000 C   0  0  0  0  0  0  0  0  0  0  0  0
   15.0583    1.3623    0.0000 C   0  0  0  0  0  0  0  0  0  0  0  0
    2.0000   -0.1169    0.0000 C   0  0  0  0  0  0  0  0  0  0  0  0
    2.0000   -1.1585    0.0000 C   0  0  0  0  0  0  0  0  0  0  0  0
   17.6564   -0.1377    0.0000 C   0  0  0  0  0  0  0  0  0  0  0  0
   18.5224    0.3623    0.0000 C   0  0  0  0  0  0  0  0  0  0  0  0
    8.5976   -0.6126    0.0000 H   0  0  0  0  0  0  0  0  0  0  0  0
    9.3947   -0.6126    0.0000 H   0  0  0  0  0  0  0  0  0  0  0  0
   10.2607    0.8373    0.0000 H   0  0  0  0  0  0  0  0  0  0  0  0
    9.4637    0.8373    0.0000 H   0  0  0  0  0  0  0  0  0  0  0  0
   12.0617   -0.6126    0.0000 H   0  0  0  0  0  0  0  0  0  0  0  0
   12.8588   -0.6126    0.0000 H   0  0  0  0  0  0  0  0  0  0  0  0
   10.7282   -0.7577    0.0000 H   0  0  0  0  0  0  0  0  0  0  0  0
   13.7248    0.8373    0.0000 H   0  0  0  0  0  0  0  0  0  0  0  0
   12.9278    0.8373    0.0000 H   0  0  0  0  0  0  0  0  0  0  0  0
    6.7966    0.8373    0.0000 H   0  0  0  0  0  0  0  0  0  0  0  0
    5.9996    0.8373    0.0000 H   0  0  0  0  0  0  0  0  0  0  0  0
    7.2641   -0.7577    0.0000 H   0  0  0  0  0  0  0  0  0  0  0  0
   12.2142    1.3623    0.0000 H   0  0  0  0  0  0  0  0  0  0  0  0
   11.5942    1.9823    0.0000 H   0  0  0  0  0  0  0  0  0  0  0  0
   10.9742    1.3623    0.0000 H   0  0  0  0  0  0  0  0  0  0  0  0
    8.7501    1.3623    0.0000 H   0  0  0  0  0  0  0  0  0  0  0  0
    8.1301    1.9823    0.0000 H   0  0  0  0  0  0  0  0  0  0  0  0
    7.5101    1.3623    0.0000 H   0  0  0  0  0  0  0  0  0  0  0  0
   14.1923   -0.7577    0.0000 H   0  0  0  0  0  0  0  0  0  0  0  0
    2.9132    1.0170    0.0000 H   0  0  0  0  0  0  0  0  0  0  0  0
   15.5258   -0.6126    0.0000 H   0  0  0  0  0  0  0  0  0  0  0  0
   16.3229   -0.6126    0.0000 H   0  0  0  0  0  0  0  0  0  0  0  0
    2.9132   -2.2923    0.0000 H   0  0  0  0  0  0  0  0  0  0  0  0
   15.6783    1.3623    0.0000 H   0  0  0  0  0  0  0  0  0  0  0  0
   15.0583    1.9823    0.0000 H   0  0  0  0  0  0  0  0  0  0  0  0
   14.4383    1.3623    0.0000 H   0  0  0  0  0  0  0  0  0  0  0  0
    1.4643    0.1952    0.0000 H   0  0  0  0  0  0  0  0  0  0  0  0
    1.4643   -1.4706    0.0000 H   0  0  0  0  0  0  0  0  0  0  0  0
    4.1291    1.6723    0.0000 H   0  0  0  0  0  0  0  0  0  0  0  0
   18.8324   -0.1746    0.0000 H   0  0  0  0  0  0  0  0  0  0  0  0
   19.0594    0.6723    0.0000 H   0  0  0  0  0  0  0  0  0  0  0  0
   18.2124    0.8993    0.0000 H   0  0  0  0  0  0  0  0  0  0  0  0
  1 22  1  0  0  0  0
  1 23  1  0  0  0  0
  2 19  1  0  0  0  0
  2 60  1  0  0  0  0
  3 25  1  0  0  0  0
  3 30  1  0  0  0  0
  4 23  2  0  0  0  0
  5 30  2  0  0  0  0
  6  7  1  0  0  0  0
  6 10  1  0  0  0  0
  6 32  1  0  0  0  0
  6 33  1  0  0  0  0
  7 11  1  0  0  0  0
  7 34  1  0  0  0  0
  7 35  1  0  0  0  0
  8  9  1  0  0  0  0
  8 12  1  0  0  0  0
  8 36  1  0  0  0  0
  8 37  1  0  0  0  0
  9 11  2  0  0  0  0
  9 16  1  0  0  0  0
 10 14  2  0  0  0  0
 10 17  1  0  0  0  0
 11 38  1  0  0  0  0
 12 18  1  0  0  0  0
 12 39  1  0  0  0  0
 12 40  1  0  0  0  0
 13 14  1  0  0  0  0
 13 15  1  0  0  0  0
 13 41  1  0  0  0  0
 13 42  1  0  0  0  0
 14 43  1  0  0  0  0
 15 19  2  0  0  0  0
 15 23  1  0  0  0  0
 16 44  1  0  0  0  0
 16 45  1  0  0  0  0
 16 46  1  0  0  0  0
 17 47  1  0  0  0  0
 17 48  1  0  0  0  0
 17 49  1  0  0  0  0
 18 21  2  0  0  0  0
 18 50  1  0  0  0  0
 19 20  1  0  0  0  0
 20 22  1  0  0  0  0
 20 24  2  0  0  0  0
 21 25  1  0  0  0  0
 21 27  1  0  0  0  0
 22 26  2  0  0  0  0
 24 28  1  0  0  0  0
 24 51  1  0  0  0  0
 25 52  1  0  0  0  0
 25 53  1  0  0  0  0
 26 29  1  0  0  0  0
 26 54  1  0  0  0  0
 27 55  1  0  0  0  0
 27 56  1  0  0  0  0
 27 57  1  0  0  0  0
 28 29  2  0  0  0  0
 28 58  1  0  0  0  0
 29 59  1  0  0  0  0
 30 31  1  0  0  0  0
 31 61  1  0  0  0  0
 31 62  1  0  0  0  0
 31 63  1  0  0  0  0
M  END
>  <PUBCHEM_COMPOUND_CID>
54729713

>  <PUBCHEM_COMPOUND_CANONICALIZED>
1

>  <PUBCHEM_CACTVS_COMPLEXITY>
769

>  <PUBCHEM_CACTVS_HBOND_ACCEPTOR>
5

>  <PUBCHEM_CACTVS_HBOND_DONOR>
1

>  <PUBCHEM_CACTVS_ROTATABLE_BOND>
11

>  <PUBCHEM_CACTVS_SUBSKEYS>
AAADcfB4OAAAAAAAAAAAAAAAAAAAAAAAAAAwQAAAAAAAAACBAAAAGgAACAAADASgmAIyDoAABgCIAiDSCAACCAAgIAAIiAEGCMgMJzKEMRqCeiClwBEIuQeAwCAOAAAAAAAIAAAAAAAAABAAAAAAAAAAAA==

>  <PUBCHEM_IUPAC_OPENEYE_NAME>
[(2E,6E,10E)-12-(4-hydroxy-2-oxo-chromen-3-yl)-2,6,10-trimethyl-dodeca-2,6,10-trienyl] acetate

>  <PUBCHEM_IUPAC_CAS_NAME>
acetic acid [(2E,6E,10E)-12-(4-hydroxy-2-oxo-1-benzopyran-3-yl)-2,6,10-trimethyldodeca-2,6,10-trienyl] ester

>  <PUBCHEM_IUPAC_NAME>
[(2E,6E,10E)-12-(4-hydroxy-2-oxochromen-3-yl)-2,6,10-trimethyldodeca-2,6,10-trienyl] acetate

>  <PUBCHEM_IUPAC_SYSTEMATIC_NAME>
[(2E,6E,10E)-2,6,10-trimethyl-12-(4-oxidanyl-2-oxidanylidene-chromen-3-yl)dodeca-2,6,10-trienyl] ethanoate

>  <PUBCHEM_IUPAC_TRADITIONAL_NAME>
acetic acid [(2E,6E,10E)-12-(4-hydroxy-2-keto-chromen-3-yl)-2,6,10-trimethyl-dodeca-2,6,10-trienyl] ester

>  <PUBCHEM_IUPAC_INCHI>
InChI=1S/C26H32O5/c1-18(10-8-12-20(3)17-30-21(4)27)9-7-11-19(2)15-16-23-25(28)22-13-5-6-14-24(22)31-26(23)29/h5-6,9,12-15,28H,7-8,10-11,16-17H2,1-4H3/b18-9+,19-15+,20-12+

>  <PUBCHEM_IUPAC_INCHIKEY>
DGXYXHBBMGOEMA-OSWOODOJSA-N

>  <PUBCHEM_XLOGP3_AA>
6.2

>  <PUBCHEM_EXACT_MASS>
424.225

>  <PUBCHEM_MOLECULAR_FORMULA>
C26H32O5

>  <PUBCHEM_MOLECULAR_WEIGHT>
424.537

>  <PUBCHEM_OPENEYE_CAN_SMILES>
CC(=CCCC(=CCC1=C(C2=CC=CC=C2OC1=O)O)C)CCC=C(C)COC(=O)C

>  <PUBCHEM_OPENEYE_ISO_SMILES>
C/C(=C\CC/C(=C/CC1=C(C2=CC=CC=C2OC1=O)O)/C)/CC/C=C(\C)/COC(=O)C

>  <PUBCHEM_CACTVS_TPSA>
72.8

>  <PUBCHEM_MONOISOTOPIC_WEIGHT>
424.225

>  <PUBCHEM_TOTAL_CHARGE>
0

>  <PUBCHEM_HEAVY_ATOM_COUNT>
31

>  <PUBCHEM_ATOM_DEF_STEREO_COUNT>
0

>  <PUBCHEM_ATOM_UDEF_STEREO_COUNT>
0

>  <PUBCHEM_BOND_DEF_STEREO_COUNT>
3

>  <PUBCHEM_BOND_UDEF_STEREO_COUNT>
0

>  <PUBCHEM_ISOTOPIC_ATOM_COUNT>
0

>  <PUBCHEM_COMPONENT_COUNT>
1

>  <PUBCHEM_CACTVS_TAUTO_COUNT>
3

>  <PUBCHEM_COORDINATE_TYPE>
1
5
255

>  <PUBCHEM_BONDANNOTATIONS>
1  22  8
1  23  8
15  19  8
15  23  8
19  20  8
20  22  8
20  24  8
22  26  8
24  28  8
26  29  8
28  29  8

$$$$
