5478195
 OpenBabel06101807152D

 35 35  0  0  1  0  0  0  0  0999 V2000
    6.0010    0.4720    0.0000 S   0  0  0  0  0  0  0  0  0  0  0  0
    8.5991    1.9720    0.0000 S   0  0  0  0  0  0  0  0  0  0  0  0
    4.2690    0.4720    0.0000 O   0  0  0  0  0  0  0  0  0  0  0  0
    2.5369   -1.5280    0.0000 O   0  0  0  0  0  0  0  0  0  0  0  0
    4.2690   -2.5280    0.0000 O   0  0  0  0  0  0  0  0  0  0  0  0
    6.0010   -1.5280    0.0000 O   0  0  0  0  0  0  0  0  0  0  0  0
    2.5369    1.4720    0.0000 O   0  0  0  0  0  0  0  0  0  0  0  0
    7.7331    1.4720    0.0000 O   0  0  0  0  0  0  0  0  0  0  0  0
    9.4651    2.4720    0.0000 O   0  0  0  0  0  0  0  0  0  0  0  0
    9.0991    1.1060    0.0000 O   0  0  0  0  0  0  0  0  0  0  0  0
    8.0991    2.8380    0.0000 O   0  0  0  0  0  0  0  0  0  0  0  0
    6.8671    1.9720    0.0000 N   0  0  0  0  0  0  0  0  0  0  0  0
    3.4030   -1.0280    0.0000 C   0  0  3  0  0  0  0  0  0  0  0  0
    4.2690   -1.5280    0.0000 C   0  0  3  0  0  0  0  0  0  0  0  0
    3.4030   -0.0280    0.0000 C   0  0  3  0  0  0  0  0  0  0  0  0
    5.1350   -1.0280    0.0000 C   0  0  3  0  0  0  0  0  0  0  0  0
    5.1350   -0.0280    0.0000 C   0  0  3  0  0  0  0  0  0  0  0  0
    2.5369    0.4720    0.0000 C   0  0  0  0  0  0  0  0  0  0  0  0
    6.0010    1.4720    0.0000 C   0  0  0  0  0  0  0  0  0  0  0  0
    5.1350    1.9720    0.0000 C   0  0  0  0  0  0  0  0  0  0  0  0
    3.4030   -1.8780    0.0000 H   0  0  0  0  0  0  0  0  0  0  0  0
    5.0051   -1.9530    0.0000 H   0  0  0  0  0  0  0  0  0  0  0  0
    3.4030    0.8220    0.0000 H   0  0  0  0  0  0  0  0  0  0  0  0
    5.8711   -0.6030    0.0000 H   0  0  0  0  0  0  0  0  0  0  0  0
    5.1350    0.8220    0.0000 H   0  0  0  0  0  0  0  0  0  0  0  0
    1.9264    0.5796    0.0000 H   0  0  0  0  0  0  0  0  0  0  0  0
    2.3249   -0.1106    0.0000 H   0  0  0  0  0  0  0  0  0  0  0  0
    2.0000   -1.2180    0.0000 H   0  0  0  0  0  0  0  0  0  0  0  0
    3.7320   -2.8380    0.0000 H   0  0  0  0  0  0  0  0  0  0  0  0
    6.5380   -1.2180    0.0000 H   0  0  0  0  0  0  0  0  0  0  0  0
    2.0000    1.7820    0.0000 H   0  0  0  0  0  0  0  0  0  0  0  0
    5.4450    2.5089    0.0000 H   0  0  0  0  0  0  0  0  0  0  0  0
    4.5981    2.2820    0.0000 H   0  0  0  0  0  0  0  0  0  0  0  0
    4.8250    1.4350    0.0000 H   0  0  0  0  0  0  0  0  0  0  0  0
   10.0021    2.1620    0.0000 H   0  0  0  0  0  0  0  0  0  0  0  0
  1 17  1  0  0  0  0
  1 19  1  0  0  0  0
  2  8  1  0  0  0  0
  2  9  1  0  0  0  0
  2 10  2  0  0  0  0
  2 11  2  0  0  0  0
  3 15  1  0  0  0  0
  3 17  1  0  0  0  0
  4 13  1  0  0  0  0
  4 28  1  0  0  0  0
  5 14  1  0  0  0  0
  5 29  1  0  0  0  0
  6 16  1  0  0  0  0
  6 30  1  0  0  0  0
  7 18  1  0  0  0  0
  7 31  1  0  0  0  0
  8 12  1  0  0  0  0
  9 35  1  0  0  0  0
 12 19  2  0  0  0  0
 13 14  1  0  0  0  0
 13 15  1  0  0  0  0
 13 21  1  0  0  0  0
 14 16  1  0  0  0  0
 14 22  1  0  0  0  0
 15 18  1  0  0  0  0
 15 23  1  0  0  0  0
 16 17  1  0  0  0  0
 16 24  1  0  0  0  0
 17 25  1  0  0  0  0
 18 26  1  0  0  0  0
 18 27  1  0  0  0  0
 19 20  1  0  0  0  0
 20 32  1  0  0  0  0
 20 33  1  0  0  0  0
 20 34  1  0  0  0  0
M  END
>  <PUBCHEM_COMPOUND_CID>
5478195

>  <PUBCHEM_COMPOUND_CANONICALIZED>
1

>  <PUBCHEM_CACTVS_COMPLEXITY>
447

>  <PUBCHEM_CACTVS_HBOND_ACCEPTOR>
11

>  <PUBCHEM_CACTVS_HBOND_DONOR>
5

>  <PUBCHEM_CACTVS_ROTATABLE_BOND>
5

>  <PUBCHEM_CACTVS_SUBSKEYS>
AAADccByPABgAAAAAAAAAAAAAAAAAAAAAAAkAAAAAAAAAAAAAAAAHgQECAAACBSlwAKCAAAQBoggAAAgADAAAAAAABAAAAAQAAABEAIgAAACQAAFAAAjAAHAYAQAAAAAAAAAAAAAAAAAAAAAAAAAAAAAAA==

>  <PUBCHEM_IUPAC_OPENEYE_NAME>
[3,4,5-trihydroxy-6-(hydroxymethyl)tetrahydropyran-2-yl] (1Z)-N-sulfooxyethanimidothioate

>  <PUBCHEM_IUPAC_CAS_NAME>
(1Z)-N-sulfooxyethanimidothioic acid [3,4,5-trihydroxy-6-(hydroxymethyl)-2-oxanyl] ester

>  <PUBCHEM_IUPAC_NAME>
[3,4,5-trihydroxy-6-(hydroxymethyl)oxan-2-yl] (1Z)-N-sulfooxyethanimidothioate

>  <PUBCHEM_IUPAC_SYSTEMATIC_NAME>
[6-(hydroxymethyl)-3,4,5-tris(oxidanyl)oxan-2-yl] (1Z)-N-sulfooxyethanimidothioate

>  <PUBCHEM_IUPAC_TRADITIONAL_NAME>
(1Z)-N-sulfoxythioacetimidic acid (3,4,5-trihydroxy-6-methylol-tetrahydropyran-2-yl) ester

>  <PUBCHEM_IUPAC_INCHI>
InChI=1S/C8H15NO9S2/c1-3(9-18-20(14,15)16)19-8-7(13)6(12)5(11)4(2-10)17-8/h4-8,10-13H,2H2,1H3,(H,14,15,16)/b9-3-

>  <PUBCHEM_IUPAC_INCHIKEY>
UBTOEGCOMHAXGV-OQFOIZHKSA-N

>  <PUBCHEM_XLOGP3_AA>
-1.8

>  <PUBCHEM_EXACT_MASS>
333.019

>  <PUBCHEM_MOLECULAR_FORMULA>
C8H15NO9S2

>  <PUBCHEM_MOLECULAR_WEIGHT>
333.326

>  <PUBCHEM_OPENEYE_CAN_SMILES>
CC(=NOS(=O)(=O)O)SC1C(C(C(C(O1)CO)O)O)O

>  <PUBCHEM_OPENEYE_ISO_SMILES>
C/C(=N/OS(=O)(=O)O)/SC1C(C(C(C(O1)CO)O)O)O

>  <PUBCHEM_CACTVS_TPSA>
200

>  <PUBCHEM_MONOISOTOPIC_WEIGHT>
333.019

>  <PUBCHEM_TOTAL_CHARGE>
0

>  <PUBCHEM_HEAVY_ATOM_COUNT>
20

>  <PUBCHEM_ATOM_DEF_STEREO_COUNT>
0

>  <PUBCHEM_ATOM_UDEF_STEREO_COUNT>
5

>  <PUBCHEM_BOND_DEF_STEREO_COUNT>
1

>  <PUBCHEM_BOND_UDEF_STEREO_COUNT>
0

>  <PUBCHEM_ISOTOPIC_ATOM_COUNT>
0

>  <PUBCHEM_COMPONENT_COUNT>
1

>  <PUBCHEM_CACTVS_TAUTO_COUNT>
1

>  <PUBCHEM_COORDINATE_TYPE>
1
5
255

>  <PUBCHEM_BONDANNOTATIONS>
13  21  3
14  22  3
15  23  3
16  24  3
17  25  3

$$$$
