5481966
 OpenBabel06101807152D

 45 47  0  0  0  0  0  0  0  0999 V2000
    8.1301   -0.2704    0.0000 O   0  0  0  0  0  0  0  0  0  0  0  0
    6.3817    2.7642    0.0000 O   0  0  0  0  0  0  0  0  0  0  0  0
    4.6000   -0.2945    0.0000 O   0  0  0  0  0  0  0  0  0  0  0  0
    9.8622    1.7296    0.0000 O   0  0  0  0  0  0  0  0  0  0  0  0
    8.1301    2.7296    0.0000 O   0  0  0  0  0  0  0  0  0  0  0  0
   10.7282   -2.7704    0.0000 O   0  0  0  0  0  0  0  0  0  0  0  0
   12.4602   -1.7704    0.0000 O   0  0  0  0  0  0  0  0  0  0  0  0
    7.2641    1.2296    0.0000 C   0  0  0  0  0  0  0  0  0  0  0  0
    5.4641    1.2504    0.0000 C   0  0  0  0  0  0  0  0  0  0  0  0
    7.2641    0.2296    0.0000 C   0  0  0  0  0  0  0  0  0  0  0  0
    6.3701    1.7643    0.0000 C   0  0  0  0  0  0  0  0  0  0  0  0
    4.6000    1.7538    0.0000 C   0  0  0  0  0  0  0  0  0  0  0  0
    5.4641    0.2088    0.0000 C   0  0  0  0  0  0  0  0  0  0  0  0
    6.3701   -0.3051    0.0000 C   0  0  0  0  0  0  0  0  0  0  0  0
    8.1301    1.7296    0.0000 C   0  0  0  0  0  0  0  0  0  0  0  0
    8.9961    0.2296    0.0000 C   0  0  0  0  0  0  0  0  0  0  0  0
    8.9961    1.2296    0.0000 C   0  0  0  0  0  0  0  0  0  0  0  0
    9.8622   -0.2704    0.0000 C   0  0  0  0  0  0  0  0  0  0  0  0
    3.7320    1.2571    0.0000 C   0  0  0  0  0  0  0  0  0  0  0  0
    2.8680    1.7604    0.0000 C   0  0  0  0  0  0  0  0  0  0  0  0
    9.8622   -1.2704    0.0000 C   0  0  0  0  0  0  0  0  0  0  0  0
   10.7282    0.2296    0.0000 C   0  0  0  0  0  0  0  0  0  0  0  0
   10.7282   -1.7704    0.0000 C   0  0  0  0  0  0  0  0  0  0  0  0
   11.5942   -0.2704    0.0000 C   0  0  0  0  0  0  0  0  0  0  0  0
    2.0000    1.2638    0.0000 C   0  0  0  0  0  0  0  0  0  0  0  0
    2.8718    2.7604    0.0000 C   0  0  0  0  0  0  0  0  0  0  0  0
   11.5942   -1.2704    0.0000 C   0  0  0  0  0  0  0  0  0  0  0  0
    5.0003    2.2272    0.0000 H   0  0  0  0  0  0  0  0  0  0  0  0
    4.2033    2.2302    0.0000 H   0  0  0  0  0  0  0  0  0  0  0  0
    6.3773   -0.9250    0.0000 H   0  0  0  0  0  0  0  0  0  0  0  0
    3.7296    0.6371    0.0000 H   0  0  0  0  0  0  0  0  0  0  0  0
    9.3252   -1.5804    0.0000 H   0  0  0  0  0  0  0  0  0  0  0  0
   10.7282    0.8496    0.0000 H   0  0  0  0  0  0  0  0  0  0  0  0
    5.8484    3.0804    0.0000 H   0  0  0  0  0  0  0  0  0  0  0  0
    4.6024   -0.9145    0.0000 H   0  0  0  0  0  0  0  0  0  0  0  0
   12.1311    0.0396    0.0000 H   0  0  0  0  0  0  0  0  0  0  0  0
    1.6921    1.8019    0.0000 H   0  0  0  0  0  0  0  0  0  0  0  0
    1.4619    0.9558    0.0000 H   0  0  0  0  0  0  0  0  0  0  0  0
    2.3079    0.7256    0.0000 H   0  0  0  0  0  0  0  0  0  0  0  0
    3.4918    2.7580    0.0000 H   0  0  0  0  0  0  0  0  0  0  0  0
    2.8742    3.3804    0.0000 H   0  0  0  0  0  0  0  0  0  0  0  0
    2.2518    2.7628    0.0000 H   0  0  0  0  0  0  0  0  0  0  0  0
    9.8622    2.3496    0.0000 H   0  0  0  0  0  0  0  0  0  0  0  0
   11.2651   -3.0804    0.0000 H   0  0  0  0  0  0  0  0  0  0  0  0
   12.9972   -1.4604    0.0000 H   0  0  0  0  0  0  0  0  0  0  0  0
  1 10  1  0  0  0  0
  1 16  1  0  0  0  0
  2 11  1  0  0  0  0
  2 34  1  0  0  0  0
  3 13  1  0  0  0  0
  3 35  1  0  0  0  0
  4 17  1  0  0  0  0
  4 43  1  0  0  0  0
  5 15  2  0  0  0  0
  6 23  1  0  0  0  0
  6 44  1  0  0  0  0
  7 27  1  0  0  0  0
  7 45  1  0  0  0  0
  8 10  1  0  0  0  0
  8 11  2  0  0  0  0
  8 15  1  0  0  0  0
  9 11  1  0  0  0  0
  9 12  1  0  0  0  0
  9 13  2  0  0  0  0
 10 14  2  0  0  0  0
 12 19  1  0  0  0  0
 12 28  1  0  0  0  0
 12 29  1  0  0  0  0
 13 14  1  0  0  0  0
 14 30  1  0  0  0  0
 15 17  1  0  0  0  0
 16 17  2  0  0  0  0
 16 18  1  0  0  0  0
 18 21  2  0  0  0  0
 18 22  1  0  0  0  0
 19 20  2  0  0  0  0
 19 31  1  0  0  0  0
 20 25  1  0  0  0  0
 20 26  1  0  0  0  0
 21 23  1  0  0  0  0
 21 32  1  0  0  0  0
 22 24  2  0  0  0  0
 22 33  1  0  0  0  0
 23 27  2  0  0  0  0
 24 27  1  0  0  0  0
 24 36  1  0  0  0  0
 25 37  1  0  0  0  0
 25 38  1  0  0  0  0
 25 39  1  0  0  0  0
 26 40  1  0  0  0  0
 26 41  1  0  0  0  0
 26 42  1  0  0  0  0
M  END
>  <PUBCHEM_COMPOUND_CID>
5481966

>  <PUBCHEM_COMPOUND_CANONICALIZED>
1

>  <PUBCHEM_CACTVS_COMPLEXITY>
636

>  <PUBCHEM_CACTVS_HBOND_ACCEPTOR>
7

>  <PUBCHEM_CACTVS_HBOND_DONOR>
5

>  <PUBCHEM_CACTVS_ROTATABLE_BOND>
3

>  <PUBCHEM_CACTVS_SUBSKEYS>
AAADceB4OAAAAAAAAAAAAAAAAAAAAAAAAAAwYIAAAAAAAACBQAAAGgAACAAADASAmAAyBoAABgCIAqBSAAICCAAkIAAIiAFGiMgNJzaGNRqCeWGl4BUJuQfI7PzOIAADCAAIQABAAAYQABCAAAAAAAAAAA==

>  <PUBCHEM_IUPAC_OPENEYE_NAME>
2-(3,4-dihydroxyphenyl)-3,5,7-trihydroxy-6-(3-methylbut-2-enyl)chromen-4-one

>  <PUBCHEM_IUPAC_CAS_NAME>
2-(3,4-dihydroxyphenyl)-3,5,7-trihydroxy-6-(3-methylbut-2-enyl)-1-benzopyran-4-one

>  <PUBCHEM_IUPAC_NAME>
2-(3,4-dihydroxyphenyl)-3,5,7-trihydroxy-6-(3-methylbut-2-enyl)chromen-4-one

>  <PUBCHEM_IUPAC_SYSTEMATIC_NAME>
2-[3,4-bis(oxidanyl)phenyl]-6-(3-methylbut-2-enyl)-3,5,7-tris(oxidanyl)chromen-4-one

>  <PUBCHEM_IUPAC_TRADITIONAL_NAME>
2-(3,4-dihydroxyphenyl)-3,5,7-trihydroxy-6-(3-methylbut-2-enyl)chromone

>  <PUBCHEM_IUPAC_INCHI>
InChI=1S/C20H18O7/c1-9(2)3-5-11-13(22)8-15-16(17(11)24)18(25)19(26)20(27-15)10-4-6-12(21)14(23)7-10/h3-4,6-8,21-24,26H,5H2,1-2H3

>  <PUBCHEM_IUPAC_INCHIKEY>
OCIIFJFJVOTFTN-UHFFFAOYSA-N

>  <PUBCHEM_XLOGP3_AA>
4.1

>  <PUBCHEM_EXACT_MASS>
370.105

>  <PUBCHEM_MOLECULAR_FORMULA>
C20H18O7

>  <PUBCHEM_MOLECULAR_WEIGHT>
370.357

>  <PUBCHEM_OPENEYE_CAN_SMILES>
CC(=CCC1=C(C=C2C(=C1O)C(=O)C(=C(O2)C3=CC(=C(C=C3)O)O)O)O)C

>  <PUBCHEM_OPENEYE_ISO_SMILES>
CC(=CCC1=C(C=C2C(=C1O)C(=O)C(=C(O2)C3=CC(=C(C=C3)O)O)O)O)C

>  <PUBCHEM_CACTVS_TPSA>
127

>  <PUBCHEM_MONOISOTOPIC_WEIGHT>
370.105

>  <PUBCHEM_TOTAL_CHARGE>
0

>  <PUBCHEM_HEAVY_ATOM_COUNT>
27

>  <PUBCHEM_ATOM_DEF_STEREO_COUNT>
0

>  <PUBCHEM_ATOM_UDEF_STEREO_COUNT>
0

>  <PUBCHEM_BOND_DEF_STEREO_COUNT>
0

>  <PUBCHEM_BOND_UDEF_STEREO_COUNT>
0

>  <PUBCHEM_ISOTOPIC_ATOM_COUNT>
0

>  <PUBCHEM_COMPONENT_COUNT>
1

>  <PUBCHEM_CACTVS_TAUTO_COUNT>
998

>  <PUBCHEM_COORDINATE_TYPE>
1
5
255

>  <PUBCHEM_BONDANNOTATIONS>
1  10  8
1  16  8
10  14  8
13  14  8
15  17  8
16  17  8
18  21  8
18  22  8
21  23  8
22  24  8
23  27  8
24  27  8
8  10  8
8  11  8
8  15  8
9  11  8
9  13  8

$$$$
