5481961
 OpenBabel06101807152D

 44 46  0  0  0  0  0  0  0  0999 V2000
    6.0682   -1.1900    0.0000 O   0  0  0  0  0  0  0  0  0  0  0  0
    6.0682    1.8100    0.0000 O   0  0  0  0  0  0  0  0  0  0  0  0
    4.3198    1.8446    0.0000 O   0  0  0  0  0  0  0  0  0  0  0  0
    6.9343   -2.6900    0.0000 O   0  0  0  0  0  0  0  0  0  0  0  0
    2.5381   -1.2142    0.0000 O   0  0  0  0  0  0  0  0  0  0  0  0
   10.3984   -2.6900    0.0000 O   0  0  0  0  0  0  0  0  0  0  0  0
    6.9343    0.3100    0.0000 C   0  0  0  0  0  0  0  0  0  0  0  0
    6.9343   -0.6900    0.0000 C   0  0  0  0  0  0  0  0  0  0  0  0
    7.8003    0.8100    0.0000 C   0  0  0  0  0  0  0  0  0  0  0  0
    5.2022    0.3100    0.0000 C   0  0  0  0  0  0  0  0  0  0  0  0
    6.0682    0.8100    0.0000 C   0  0  0  0  0  0  0  0  0  0  0  0
    5.2022   -0.6900    0.0000 C   0  0  0  0  0  0  0  0  0  0  0  0
    7.8003   -1.1900    0.0000 C   0  0  0  0  0  0  0  0  0  0  0  0
    4.3083    0.8447    0.0000 C   0  0  0  0  0  0  0  0  0  0  0  0
    7.8003    1.8100    0.0000 C   0  0  0  0  0  0  0  0  0  0  0  0
    4.3083   -1.2247    0.0000 C   0  0  0  0  0  0  0  0  0  0  0  0
    7.8003   -2.1900    0.0000 C   0  0  0  0  0  0  0  0  0  0  0  0
    8.6663   -0.6900    0.0000 C   0  0  0  0  0  0  0  0  0  0  0  0
    3.4022    0.3308    0.0000 C   0  0  0  0  0  0  0  0  0  0  0  0
    3.4022   -0.7108    0.0000 C   0  0  0  0  0  0  0  0  0  0  0  0
    8.6663    2.3100    0.0000 C   0  0  0  0  0  0  0  0  0  0  0  0
    8.6663   -2.6900    0.0000 C   0  0  0  0  0  0  0  0  0  0  0  0
    9.5323   -1.1900    0.0000 C   0  0  0  0  0  0  0  0  0  0  0  0
    9.5323   -2.1900    0.0000 C   0  0  0  0  0  0  0  0  0  0  0  0
    8.6663    3.3100    0.0000 C   0  0  0  0  0  0  0  0  0  0  0  0
    9.5323    1.8100    0.0000 C   0  0  0  0  0  0  0  0  0  0  0  0
    8.0124    0.2274    0.0000 H   0  0  0  0  0  0  0  0  0  0  0  0
    8.4109    0.9177    0.0000 H   0  0  0  0  0  0  0  0  0  0  0  0
    7.2634    2.1200    0.0000 H   0  0  0  0  0  0  0  0  0  0  0  0
    4.3154   -1.8446    0.0000 H   0  0  0  0  0  0  0  0  0  0  0  0
    8.6663   -0.0700    0.0000 H   0  0  0  0  0  0  0  0  0  0  0  0
    2.8665    0.6429    0.0000 H   0  0  0  0  0  0  0  0  0  0  0  0
    8.6663   -3.3100    0.0000 H   0  0  0  0  0  0  0  0  0  0  0  0
   10.0693   -0.8800    0.0000 H   0  0  0  0  0  0  0  0  0  0  0  0
    9.2863    3.3100    0.0000 H   0  0  0  0  0  0  0  0  0  0  0  0
    9.2224    1.2731    0.0000 H   0  0  0  0  0  0  0  0  0  0  0  0
   10.0693    1.5000    0.0000 H   0  0  0  0  0  0  0  0  0  0  0  0
    9.8424    2.3469    0.0000 H   0  0  0  0  0  0  0  0  0  0  0  0
    8.6663    3.9300    0.0000 H   0  0  0  0  0  0  0  0  0  0  0  0
    8.0463    3.3100    0.0000 H   0  0  0  0  0  0  0  0  0  0  0  0
    3.7865    2.1608    0.0000 H   0  0  0  0  0  0  0  0  0  0  0  0
    6.9343   -3.3100    0.0000 H   0  0  0  0  0  0  0  0  0  0  0  0
    2.0000   -0.9062    0.0000 H   0  0  0  0  0  0  0  0  0  0  0  0
   10.9353   -2.3800    0.0000 H   0  0  0  0  0  0  0  0  0  0  0  0
  1  8  1  0  0  0  0
  1 12  1  0  0  0  0
  2 11  2  0  0  0  0
  3 14  1  0  0  0  0
  3 41  1  0  0  0  0
  4 17  1  0  0  0  0
  4 42  1  0  0  0  0
  5 20  1  0  0  0  0
  5 43  1  0  0  0  0
  6 24  1  0  0  0  0
  6 44  1  0  0  0  0
  7  8  2  0  0  0  0
  7  9  1  0  0  0  0
  7 11  1  0  0  0  0
  8 13  1  0  0  0  0
  9 15  1  0  0  0  0
  9 27  1  0  0  0  0
  9 28  1  0  0  0  0
 10 11  1  0  0  0  0
 10 12  1  0  0  0  0
 10 14  2  0  0  0  0
 12 16  2  0  0  0  0
 13 17  2  0  0  0  0
 13 18  1  0  0  0  0
 14 19  1  0  0  0  0
 15 21  2  0  0  0  0
 15 29  1  0  0  0  0
 16 20  1  0  0  0  0
 16 30  1  0  0  0  0
 17 22  1  0  0  0  0
 18 23  2  0  0  0  0
 18 31  1  0  0  0  0
 19 20  2  0  0  0  0
 19 32  1  0  0  0  0
 21 25  1  0  0  0  0
 21 26  1  0  0  0  0
 22 24  2  0  0  0  0
 22 33  1  0  0  0  0
 23 24  1  0  0  0  0
 23 34  1  0  0  0  0
 25 35  1  0  0  0  0
 25 39  1  0  0  0  0
 25 40  1  0  0  0  0
 26 36  1  0  0  0  0
 26 37  1  0  0  0  0
 26 38  1  0  0  0  0
M  END
>  <PUBCHEM_COMPOUND_CID>
5481961

>  <PUBCHEM_COMPOUND_CANONICALIZED>
1

>  <PUBCHEM_CACTVS_COMPLEXITY>
605

>  <PUBCHEM_CACTVS_HBOND_ACCEPTOR>
6

>  <PUBCHEM_CACTVS_HBOND_DONOR>
4

>  <PUBCHEM_CACTVS_ROTATABLE_BOND>
3

>  <PUBCHEM_CACTVS_SUBSKEYS>
AAADceB4OAAAAAAAAAAAAAAAAAAAAAAAAAAwYIAAAAAAAACBQAAAGgAACAAADASAmAAyBoAABgCIAqBSAAACCAAkIAAIiAEGCMgMJzaGNRqCeWCl4BUIuQeI7KzOIAAACAAIAABAAAAQABAAAAAAAAAAAA==

>  <PUBCHEM_IUPAC_OPENEYE_NAME>
2-(2,4-dihydroxyphenyl)-5,7-dihydroxy-3-(3-methylbut-2-enyl)chromen-4-one

>  <PUBCHEM_IUPAC_CAS_NAME>
2-(2,4-dihydroxyphenyl)-5,7-dihydroxy-3-(3-methylbut-2-enyl)-1-benzopyran-4-one

>  <PUBCHEM_IUPAC_NAME>
2-(2,4-dihydroxyphenyl)-5,7-dihydroxy-3-(3-methylbut-2-enyl)chromen-4-one

>  <PUBCHEM_IUPAC_SYSTEMATIC_NAME>
2-[2,4-bis(oxidanyl)phenyl]-3-(3-methylbut-2-enyl)-5,7-bis(oxidanyl)chromen-4-one

>  <PUBCHEM_IUPAC_TRADITIONAL_NAME>
2-(2,4-dihydroxyphenyl)-5,7-dihydroxy-3-(3-methylbut-2-enyl)chromone

>  <PUBCHEM_IUPAC_INCHI>
InChI=1S/C20H18O6/c1-10(2)3-5-14-19(25)18-16(24)8-12(22)9-17(18)26-20(14)13-6-4-11(21)7-15(13)23/h3-4,6-9,21-24H,5H2,1-2H3

>  <PUBCHEM_IUPAC_INCHIKEY>
KEIIIPKLVSSAEI-UHFFFAOYSA-N

>  <PUBCHEM_XLOGP3>
3.6

>  <PUBCHEM_EXACT_MASS>
354.11

>  <PUBCHEM_MOLECULAR_FORMULA>
C20H18O6

>  <PUBCHEM_MOLECULAR_WEIGHT>
354.358

>  <PUBCHEM_OPENEYE_CAN_SMILES>
CC(=CCC1=C(OC2=CC(=CC(=C2C1=O)O)O)C3=C(C=C(C=C3)O)O)C

>  <PUBCHEM_OPENEYE_ISO_SMILES>
CC(=CCC1=C(OC2=CC(=CC(=C2C1=O)O)O)C3=C(C=C(C=C3)O)O)C

>  <PUBCHEM_CACTVS_TPSA>
107

>  <PUBCHEM_MONOISOTOPIC_WEIGHT>
354.11

>  <PUBCHEM_TOTAL_CHARGE>
0

>  <PUBCHEM_HEAVY_ATOM_COUNT>
26

>  <PUBCHEM_ATOM_DEF_STEREO_COUNT>
0

>  <PUBCHEM_ATOM_UDEF_STEREO_COUNT>
0

>  <PUBCHEM_BOND_DEF_STEREO_COUNT>
0

>  <PUBCHEM_BOND_UDEF_STEREO_COUNT>
0

>  <PUBCHEM_ISOTOPIC_ATOM_COUNT>
0

>  <PUBCHEM_COMPONENT_COUNT>
1

>  <PUBCHEM_CACTVS_TAUTO_COUNT>
171

>  <PUBCHEM_COORDINATE_TYPE>
1
5
255

>  <PUBCHEM_BONDANNOTATIONS>
1  12  8
1  8  8
10  11  8
10  12  8
10  14  8
12  16  8
13  17  8
13  18  8
14  19  8
16  20  8
17  22  8
18  23  8
19  20  8
22  24  8
23  24  8
7  11  8
7  8  8

$$$$
