5481967
 OpenBabel06101807152D

 71 73  0  0  0  0  0  0  0  0999 V2000
    6.0682    0.5746    0.0000 O   0  0  0  0  0  0  0  0  0  0  0  0
    2.5381    0.5505    0.0000 O   0  0  0  0  0  0  0  0  0  0  0  0
    4.3198    3.6092    0.0000 O   0  0  0  0  0  0  0  0  0  0  0  0
    7.8003    2.5746    0.0000 O   0  0  0  0  0  0  0  0  0  0  0  0
    6.0682    3.5746    0.0000 O   0  0  0  0  0  0  0  0  0  0  0  0
   10.3984   -0.9254    0.0000 O   0  0  0  0  0  0  0  0  0  0  0  0
   10.3984    1.0746    0.0000 O   0  0  0  0  0  0  0  0  0  0  0  0
    4.3198   -0.4600    0.0000 C   0  0  0  0  0  0  0  0  0  0  0  0
    4.3083    0.5399    0.0000 C   0  0  0  0  0  0  0  0  0  0  0  0
    5.2022    1.0746    0.0000 C   0  0  0  0  0  0  0  0  0  0  0  0
    3.3199   -0.4715    0.0000 C   0  0  0  0  0  0  0  0  0  0  0  0
    5.3198   -0.4484    0.0000 C   0  0  0  0  0  0  0  0  0  0  0  0
    5.2022    2.0746    0.0000 C   0  0  0  0  0  0  0  0  0  0  0  0
    3.4022    1.0538    0.0000 C   0  0  0  0  0  0  0  0  0  0  0  0
    7.8003    0.5746    0.0000 C   0  0  0  0  0  0  0  0  0  0  0  0
    6.9343    1.0746    0.0000 C   0  0  0  0  0  0  0  0  0  0  0  0
    7.8003   -0.4254    0.0000 C   0  0  0  0  0  0  0  0  0  0  0  0
    4.3314   -1.4599    0.0000 C   0  0  0  0  0  0  0  0  0  0  0  0
    8.6663   -0.9254    0.0000 C   0  0  0  0  0  0  0  0  0  0  0  0
    4.3083    2.6093    0.0000 C   0  0  0  0  0  0  0  0  0  0  0  0
    6.0682    2.5746    0.0000 C   0  0  0  0  0  0  0  0  0  0  0  0
    3.4022    2.0954    0.0000 C   0  0  0  0  0  0  0  0  0  0  0  0
    6.9343    2.0746    0.0000 C   0  0  0  0  0  0  0  0  0  0  0  0
    6.9343   -0.9254    0.0000 C   0  0  0  0  0  0  0  0  0  0  0  0
    8.6663    1.0746    0.0000 C   0  0  0  0  0  0  0  0  0  0  0  0
    8.6663   -1.9254    0.0000 C   0  0  0  0  0  0  0  0  0  0  0  0
    9.5323   -0.4254    0.0000 C   0  0  0  0  0  0  0  0  0  0  0  0
    9.5323    0.5746    0.0000 C   0  0  0  0  0  0  0  0  0  0  0  0
    3.4712   -1.9699    0.0000 C   0  0  0  0  0  0  0  0  0  0  0  0
    6.9343   -1.9254    0.0000 C   0  0  0  0  0  0  0  0  0  0  0  0
    9.5323   -2.4254    0.0000 C   0  0  0  0  0  0  0  0  0  0  0  0
    6.0682   -2.4254    0.0000 C   0  0  0  0  0  0  0  0  0  0  0  0
    9.5323   -3.4254    0.0000 C   0  0  0  0  0  0  0  0  0  0  0  0
    6.0682   -3.4254    0.0000 C   0  0  0  0  0  0  0  0  0  0  0  0
    5.2022   -1.9254    0.0000 C   0  0  0  0  0  0  0  0  0  0  0  0
   10.3984   -3.9254    0.0000 C   0  0  0  0  0  0  0  0  0  0  0  0
    8.6663   -3.9254    0.0000 C   0  0  0  0  0  0  0  0  0  0  0  0
    5.3270   -1.0684    0.0000 H   0  0  0  0  0  0  0  0  0  0  0  0
    5.9397   -0.4413    0.0000 H   0  0  0  0  0  0  0  0  0  0  0  0
    5.3126    0.1715    0.0000 H   0  0  0  0  0  0  0  0  0  0  0  0
    3.3128    0.1484    0.0000 H   0  0  0  0  0  0  0  0  0  0  0  0
    2.7000   -0.4787    0.0000 H   0  0  0  0  0  0  0  0  0  0  0  0
    3.3271   -1.0915    0.0000 H   0  0  0  0  0  0  0  0  0  0  0  0
    4.8719   -1.7637    0.0000 H   0  0  0  0  0  0  0  0  0  0  0  0
    2.8665    2.4075    0.0000 H   0  0  0  0  0  0  0  0  0  0  0  0
    6.7222   -0.3428    0.0000 H   0  0  0  0  0  0  0  0  0  0  0  0
    6.3237   -1.0330    0.0000 H   0  0  0  0  0  0  0  0  0  0  0  0
    8.6663    1.6946    0.0000 H   0  0  0  0  0  0  0  0  0  0  0  0
    8.0558   -1.8177    0.0000 H   0  0  0  0  0  0  0  0  0  0  0  0
    8.4543   -2.5080    0.0000 H   0  0  0  0  0  0  0  0  0  0  0  0
    2.9307   -1.6661    0.0000 H   0  0  0  0  0  0  0  0  0  0  0  0
    3.4784   -2.5899    0.0000 H   0  0  0  0  0  0  0  0  0  0  0  0
    7.4712   -2.2354    0.0000 H   0  0  0  0  0  0  0  0  0  0  0  0
    2.0000    0.8584    0.0000 H   0  0  0  0  0  0  0  0  0  0  0  0
   10.0693   -2.1154    0.0000 H   0  0  0  0  0  0  0  0  0  0  0  0
    3.7865    3.9254    0.0000 H   0  0  0  0  0  0  0  0  0  0  0  0
    7.8003    3.1946    0.0000 H   0  0  0  0  0  0  0  0  0  0  0  0
   10.9353   -0.6154    0.0000 H   0  0  0  0  0  0  0  0  0  0  0  0
   10.3984    1.6946    0.0000 H   0  0  0  0  0  0  0  0  0  0  0  0
    5.4482   -3.4254    0.0000 H   0  0  0  0  0  0  0  0  0  0  0  0
    5.5122   -1.3885    0.0000 H   0  0  0  0  0  0  0  0  0  0  0  0
    4.6653   -1.6154    0.0000 H   0  0  0  0  0  0  0  0  0  0  0  0
    4.8922   -2.4623    0.0000 H   0  0  0  0  0  0  0  0  0  0  0  0
    6.0682   -4.0454    0.0000 H   0  0  0  0  0  0  0  0  0  0  0  0
    6.6882   -3.4254    0.0000 H   0  0  0  0  0  0  0  0  0  0  0  0
    8.3563   -3.3885    0.0000 H   0  0  0  0  0  0  0  0  0  0  0  0
    8.1294   -4.2354    0.0000 H   0  0  0  0  0  0  0  0  0  0  0  0
    8.9763   -4.4623    0.0000 H   0  0  0  0  0  0  0  0  0  0  0  0
   10.0884   -4.4623    0.0000 H   0  0  0  0  0  0  0  0  0  0  0  0
   10.9353   -4.2354    0.0000 H   0  0  0  0  0  0  0  0  0  0  0  0
   10.7084   -3.3885    0.0000 H   0  0  0  0  0  0  0  0  0  0  0  0
  1 10  1  0  0  0  0
  1 16  1  0  0  0  0
  2 14  1  0  0  0  0
  2 54  1  0  0  0  0
  3 20  1  0  0  0  0
  3 56  1  0  0  0  0
  4 23  1  0  0  0  0
  4 57  1  0  0  0  0
  5 21  2  0  0  0  0
  6 27  1  0  0  0  0
  6 58  1  0  0  0  0
  7 28  1  0  0  0  0
  7 59  1  0  0  0  0
  8  9  1  0  0  0  0
  8 11  1  0  0  0  0
  8 12  1  0  0  0  0
  8 18  1  0  0  0  0
  9 10  1  0  0  0  0
  9 14  2  0  0  0  0
 10 13  2  0  0  0  0
 11 41  1  0  0  0  0
 11 42  1  0  0  0  0
 11 43  1  0  0  0  0
 12 38  1  0  0  0  0
 12 39  1  0  0  0  0
 12 40  1  0  0  0  0
 13 20  1  0  0  0  0
 13 21  1  0  0  0  0
 14 22  1  0  0  0  0
 15 16  1  0  0  0  0
 15 17  1  0  0  0  0
 15 25  2  0  0  0  0
 16 23  2  0  0  0  0
 17 19  2  0  0  0  0
 17 24  1  0  0  0  0
 18 29  2  0  0  0  0
 18 44  1  0  0  0  0
 19 26  1  0  0  0  0
 19 27  1  0  0  0  0
 20 22  2  0  0  0  0
 21 23  1  0  0  0  0
 22 45  1  0  0  0  0
 24 30  1  0  0  0  0
 24 46  1  0  0  0  0
 24 47  1  0  0  0  0
 25 28  1  0  0  0  0
 25 48  1  0  0  0  0
 26 31  1  0  0  0  0
 26 49  1  0  0  0  0
 26 50  1  0  0  0  0
 27 28  2  0  0  0  0
 29 51  1  0  0  0  0
 29 52  1  0  0  0  0
 30 32  2  0  0  0  0
 30 53  1  0  0  0  0
 31 33  2  0  0  0  0
 31 55  1  0  0  0  0
 32 34  1  0  0  0  0
 32 35  1  0  0  0  0
 33 36  1  0  0  0  0
 33 37  1  0  0  0  0
 34 60  1  0  0  0  0
 34 64  1  0  0  0  0
 34 65  1  0  0  0  0
 35 61  1  0  0  0  0
 35 62  1  0  0  0  0
 35 63  1  0  0  0  0
 36 69  1  0  0  0  0
 36 70  1  0  0  0  0
 36 71  1  0  0  0  0
 37 66  1  0  0  0  0
 37 67  1  0  0  0  0
 37 68  1  0  0  0  0
M  END
>  <PUBCHEM_COMPOUND_CID>
5481967

>  <PUBCHEM_COMPOUND_CANONICALIZED>
1

>  <PUBCHEM_CACTVS_COMPLEXITY>
953

>  <PUBCHEM_CACTVS_HBOND_ACCEPTOR>
7

>  <PUBCHEM_CACTVS_HBOND_DONOR>
5

>  <PUBCHEM_CACTVS_ROTATABLE_BOND>
7

>  <PUBCHEM_CACTVS_SUBSKEYS>
AAADcfB4OAAAAAAAAAAAAAAAAAAAAAAAAAAwYIAAAAAAAACBQAAAGgAACAAADgSAmAAyBoAABgCIAqBSAAICCAAkIAAIiAFGiMgNJzaGNRqCeWGl4BUJuQfI7PzPoAADCAAYQABAAAYQADCAAAAAAAAAAA==

>  <PUBCHEM_IUPAC_OPENEYE_NAME>
2-[4,5-dihydroxy-2,3-bis(3-methylbut-2-enyl)phenyl]-8-(1,1-dimethylallyl)-3,5,7-trihydroxy-chromen-4-one

>  <PUBCHEM_IUPAC_CAS_NAME>
2-[4,5-dihydroxy-2,3-bis(3-methylbut-2-enyl)phenyl]-3,5,7-trihydroxy-8-(2-methylbut-3-en-2-yl)-1-benzopyran-4-one

>  <PUBCHEM_IUPAC_NAME>
2-[4,5-dihydroxy-2,3-bis(3-methylbut-2-enyl)phenyl]-3,5,7-trihydroxy-8-(2-methylbut-3-en-2-yl)chromen-4-one

>  <PUBCHEM_IUPAC_SYSTEMATIC_NAME>
2-[2,3-bis(3-methylbut-2-enyl)-4,5-bis(oxidanyl)phenyl]-8-(2-methylbut-3-en-2-yl)-3,5,7-tris(oxidanyl)chromen-4-one

>  <PUBCHEM_IUPAC_TRADITIONAL_NAME>
2-[4,5-dihydroxy-2,3-bis(3-methylbut-2-enyl)phenyl]-8-(1,1-dimethylallyl)-3,5,7-trihydroxy-chromone

>  <PUBCHEM_IUPAC_INCHI>
InChI=1S/C30H34O7/c1-8-30(6,7)24-21(32)14-20(31)23-26(35)27(36)28(37-29(23)24)19-13-22(33)25(34)18(12-10-16(4)5)17(19)11-9-15(2)3/h8-10,13-14,31-34,36H,1,11-12H2,2-7H3

>  <PUBCHEM_IUPAC_INCHIKEY>
HHTKCKAMIUFCSO-UHFFFAOYSA-N

>  <PUBCHEM_XLOGP3_AA>
8

>  <PUBCHEM_EXACT_MASS>
506.23

>  <PUBCHEM_MOLECULAR_FORMULA>
C30H34O7

>  <PUBCHEM_MOLECULAR_WEIGHT>
506.595

>  <PUBCHEM_OPENEYE_CAN_SMILES>
CC(=CCC1=C(C(=C(C=C1C2=C(C(=O)C3=C(O2)C(=C(C=C3O)O)C(C)(C)C=C)O)O)O)CC=C(C)C)C

>  <PUBCHEM_OPENEYE_ISO_SMILES>
CC(=CCC1=C(C(=C(C=C1C2=C(C(=O)C3=C(O2)C(=C(C=C3O)O)C(C)(C)C=C)O)O)O)CC=C(C)C)C

>  <PUBCHEM_CACTVS_TPSA>
127

>  <PUBCHEM_MONOISOTOPIC_WEIGHT>
506.23

>  <PUBCHEM_TOTAL_CHARGE>
0

>  <PUBCHEM_HEAVY_ATOM_COUNT>
37

>  <PUBCHEM_ATOM_DEF_STEREO_COUNT>
0

>  <PUBCHEM_ATOM_UDEF_STEREO_COUNT>
0

>  <PUBCHEM_BOND_DEF_STEREO_COUNT>
0

>  <PUBCHEM_BOND_UDEF_STEREO_COUNT>
0

>  <PUBCHEM_ISOTOPIC_ATOM_COUNT>
0

>  <PUBCHEM_COMPONENT_COUNT>
1

>  <PUBCHEM_CACTVS_TAUTO_COUNT>
998

>  <PUBCHEM_COORDINATE_TYPE>
1
5
255

>  <PUBCHEM_BONDANNOTATIONS>
1  10  8
1  16  8
10  13  8
13  20  8
13  21  8
14  22  8
15  17  8
15  25  8
16  23  8
17  19  8
19  27  8
20  22  8
21  23  8
25  28  8
27  28  8
9  10  8
9  14  8

$$$$
