5487248
 OpenBabel06101807152D

 35 37  0  0  1  0  0  0  0  0999 V2000
    7.2019   -2.0630    0.0000 O   0  0  0  0  0  0  0  0  0  0  0  0
    3.6948    0.0989    0.0000 O   0  0  0  0  0  0  0  0  0  0  0  0
    5.0790   -2.8183    0.0000 O   0  0  0  0  0  0  0  0  0  0  0  0
    6.3141    1.4684    0.0000 O   0  0  0  0  0  0  0  0  0  0  0  0
    4.8516    1.3880    0.0000 O   0  0  0  0  0  0  0  0  0  0  0  0
    8.9339   -2.0630    0.0000 O   0  0  0  0  0  0  0  0  0  0  0  0
    8.0800    2.5062    0.0000 O   0  0  0  0  0  0  0  0  0  0  0  0
    9.8539    1.4821    0.0000 O   0  0  0  0  0  0  0  0  0  0  0  0
    5.3896   -0.2583    0.0000 C   0  0  3  0  0  0  0  0  0  0  0  0
    6.3359   -0.5630    0.0000 C   0  0  0  0  0  0  0  0  0  0  0  0
    4.8060   -1.0630    0.0000 C   0  0  0  0  0  0  0  0  0  0  0  0
    6.3359   -1.5630    0.0000 C   0  0  0  0  0  0  0  0  0  0  0  0
    7.2019   -0.0630    0.0000 C   0  0  0  0  0  0  0  0  0  0  0  0
    5.3896   -1.8678    0.0000 C   0  0  0  0  0  0  0  0  0  0  0  0
    8.0679   -0.5630    0.0000 C   0  0  0  0  0  0  0  0  0  0  0  0
    4.6453    0.4095    0.0000 C   0  0  0  0  0  0  0  0  0  0  0  0
    7.1858    0.9785    0.0000 C   0  0  0  0  0  0  0  0  0  0  0  0
    8.0679   -1.5630    0.0000 C   0  0  0  0  0  0  0  0  0  0  0  0
    8.9779   -0.0562    0.0000 C   0  0  0  0  0  0  0  0  0  0  0  0
    8.0839    1.5062    0.0000 C   0  0  0  0  0  0  0  0  0  0  0  0
    8.9860    0.9854    0.0000 C   0  0  0  0  0  0  0  0  0  0  0  0
    2.9505    0.7667    0.0000 C   0  0  0  0  0  0  0  0  0  0  0  0
    2.0000    0.4561    0.0000 C   0  0  0  0  0  0  0  0  0  0  0  0
    5.6985    0.2793    0.0000 H   0  0  0  0  0  0  0  0  0  0  0  0
    4.3452   -0.6483    0.0000 H   0  0  0  0  0  0  0  0  0  0  0  0
    4.3452   -1.4778    0.0000 H   0  0  0  0  0  0  0  0  0  0  0  0
    9.5112   -0.3724    0.0000 H   0  0  0  0  0  0  0  0  0  0  0  0
    3.4384    1.1493    0.0000 H   0  0  0  0  0  0  0  0  0  0  0  0
    2.6585    1.3136    0.0000 H   0  0  0  0  0  0  0  0  0  0  0  0
    6.3069    2.0884    0.0000 H   0  0  0  0  0  0  0  0  0  0  0  0
    8.6158    2.8183    0.0000 H   0  0  0  0  0  0  0  0  0  0  0  0
    1.8074    1.0454    0.0000 H   0  0  0  0  0  0  0  0  0  0  0  0
    1.4107    0.2634    0.0000 H   0  0  0  0  0  0  0  0  0  0  0  0
    2.1926   -0.1333    0.0000 H   0  0  0  0  0  0  0  0  0  0  0  0
   10.3896    1.1700    0.0000 H   0  0  0  0  0  0  0  0  0  0  0  0
  1 12  1  0  0  0  0
  1 18  1  0  0  0  0
  2 16  1  0  0  0  0
  2 22  1  0  0  0  0
  3 14  2  0  0  0  0
  4 17  1  0  0  0  0
  4 30  1  0  0  0  0
  5 16  2  0  0  0  0
  6 18  2  0  0  0  0
  7 20  1  0  0  0  0
  7 31  1  0  0  0  0
  8 21  1  0  0  0  0
  8 35  1  0  0  0  0
  9 10  1  0  0  0  0
  9 11  1  0  0  0  0
  9 16  1  0  0  0  0
  9 24  1  0  0  0  0
 10 12  2  0  0  0  0
 10 13  1  0  0  0  0
 11 14  1  0  0  0  0
 11 25  1  0  0  0  0
 11 26  1  0  0  0  0
 12 14  1  0  0  0  0
 13 15  1  0  0  0  0
 13 17  2  0  0  0  0
 15 18  1  0  0  0  0
 15 19  2  0  0  0  0
 17 20  1  0  0  0  0
 19 21  1  0  0  0  0
 19 27  1  0  0  0  0
 20 21  2  0  0  0  0
 22 23  1  0  0  0  0
 22 28  1  0  0  0  0
 22 29  1  0  0  0  0
 23 32  1  0  0  0  0
 23 33  1  0  0  0  0
 23 34  1  0  0  0  0
M  END
>  <PUBCHEM_COMPOUND_CID>
5487248

>  <PUBCHEM_COMPOUND_CANONICALIZED>
1

>  <PUBCHEM_CACTVS_COMPLEXITY>
594

>  <PUBCHEM_CACTVS_HBOND_ACCEPTOR>
8

>  <PUBCHEM_CACTVS_HBOND_DONOR>
3

>  <PUBCHEM_CACTVS_ROTATABLE_BOND>
3

>  <PUBCHEM_CACTVS_SUBSKEYS>
AAADccBwPAAAAAAAAAAAAAAAAAAAAQAAAAAwQAAAAAAAAEiBAAAAGgAACAAADQSgmAIyDoAABgCIAqDSCAICCAAkIAAAiAFGiMgJJzKCNB6CcQElwBUJuYfL7PzOoAABCAAYQABAAAIQADCAAAAAAAAAAA==

>  <PUBCHEM_IUPAC_OPENEYE_NAME>
ethyl 7,8,9-trihydroxy-3,5-dioxo-1,2-dihydrocyclopenta[c]isochromene-1-carboxylate

>  <PUBCHEM_IUPAC_CAS_NAME>
7,8,9-trihydroxy-3,5-dioxo-1,2-dihydrocyclopenta[c][2]benzopyran-1-carboxylic acid ethyl ester

>  <PUBCHEM_IUPAC_NAME>
ethyl 7,8,9-trihydroxy-3,5-dioxo-1,2-dihydrocyclopenta[c]isochromene-1-carboxylate

>  <PUBCHEM_IUPAC_SYSTEMATIC_NAME>
ethyl 7,8,9-tris(oxidanyl)-3,5-bis(oxidanylidene)-1,2-dihydrocyclopenta[c]isochromene-1-carboxylate

>  <PUBCHEM_IUPAC_TRADITIONAL_NAME>
7,8,9-trihydroxy-3,5-diketo-1,2-dihydrocyclopent[c]isochromene-1-carboxylic acid ethyl ester

>  <PUBCHEM_IUPAC_INCHI>
InChI=1S/C15H12O8/c1-2-22-14(20)6-4-8(17)13-10(6)9-5(15(21)23-13)3-7(16)11(18)12(9)19/h3,6,16,18-19H,2,4H2,1H3

>  <PUBCHEM_IUPAC_INCHIKEY>
JSEPSLOCPQODTM-UHFFFAOYSA-N

>  <PUBCHEM_XLOGP3_AA>
0.3

>  <PUBCHEM_EXACT_MASS>
320.053

>  <PUBCHEM_MOLECULAR_FORMULA>
C15H12O8

>  <PUBCHEM_MOLECULAR_WEIGHT>
320.253

>  <PUBCHEM_OPENEYE_CAN_SMILES>
CCOC(=O)C1CC(=O)C2=C1C3=C(C(=C(C=C3C(=O)O2)O)O)O

>  <PUBCHEM_OPENEYE_ISO_SMILES>
CCOC(=O)C1CC(=O)C2=C1C3=C(C(=C(C=C3C(=O)O2)O)O)O

>  <PUBCHEM_CACTVS_TPSA>
130

>  <PUBCHEM_MONOISOTOPIC_WEIGHT>
320.053

>  <PUBCHEM_TOTAL_CHARGE>
0

>  <PUBCHEM_HEAVY_ATOM_COUNT>
23

>  <PUBCHEM_ATOM_DEF_STEREO_COUNT>
0

>  <PUBCHEM_ATOM_UDEF_STEREO_COUNT>
1

>  <PUBCHEM_BOND_DEF_STEREO_COUNT>
0

>  <PUBCHEM_BOND_UDEF_STEREO_COUNT>
0

>  <PUBCHEM_ISOTOPIC_ATOM_COUNT>
0

>  <PUBCHEM_COMPONENT_COUNT>
1

>  <PUBCHEM_CACTVS_TAUTO_COUNT>
363

>  <PUBCHEM_COORDINATE_TYPE>
1
5
255

>  <PUBCHEM_BONDANNOTATIONS>
1  12  8
1  18  8
10  12  8
10  13  8
13  15  8
13  17  8
15  18  8
15  19  8
17  20  8
19  21  8
20  21  8
9  16  3

$$$$
