5487770
 OpenBabel06101807152D

 61 64  0  0  1  0  0  0  0  0999 V2000
    5.1350   -2.7873    0.0000 O   0  0  0  0  0  0  0  0  0  0  0  0
    6.8671   -2.7873    0.0000 O   0  0  0  0  0  0  0  0  0  0  0  0
    5.1350   -5.7873    0.0000 O   0  0  0  0  0  0  0  0  0  0  0  0
    3.4030   -4.7873    0.0000 O   0  0  0  0  0  0  0  0  0  0  0  0
    6.8671   -4.7873    0.0000 O   0  0  0  0  0  0  0  0  0  0  0  0
    2.5369   -3.2873    0.0000 O   0  0  0  0  0  0  0  0  0  0  0  0
    8.6230    0.2752    0.0000 O   0  0  0  0  0  0  0  0  0  0  0  0
    5.1208    0.2919    0.0000 O   0  0  0  0  0  0  0  0  0  0  0  0
    7.7666    2.7786    0.0000 O   0  0  0  0  0  0  0  0  0  0  0  0
    6.0308    1.7852    0.0000 O   0  0  0  0  0  0  0  0  0  0  0  0
   12.0987    3.2619    0.0000 O   0  0  0  0  0  0  0  0  0  0  0  0
    6.0346    2.7852    0.0000 O   0  0  0  0  0  0  0  0  0  0  0  0
    6.0462    5.7852    0.0000 O   0  0  0  0  0  0  0  0  0  0  0  0
    5.1744    4.2886    0.0000 O   0  0  0  0  0  0  0  0  0  0  0  0
    5.1350   -4.7873    0.0000 C   0  0  1  0  0  0  0  0  0  0  0  0
    4.2690   -4.2873    0.0000 C   0  0  1  0  0  0  0  0  0  0  0  0
    6.0010   -4.2873    0.0000 C   0  0  2  0  0  0  0  0  0  0  0  0
    4.2690   -3.2873    0.0000 C   0  0  1  0  0  0  0  0  0  0  0  0
    6.0010   -3.2873    0.0000 C   0  0  1  0  0  0  0  0  0  0  0  0
    3.4030   -2.7873    0.0000 C   0  0  0  0  0  0  0  0  0  0  0  0
    6.8671   -1.7873    0.0000 C   0  0  0  0  0  0  0  0  0  0  0  0
    7.7671   -1.2630    0.0000 C   0  0  0  0  0  0  0  0  0  0  0  0
    5.9670   -1.2630    0.0000 C   0  0  0  0  0  0  0  0  0  0  0  0
    7.7551   -0.2214    0.0000 C   0  0  0  0  0  0  0  0  0  0  0  0
    6.8910    0.2819    0.0000 C   0  0  0  0  0  0  0  0  0  0  0  0
    5.9790   -0.2214    0.0000 C   0  0  0  0  0  0  0  0  0  0  0  0
    8.6269    1.2752    0.0000 C   0  0  0  0  0  0  0  0  0  0  0  0
    9.4948    1.7719    0.0000 C   0  0  3  0  0  0  0  0  0  0  0  0
    6.8948    1.2819    0.0000 C   0  0  0  0  0  0  0  0  0  0  0  0
    7.7628    1.7786    0.0000 C   0  0  0  0  0  0  0  0  0  0  0  0
   10.3589    1.2686    0.0000 C   0  0  0  0  0  0  0  0  0  0  0  0
    9.4987    2.7719    0.0000 C   0  0  0  0  0  0  0  0  0  0  0  0
   11.2269    1.7652    0.0000 C   0  0  0  0  0  0  0  0  0  0  0  0
   10.3666    3.2685    0.0000 C   0  0  0  0  0  0  0  0  0  0  0  0
   11.2307    2.7652    0.0000 C   0  0  0  0  0  0  0  0  0  0  0  0
    6.9026    3.2819    0.0000 C   0  0  0  0  0  0  0  0  0  0  0  0
    6.9064    4.2819    0.0000 C   0  0  0  0  0  0  0  0  0  0  0  0
    6.0423    4.7852    0.0000 C   0  0  0  0  0  0  0  0  0  0  0  0
    5.6720   -5.0973    0.0000 H   0  0  0  0  0  0  0  0  0  0  0  0
    4.2690   -4.9073    0.0000 H   0  0  0  0  0  0  0  0  0  0  0  0
    6.5380   -3.9773    0.0000 H   0  0  0  0  0  0  0  0  0  0  0  0
    4.2690   -2.6673    0.0000 H   0  0  0  0  0  0  0  0  0  0  0  0
    6.0010   -2.6673    0.0000 H   0  0  0  0  0  0  0  0  0  0  0  0
    3.8015   -2.3123    0.0000 H   0  0  0  0  0  0  0  0  0  0  0  0
    3.0044   -2.3123    0.0000 H   0  0  0  0  0  0  0  0  0  0  0  0
    4.5981   -6.0973    0.0000 H   0  0  0  0  0  0  0  0  0  0  0  0
    3.4030   -5.4073    0.0000 H   0  0  0  0  0  0  0  0  0  0  0  0
    6.8671   -5.4073    0.0000 H   0  0  0  0  0  0  0  0  0  0  0  0
    2.0000   -2.9773    0.0000 H   0  0  0  0  0  0  0  0  0  0  0  0
    8.3064   -1.5688    0.0000 H   0  0  0  0  0  0  0  0  0  0  0  0
    5.4277   -1.5688    0.0000 H   0  0  0  0  0  0  0  0  0  0  0  0
    9.4924    1.1519    0.0000 H   0  0  0  0  0  0  0  0  0  0  0  0
   10.3565    0.6486    0.0000 H   0  0  0  0  0  0  0  0  0  0  0  0
    8.9630    3.0839    0.0000 H   0  0  0  0  0  0  0  0  0  0  0  0
   11.7626    1.4531    0.0000 H   0  0  0  0  0  0  0  0  0  0  0  0
   10.3690    3.8885    0.0000 H   0  0  0  0  0  0  0  0  0  0  0  0
    4.5792   -0.0098    0.0000 H   0  0  0  0  0  0  0  0  0  0  0  0
    7.5166    4.1719    0.0000 H   0  0  0  0  0  0  0  0  0  0  0  0
    7.1207    4.8637    0.0000 H   0  0  0  0  0  0  0  0  0  0  0  0
   12.6344    2.9498    0.0000 H   0  0  0  0  0  0  0  0  0  0  0  0
    5.5104    6.0973    0.0000 H   0  0  0  0  0  0  0  0  0  0  0  0
  1 18  1  0  0  0  0
  1 19  1  0  0  0  0
  2 21  1  0  0  0  0
  3 46  1  0  0  0  0
  4 47  1  0  0  0  0
  5 48  1  0  0  0  0
  6 20  1  0  0  0  0
  6 49  1  0  0  0  0
  7 24  1  0  0  0  0
  7 27  1  0  0  0  0
  8 26  1  0  0  0  0
  8 57  1  0  0  0  0
  9 30  1  0  0  0  0
  9 36  1  0  0  0  0
 10 29  2  0  0  0  0
 11 35  1  0  0  0  0
 11 60  1  0  0  0  0
 12 36  2  0  0  0  0
 13 38  1  0  0  0  0
 13 61  1  0  0  0  0
 14 38  2  0  0  0  0
 15  3  1  0  0  0  0
 15 16  1  6  0  0  0
 15 39  1  0  0  0  0
 16  4  1  0  0  0  0
 16 18  1  1  0  0  0
 16 40  1  0  0  0  0
 17  5  1  0  0  0  0
 17 15  1  1  0  0  0
 17 41  1  0  0  0  0
 18 20  1  0  0  0  0
 18 42  1  6  0  0  0
 19  2  1  0  0  0  0
 19 17  1  6  0  0  0
 19 43  1  0  0  0  0
 20 44  1  0  0  0  0
 20 45  1  0  0  0  0
 21 22  1  0  0  0  0
 21 23  2  0  0  0  0
 22 24  2  0  0  0  0
 22 50  1  0  0  0  0
 23 26  1  0  0  0  0
 23 51  1  0  0  0  0
 24 25  1  0  0  0  0
 25 26  2  0  0  0  0
 25 29  1  0  0  0  0
 27 28  1  0  0  0  0
 27 30  2  0  0  0  0
 28 31  1  0  0  0  0
 28 32  1  0  0  0  0
 28 52  1  0  0  0  0
 29 30  1  0  0  0  0
 31 33  1  0  0  0  0
 31 53  1  0  0  0  0
 32 34  2  0  0  0  0
 32 54  1  0  0  0  0
 33 35  2  0  0  0  0
 33 55  1  0  0  0  0
 34 35  1  0  0  0  0
 34 56  1  0  0  0  0
 36 37  1  0  0  0  0
 37 38  1  0  0  0  0
 37 58  1  0  0  0  0
 37 59  1  0  0  0  0
M  RAD  1  31   2
M  END
>  <PUBCHEM_COMPOUND_CID>
5487770

>  <PUBCHEM_COMPOUND_CANONICALIZED>
1

>  <PUBCHEM_CACTVS_COMPLEXITY>
1020

>  <PUBCHEM_CACTVS_HBOND_ACCEPTOR>
14

>  <PUBCHEM_CACTVS_HBOND_DONOR>
7

>  <PUBCHEM_CACTVS_ROTATABLE_BOND>
8

>  <PUBCHEM_CACTVS_SUBSKEYS>
AAADceB4PAAAAAAAAAAAAAAAAAAAAAAAAAA0QIEAAAAAAACBAAAAGgAACAAADRSwmAMwDoAABgCIAqDSCAICCAAkIAAIiAFGCMgdNzaONR6ieWCl4BUPuQfI7KzOIAAACAAIAABAAAAQABAAAAAAAAAAAA==

>  <PUBCHEM_IUPAC_OPENEYE_NAME>
3-[5-hydroxy-2-(4-hydroxycyclohexa-2,4-dien-1-yl)-4-oxo-7-[(2S,3R,4S,5S,6R)-3,4,5-trihydroxy-6-(hydroxymethyl)tetrahydropyran-2-yl]oxy-chromen-3-yl]oxy-3-oxo-propanoic acid

>  <PUBCHEM_IUPAC_CAS_NAME>
3-[[5-hydroxy-2-(4-hydroxy-1-cyclohexa-2,4-dienyl)-4-oxo-7-[[(2S,3R,4S,5S,6R)-3,4,5-trihydroxy-6-(hydroxymethyl)-2-oxanyl]oxy]-1-benzopyran-3-yl]oxy]-3-oxopropanoic acid

>  <PUBCHEM_IUPAC_NAME>
3-[5-hydroxy-2-(4-hydroxycyclohexa-2,4-dien-1-yl)-4-oxo-7-[(2S,3R,4S,5S,6R)-3,4,5-trihydroxy-6-(hydroxymethyl)oxan-2-yl]oxychromen-3-yl]oxy-3-oxopropanoic acid

>  <PUBCHEM_IUPAC_SYSTEMATIC_NAME>
3-[7-[(2S,3R,4S,5S,6R)-6-(hydroxymethyl)-3,4,5-tris(oxidanyl)oxan-2-yl]oxy-5-oxidanyl-2-(4-oxidanylcyclohexa-2,4-dien-1-yl)-4-oxidanylidene-chromen-3-yl]oxy-3-oxidanylidene-propanoic acid

>  <PUBCHEM_IUPAC_TRADITIONAL_NAME>
3-[5-hydroxy-2-(4-hydroxycyclohexa-2,4-dien-1-yl)-4-keto-7-[(2S,3R,4S,5S,6R)-3,4,5-trihydroxy-6-methylol-tetrahydropyran-2-yl]oxy-chromen-3-yl]oxy-3-keto-propionic acid

>  <PUBCHEM_IUPAC_INCHI>
InChI=1S/C24H23O14/c25-8-14-18(31)20(33)21(34)24(37-14)35-11-5-12(27)17-13(6-11)36-22(9-1-3-10(26)4-2-9)23(19(17)32)38-16(30)7-15(28)29/h1-6,9,14,18,20-21,24-27,31,33-34H,7-8H2,(H,28,29)/t14-,18-,20+,21-,24-/m1/s1

>  <PUBCHEM_IUPAC_INCHIKEY>
ULRLGMUACGKIGP-VKIKYZBHSA-N

>  <PUBCHEM_XLOGP3_AA>
0.3

>  <PUBCHEM_EXACT_MASS>
535.109

>  <PUBCHEM_MOLECULAR_FORMULA>
C24H23O14

>  <PUBCHEM_MOLECULAR_WEIGHT>
535.434

>  <PUBCHEM_OPENEYE_CAN_SMILES>
C1=CC(=C[CH]C1C2=C(C(=O)C3=C(C=C(C=C3O2)OC4C(C(C(C(O4)CO)O)O)O)O)OC(=O)CC(=O)O)O

>  <PUBCHEM_OPENEYE_ISO_SMILES>
C1=CC(=C[CH]C1C2=C(C(=O)C3=C(C=C(C=C3O2)O[C@H]4[C@@H]([C@H]([C@@H]([C@H](O4)CO)O)O)O)O)OC(=O)CC(=O)O)O

>  <PUBCHEM_CACTVS_TPSA>
230

>  <PUBCHEM_MONOISOTOPIC_WEIGHT>
535.109

>  <PUBCHEM_TOTAL_CHARGE>
0

>  <PUBCHEM_HEAVY_ATOM_COUNT>
38

>  <PUBCHEM_ATOM_DEF_STEREO_COUNT>
5

>  <PUBCHEM_ATOM_UDEF_STEREO_COUNT>
1

>  <PUBCHEM_BOND_DEF_STEREO_COUNT>
0

>  <PUBCHEM_BOND_UDEF_STEREO_COUNT>
0

>  <PUBCHEM_ISOTOPIC_ATOM_COUNT>
0

>  <PUBCHEM_COMPONENT_COUNT>
1

>  <PUBCHEM_CACTVS_TAUTO_COUNT>
43

>  <PUBCHEM_COORDINATE_TYPE>
1
5
255

>  <PUBCHEM_BONDANNOTATIONS>
18  20  5
19  2  5
21  22  8
21  23  8
22  24  8
23  26  8
24  25  8
25  26  8
25  29  8
28  27  3
27  30  8
29  30  8
15  3  5
16  4  6
17  5  6
7  24  8
7  27  8

$$$$
