5487772
 OpenBabel06101807152D

 37 39  0  0  0  0  0  0  0  0999 V2000
    6.4144    1.9377    0.0000 O   0  0  0  0  0  0  0  0  0  0  0  0
    8.1962    0.9273    0.0000 O   0  0  0  0  0  0  0  0  0  0  0  0
    6.4144   -2.1315    0.0000 O   0  0  0  0  0  0  0  0  0  0  0  0
    4.6660   -2.0969    0.0000 O   0  0  0  0  0  0  0  0  0  0  0  0
    2.9176    1.9377    0.0000 O   0  0  0  0  0  0  0  0  0  0  0  0
    4.6660    0.9031    0.0000 N   0  0  0  0  0  0  0  0  0  0  0  0
    5.5321    0.4031    0.0000 C   0  0  0  0  0  0  0  0  0  0  0  0
    5.5321   -0.5969    0.0000 C   0  0  0  0  0  0  0  0  0  0  0  0
    3.8000    0.4031    0.0000 C   0  0  0  0  0  0  0  0  0  0  0  0
    3.8000   -0.5969    0.0000 C   0  0  0  0  0  0  0  0  0  0  0  0
    4.6660   -1.0969    0.0000 C   0  0  0  0  0  0  0  0  0  0  0  0
    6.4260    0.9378    0.0000 C   0  0  0  0  0  0  0  0  0  0  0  0
    6.4260   -1.1316    0.0000 C   0  0  0  0  0  0  0  0  0  0  0  0
    2.9061    0.9378    0.0000 C   0  0  0  0  0  0  0  0  0  0  0  0
    4.6660    1.9031    0.0000 C   0  0  0  0  0  0  0  0  0  0  0  0
    7.3321    0.4239    0.0000 C   0  0  0  0  0  0  0  0  0  0  0  0
    2.9061   -1.1316    0.0000 C   0  0  0  0  0  0  0  0  0  0  0  0
    7.3321   -0.6177    0.0000 C   0  0  0  0  0  0  0  0  0  0  0  0
    2.0000    0.4239    0.0000 C   0  0  0  0  0  0  0  0  0  0  0  0
    2.0000   -0.6177    0.0000 C   0  0  0  0  0  0  0  0  0  0  0  0
    7.2746    2.4477    0.0000 C   0  0  0  0  0  0  0  0  0  0  0  0
    9.0641    0.4306    0.0000 C   0  0  0  0  0  0  0  0  0  0  0  0
    5.2860    1.9031    0.0000 H   0  0  0  0  0  0  0  0  0  0  0  0
    4.6660    2.5231    0.0000 H   0  0  0  0  0  0  0  0  0  0  0  0
    4.0460    1.9031    0.0000 H   0  0  0  0  0  0  0  0  0  0  0  0
    2.9132   -1.7515    0.0000 H   0  0  0  0  0  0  0  0  0  0  0  0
    7.8678   -0.9298    0.0000 H   0  0  0  0  0  0  0  0  0  0  0  0
    1.4643    0.7360    0.0000 H   0  0  0  0  0  0  0  0  0  0  0  0
    1.4643   -0.9298    0.0000 H   0  0  0  0  0  0  0  0  0  0  0  0
    6.9478   -2.4477    0.0000 H   0  0  0  0  0  0  0  0  0  0  0  0
    2.3843    2.2539    0.0000 H   0  0  0  0  0  0  0  0  0  0  0  0
    7.5908    1.9144    0.0000 H   0  0  0  0  0  0  0  0  0  0  0  0
    7.8079    2.7639    0.0000 H   0  0  0  0  0  0  0  0  0  0  0  0
    6.9584    2.9810    0.0000 H   0  0  0  0  0  0  0  0  0  0  0  0
    8.7562   -0.1075    0.0000 H   0  0  0  0  0  0  0  0  0  0  0  0
    9.6022    0.1227    0.0000 H   0  0  0  0  0  0  0  0  0  0  0  0
    9.3720    0.9687    0.0000 H   0  0  0  0  0  0  0  0  0  0  0  0
  1 12  1  0  0  0  0
  1 21  1  0  0  0  0
  2 16  1  0  0  0  0
  2 22  1  0  0  0  0
  3 13  1  0  0  0  0
  3 30  1  0  0  0  0
  4 11  2  0  0  0  0
  5 14  1  0  0  0  0
  5 31  1  0  0  0  0
  6  7  1  0  0  0  0
  6  9  1  0  0  0  0
  6 15  1  0  0  0  0
  7  8  2  0  0  0  0
  7 12  1  0  0  0  0
  8 11  1  0  0  0  0
  8 13  1  0  0  0  0
  9 10  2  0  0  0  0
  9 14  1  0  0  0  0
 10 11  1  0  0  0  0
 10 17  1  0  0  0  0
 12 16  2  0  0  0  0
 13 18  2  0  0  0  0
 14 19  2  0  0  0  0
 15 23  1  0  0  0  0
 15 24  1  0  0  0  0
 15 25  1  0  0  0  0
 16 18  1  0  0  0  0
 17 20  2  0  0  0  0
 17 26  1  0  0  0  0
 18 27  1  0  0  0  0
 19 20  1  0  0  0  0
 19 28  1  0  0  0  0
 20 29  1  0  0  0  0
 21 32  1  0  0  0  0
 21 33  1  0  0  0  0
 21 34  1  0  0  0  0
 22 35  1  0  0  0  0
 22 36  1  0  0  0  0
 22 37  1  0  0  0  0
M  END
>  <PUBCHEM_COMPOUND_CID>
5487772

>  <PUBCHEM_COMPOUND_CANONICALIZED>
1

>  <PUBCHEM_CACTVS_COMPLEXITY>
431

>  <PUBCHEM_CACTVS_HBOND_ACCEPTOR>
6

>  <PUBCHEM_CACTVS_HBOND_DONOR>
2

>  <PUBCHEM_CACTVS_ROTATABLE_BOND>
2

>  <PUBCHEM_CACTVS_SUBSKEYS>
AAADccB6OAAAAAAAAAAAAAAAAAAAAAAAAAA8YIAAAAAAAACxQAAAHgAACAAADAyBmAYyxoMABgCIAqRSQACCCAAlIAAIiAEPzMgPJ37WtZuFcepn4B3a+cfa/P/OIQABCgAKUABCAAIUABSgAAAAAAAAAA==

>  <PUBCHEM_IUPAC_OPENEYE_NAME>
1,5-dihydroxy-3,4-dimethoxy-10-methyl-acridin-9-one

>  <PUBCHEM_IUPAC_CAS_NAME>
1,5-dihydroxy-3,4-dimethoxy-10-methyl-9-acridinone

>  <PUBCHEM_IUPAC_NAME>
1,5-dihydroxy-3,4-dimethoxy-10-methylacridin-9-one

>  <PUBCHEM_IUPAC_SYSTEMATIC_NAME>
3,4-dimethoxy-10-methyl-1,5-bis(oxidanyl)acridin-9-one

>  <PUBCHEM_IUPAC_TRADITIONAL_NAME>
1,5-dihydroxy-3,4-dimethoxy-10-methyl-acridin-9-one

>  <PUBCHEM_IUPAC_INCHI>
InChI=1S/C16H15NO5/c1-17-13-8(5-4-6-9(13)18)15(20)12-10(19)7-11(21-2)16(22-3)14(12)17/h4-7,18-19H,1-3H3

>  <PUBCHEM_IUPAC_INCHIKEY>
UTEAJHNFBCLZHN-UHFFFAOYSA-N

>  <PUBCHEM_XLOGP3_AA>
2.9

>  <PUBCHEM_EXACT_MASS>
301.095

>  <PUBCHEM_MOLECULAR_FORMULA>
C16H15NO5

>  <PUBCHEM_MOLECULAR_WEIGHT>
301.298

>  <PUBCHEM_OPENEYE_CAN_SMILES>
CN1C2=C(C=CC=C2O)C(=O)C3=C1C(=C(C=C3O)OC)OC

>  <PUBCHEM_OPENEYE_ISO_SMILES>
CN1C2=C(C=CC=C2O)C(=O)C3=C1C(=C(C=C3O)OC)OC

>  <PUBCHEM_CACTVS_TPSA>
79.2

>  <PUBCHEM_MONOISOTOPIC_WEIGHT>
301.095

>  <PUBCHEM_TOTAL_CHARGE>
0

>  <PUBCHEM_HEAVY_ATOM_COUNT>
22

>  <PUBCHEM_ATOM_DEF_STEREO_COUNT>
0

>  <PUBCHEM_ATOM_UDEF_STEREO_COUNT>
0

>  <PUBCHEM_BOND_DEF_STEREO_COUNT>
0

>  <PUBCHEM_BOND_UDEF_STEREO_COUNT>
0

>  <PUBCHEM_ISOTOPIC_ATOM_COUNT>
0

>  <PUBCHEM_COMPONENT_COUNT>
1

>  <PUBCHEM_CACTVS_TAUTO_COUNT>
8

>  <PUBCHEM_COORDINATE_TYPE>
1
5
255

>  <PUBCHEM_BONDANNOTATIONS>
10  11  8
10  17  8
12  16  8
13  18  8
14  19  8
16  18  8
17  20  8
19  20  8
6  7  8
6  9  8
7  12  8
7  8  8
8  11  8
8  13  8
9  10  8
9  14  8

$$$$
