5487671
 OpenBabel06101807152D

 32 35  0  0  0  0  0  0  0  0999 V2000
    5.7940   -1.4292    0.0000 O   0  0  0  0  0  0  0  0  0  0  0  0
    7.9380    0.6393    0.0000 O   0  0  0  0  0  0  0  0  0  0  0  0
    4.9343    1.8286    0.0000 O   0  0  0  0  0  0  0  0  0  0  0  0
    2.3045   -0.5250    0.0000 O   0  0  0  0  0  0  0  0  0  0  0  0
    6.6509    1.7982    0.0000 O   0  0  0  0  0  0  0  0  0  0  0  0
   10.5776   -1.7049    0.0000 O   0  0  0  0  0  0  0  0  0  0  0  0
    6.2908    0.1040    0.0000 C   0  0  0  0  0  0  0  0  0  0  0  0
    5.2967    0.1015    0.0000 C   0  0  0  0  0  0  0  0  0  0  0  0
    6.5998   -0.8470    0.0000 C   0  0  0  0  0  0  0  0  0  0  0  0
    4.9903   -0.8442    0.0000 C   0  0  0  0  0  0  0  0  0  0  0  0
    7.5779   -1.0549    0.0000 C   0  0  0  0  0  0  0  0  0  0  0  0
    8.2470   -0.3118    0.0000 C   0  0  0  0  0  0  0  0  0  0  0  0
    4.6151    0.8810    0.0000 C   0  0  0  0  0  0  0  0  0  0  0  0
    6.9599    0.8472    0.0000 C   0  0  0  0  0  0  0  0  0  0  0  0
    3.9811   -1.0760    0.0000 C   0  0  0  0  0  0  0  0  0  0  0  0
    7.8845   -2.0504    0.0000 C   0  0  0  0  0  0  0  0  0  0  0  0
    3.2817   -0.3125    0.0000 C   0  0  0  0  0  0  0  0  0  0  0  0
    3.6008    0.6726    0.0000 C   0  0  0  0  0  0  0  0  0  0  0  0
    9.2691   -0.5126    0.0000 C   0  0  0  0  0  0  0  0  0  0  0  0
    8.9017   -2.2748    0.0000 C   0  0  0  0  0  0  0  0  0  0  0  0
    9.5986   -1.5008    0.0000 C   0  0  0  0  0  0  0  0  0  0  0  0
    2.0000   -1.4775    0.0000 C   0  0  0  0  0  0  0  0  0  0  0  0
    3.7969   -1.6680    0.0000 H   0  0  0  0  0  0  0  0  0  0  0  0
    7.4643   -2.5064    0.0000 H   0  0  0  0  0  0  0  0  0  0  0  0
    3.1873    1.1346    0.0000 H   0  0  0  0  0  0  0  0  0  0  0  0
    9.6786   -0.0471    0.0000 H   0  0  0  0  0  0  0  0  0  0  0  0
    9.0910   -2.8652    0.0000 H   0  0  0  0  0  0  0  0  0  0  0  0
    4.5244    2.2938    0.0000 H   0  0  0  0  0  0  0  0  0  0  0  0
   10.7714   -2.2938    0.0000 H   0  0  0  0  0  0  0  0  0  0  0  0
    1.4095   -1.2887    0.0000 H   0  0  0  0  0  0  0  0  0  0  0  0
    1.8112   -2.0680    0.0000 H   0  0  0  0  0  0  0  0  0  0  0  0
    2.5906   -1.6663    0.0000 H   0  0  0  0  0  0  0  0  0  0  0  0
  1  9  1  0  0  0  0
  1 10  1  0  0  0  0
  2 12  1  0  0  0  0
  2 14  1  0  0  0  0
  3 13  1  0  0  0  0
  3 28  1  0  0  0  0
  4 17  1  0  0  0  0
  4 22  1  0  0  0  0
  5 14  2  0  0  0  0
  6 21  1  0  0  0  0
  6 29  1  0  0  0  0
  7  8  1  0  0  0  0
  7  9  2  0  0  0  0
  7 14  1  0  0  0  0
  8 10  1  0  0  0  0
  8 13  2  0  0  0  0
  9 11  1  0  0  0  0
 10 15  2  0  0  0  0
 11 12  2  0  0  0  0
 11 16  1  0  0  0  0
 12 19  1  0  0  0  0
 13 18  1  0  0  0  0
 15 17  1  0  0  0  0
 15 23  1  0  0  0  0
 16 20  2  0  0  0  0
 16 24  1  0  0  0  0
 17 18  2  0  0  0  0
 18 25  1  0  0  0  0
 19 21  2  0  0  0  0
 19 26  1  0  0  0  0
 20 21  1  0  0  0  0
 20 27  1  0  0  0  0
 22 30  1  0  0  0  0
 22 31  1  0  0  0  0
 22 32  1  0  0  0  0
M  END
>  <PUBCHEM_COMPOUND_CID>
5487671

>  <PUBCHEM_COMPOUND_CANONICALIZED>
1

>  <PUBCHEM_CACTVS_COMPLEXITY>
454

>  <PUBCHEM_CACTVS_HBOND_ACCEPTOR>
6

>  <PUBCHEM_CACTVS_HBOND_DONOR>
2

>  <PUBCHEM_CACTVS_ROTATABLE_BOND>
1

>  <PUBCHEM_CACTVS_SUBSKEYS>
AAADccB4OAAAAAAAAAAAAAAAAAAAASAAAAA0YIAAAAAAAEiR9AAAGgAACAAADASAmAIyDsAABkCIAqDSCAACCAAkIAAIiAEGCMgMJzaONRqCe2Cl4BUIuYfL7PzOoAAACAAIAABAAAAQABAAAAAAAAAAAA==

>  <PUBCHEM_IUPAC_OPENEYE_NAME>
3,7-dihydroxy-9-methoxy-benzofuro[3,2-c]chromen-6-one

>  <PUBCHEM_IUPAC_CAS_NAME>
3,7-dihydroxy-9-methoxy-6-benzofuro[3,2-c][1]benzopyranone

>  <PUBCHEM_IUPAC_NAME>
3,7-dihydroxy-9-methoxy-[1]benzofuro[3,2-c]chromen-6-one

>  <PUBCHEM_IUPAC_SYSTEMATIC_NAME>
9-methoxy-3,7-bis(oxidanyl)-[1]benzofuro[3,2-c]chromen-6-one

>  <PUBCHEM_IUPAC_TRADITIONAL_NAME>
3,7-dihydroxy-9-methoxy-benzofuro[3,2-c]chromen-6-one

>  <PUBCHEM_IUPAC_INCHI>
InChI=1S/C16H10O6/c1-20-8-5-10(18)13-12(6-8)21-15-9-3-2-7(17)4-11(9)22-16(19)14(13)15/h2-6,17-18H,1H3

>  <PUBCHEM_IUPAC_INCHIKEY>
YFVNQUXNYCREJW-UHFFFAOYSA-N

>  <PUBCHEM_XLOGP3_AA>
2.7

>  <PUBCHEM_EXACT_MASS>
298.048

>  <PUBCHEM_MOLECULAR_FORMULA>
C16H10O6

>  <PUBCHEM_MOLECULAR_WEIGHT>
298.25

>  <PUBCHEM_OPENEYE_CAN_SMILES>
COC1=CC(=C2C(=C1)OC3=C2C(=O)OC4=C3C=CC(=C4)O)O

>  <PUBCHEM_OPENEYE_ISO_SMILES>
COC1=CC(=C2C(=C1)OC3=C2C(=O)OC4=C3C=CC(=C4)O)O

>  <PUBCHEM_CACTVS_TPSA>
89.1

>  <PUBCHEM_MONOISOTOPIC_WEIGHT>
298.048

>  <PUBCHEM_TOTAL_CHARGE>
0

>  <PUBCHEM_HEAVY_ATOM_COUNT>
22

>  <PUBCHEM_ATOM_DEF_STEREO_COUNT>
0

>  <PUBCHEM_ATOM_UDEF_STEREO_COUNT>
0

>  <PUBCHEM_BOND_DEF_STEREO_COUNT>
0

>  <PUBCHEM_BOND_UDEF_STEREO_COUNT>
0

>  <PUBCHEM_ISOTOPIC_ATOM_COUNT>
0

>  <PUBCHEM_COMPONENT_COUNT>
1

>  <PUBCHEM_CACTVS_TAUTO_COUNT>
12

>  <PUBCHEM_COORDINATE_TYPE>
1
5
255

>  <PUBCHEM_BONDANNOTATIONS>
1  10  8
1  9  8
10  15  8
11  12  8
11  16  8
12  19  8
13  18  8
15  17  8
16  20  8
17  18  8
19  21  8
2  12  8
2  14  8
20  21  8
7  14  8
7  8  8
7  9  8
8  10  8
8  13  8
9  11  8

$$$$
