5488919
 OpenBabel06101807152D

 34 37  0  0  0  0  0  0  0  0999 V2000
    6.3981   -0.5314    0.0000 O   0  0  0  0  0  0  0  0  0  0  0  0
    2.8660    0.4894    0.0000 O   0  0  0  0  0  0  0  0  0  0  0  0
    6.3038   -2.5636    0.0000 O   0  0  0  0  0  0  0  0  0  0  0  0
    2.8611    2.4747    0.0000 O   0  0  0  0  0  0  0  0  0  0  0  0
    4.5632   -3.5095    0.0000 O   0  0  0  0  0  0  0  0  0  0  0  0
    4.5632    3.4884    0.0000 O   0  0  0  0  0  0  0  0  0  0  0  0
    2.0000   -1.0106    0.0000 O   0  0  0  0  0  0  0  0  0  0  0  0
    7.2622    1.0136    0.0000 O   0  0  0  0  0  0  0  0  0  0  0  0
    4.5981    0.4894    0.0000 C   0  0  0  0  0  0  0  0  0  0  0  0
    4.5981   -0.5106    0.0000 C   0  0  0  0  0  0  0  0  0  0  0  0
    3.7320   -1.0106    0.0000 C   0  0  0  0  0  0  0  0  0  0  0  0
    5.4920    1.0241    0.0000 C   0  0  0  0  0  0  0  0  0  0  0  0
    3.7320    0.9894    0.0000 C   0  0  0  0  0  0  0  0  0  0  0  0
    5.4920   -1.0452    0.0000 C   0  0  0  0  0  0  0  0  0  0  0  0
    3.7308    1.9811    0.0000 C   0  0  0  0  0  0  0  0  0  0  0  0
    5.4542   -2.0362    0.0000 C   0  0  0  0  0  0  0  0  0  0  0  0
    5.4542    2.0151    0.0000 C   0  0  0  0  0  0  0  0  0  0  0  0
    3.7308   -2.0023    0.0000 C   0  0  0  0  0  0  0  0  0  0  0  0
    6.3981    0.5102    0.0000 C   0  0  0  0  0  0  0  0  0  0  0  0
    2.8660   -0.5106    0.0000 C   0  0  0  0  0  0  0  0  0  0  0  0
    4.5828   -2.5097    0.0000 C   0  0  0  0  0  0  0  0  0  0  0  0
    4.5828    2.4886    0.0000 C   0  0  0  0  0  0  0  0  0  0  0  0
    2.8537    3.4747    0.0000 C   0  0  0  0  0  0  0  0  0  0  0  0
    6.2718   -3.5631    0.0000 C   0  0  0  0  0  0  0  0  0  0  0  0
    5.9810    2.3421    0.0000 H   0  0  0  0  0  0  0  0  0  0  0  0
    3.1916   -2.3083    0.0000 H   0  0  0  0  0  0  0  0  0  0  0  0
    5.0939    3.8089    0.0000 H   0  0  0  0  0  0  0  0  0  0  0  0
    4.0202   -3.8089    0.0000 H   0  0  0  0  0  0  0  0  0  0  0  0
    3.4737    3.4793    0.0000 H   0  0  0  0  0  0  0  0  0  0  0  0
    2.8491    4.0947    0.0000 H   0  0  0  0  0  0  0  0  0  0  0  0
    2.2337    3.4701    0.0000 H   0  0  0  0  0  0  0  0  0  0  0  0
    5.6522   -3.5433    0.0000 H   0  0  0  0  0  0  0  0  0  0  0  0
    6.2520   -4.1828    0.0000 H   0  0  0  0  0  0  0  0  0  0  0  0
    6.8915   -3.5830    0.0000 H   0  0  0  0  0  0  0  0  0  0  0  0
  1 14  1  0  0  0  0
  1 19  1  0  0  0  0
  2 13  1  0  0  0  0
  2 20  1  0  0  0  0
  3 16  1  0  0  0  0
  3 24  1  0  0  0  0
  4 15  1  0  0  0  0
  4 23  1  0  0  0  0
  5 21  1  0  0  0  0
  5 28  1  0  0  0  0
  6 22  1  0  0  0  0
  6 27  1  0  0  0  0
  7 20  2  0  0  0  0
  8 19  2  0  0  0  0
  9 10  1  0  0  0  0
  9 12  1  0  0  0  0
  9 13  2  0  0  0  0
 10 11  1  0  0  0  0
 10 14  2  0  0  0  0
 11 18  2  0  0  0  0
 11 20  1  0  0  0  0
 12 17  2  0  0  0  0
 12 19  1  0  0  0  0
 13 15  1  0  0  0  0
 14 16  1  0  0  0  0
 15 22  2  0  0  0  0
 16 21  2  0  0  0  0
 17 22  1  0  0  0  0
 17 25  1  0  0  0  0
 18 21  1  0  0  0  0
 18 26  1  0  0  0  0
 23 29  1  0  0  0  0
 23 30  1  0  0  0  0
 23 31  1  0  0  0  0
 24 32  1  0  0  0  0
 24 33  1  0  0  0  0
 24 34  1  0  0  0  0
M  END
>  <PUBCHEM_COMPOUND_CID>
5488919

>  <PUBCHEM_COMPOUND_CANONICALIZED>
1

>  <PUBCHEM_CACTVS_COMPLEXITY>
502

>  <PUBCHEM_CACTVS_HBOND_ACCEPTOR>
8

>  <PUBCHEM_CACTVS_HBOND_DONOR>
2

>  <PUBCHEM_CACTVS_ROTATABLE_BOND>
2

>  <PUBCHEM_CACTVS_SUBSKEYS>
AAADccB4PAAAAAAAAAAAAAAAAAAAAAAAAAA0aIEAAAAAAACRQAAAGgAACAAADASAmAIyDoAABgCIAiDSCAACCAAkIAAAiAEGiMgNJzKGNBqCeyOlwBULuYfK7PzOoAABCAAYQABAAAIQADCAAAAAAAAAAA==

>  <PUBCHEM_IUPAC_INCHI>
InChI=1S/C16H10O8/c1-21-11-7(17)3-5-9-10-6(15(19)23-13(9)11)4-8(18)12(22-2)14(10)24-16(5)20/h3-4,17-18H,1-2H3

>  <PUBCHEM_IUPAC_INCHIKEY>
KLAGYIBJNXLDTL-UHFFFAOYSA-N

>  <PUBCHEM_XLOGP3_AA>
1.8

>  <PUBCHEM_EXACT_MASS>
330.038

>  <PUBCHEM_MOLECULAR_FORMULA>
C16H10O8

>  <PUBCHEM_MOLECULAR_WEIGHT>
330.248

>  <PUBCHEM_OPENEYE_CAN_SMILES>
COC1=C(C=C2C3=C1OC(=O)C4=CC(=C(C(=C43)OC2=O)OC)O)O

>  <PUBCHEM_OPENEYE_ISO_SMILES>
COC1=C(C=C2C3=C1OC(=O)C4=CC(=C(C(=C43)OC2=O)OC)O)O

>  <PUBCHEM_CACTVS_TPSA>
112

>  <PUBCHEM_MONOISOTOPIC_WEIGHT>
330.038

>  <PUBCHEM_TOTAL_CHARGE>
0

>  <PUBCHEM_HEAVY_ATOM_COUNT>
24

>  <PUBCHEM_ATOM_DEF_STEREO_COUNT>
0

>  <PUBCHEM_ATOM_UDEF_STEREO_COUNT>
0

>  <PUBCHEM_BOND_DEF_STEREO_COUNT>
0

>  <PUBCHEM_BOND_UDEF_STEREO_COUNT>
0

>  <PUBCHEM_ISOTOPIC_ATOM_COUNT>
0

>  <PUBCHEM_COMPONENT_COUNT>
1

>  <PUBCHEM_CACTVS_TAUTO_COUNT>
10

>  <PUBCHEM_COORDINATE_TYPE>
1
5
255

>  <PUBCHEM_BONDANNOTATIONS>
1  14  8
1  19  8
10  11  8
10  14  8
11  18  8
11  20  8
12  17  8
12  19  8
13  15  8
14  16  8
15  22  8
16  21  8
17  22  8
18  21  8
2  13  8
2  20  8
9  10  8
9  12  8
9  13  8

$$$$
