5489605
 OpenBabel06101807152D

 30 33  0  0  0  0  0  0  0  0999 V2000
    5.6783   -0.7438    0.0000 O   0  0  0  0  0  0  0  0  0  0  0  0
    7.8223    1.3247    0.0000 O   0  0  0  0  0  0  0  0  0  0  0  0
    7.0911   -2.1004    0.0000 O   0  0  0  0  0  0  0  0  0  0  0  0
    6.5352    2.4836    0.0000 O   0  0  0  0  0  0  0  0  0  0  0  0
    2.8182    2.1031    0.0000 O   0  0  0  0  0  0  0  0  0  0  0  0
    2.1888    0.1604    0.0000 O   0  0  0  0  0  0  0  0  0  0  0  0
   10.4619   -1.0195    0.0000 O   0  0  0  0  0  0  0  0  0  0  0  0
    6.1750    0.7894    0.0000 C   0  0  0  0  0  0  0  0  0  0  0  0
    6.4840   -0.1616    0.0000 C   0  0  0  0  0  0  0  0  0  0  0  0
    5.1810    0.7868    0.0000 C   0  0  0  0  0  0  0  0  0  0  0  0
    7.4622   -0.3695    0.0000 C   0  0  0  0  0  0  0  0  0  0  0  0
    4.8746   -0.1588    0.0000 C   0  0  0  0  0  0  0  0  0  0  0  0
    8.1313    0.3736    0.0000 C   0  0  0  0  0  0  0  0  0  0  0  0
    6.8442    1.5326    0.0000 C   0  0  0  0  0  0  0  0  0  0  0  0
    4.4994    1.5664    0.0000 C   0  0  0  0  0  0  0  0  0  0  0  0
    7.7688   -1.3650    0.0000 C   0  0  0  0  0  0  0  0  0  0  0  0
    3.8654   -0.3906    0.0000 C   0  0  0  0  0  0  0  0  0  0  0  0
    9.1534    0.1728    0.0000 C   0  0  0  0  0  0  0  0  0  0  0  0
    3.4851    1.3580    0.0000 C   0  0  0  0  0  0  0  0  0  0  0  0
    3.1660    0.3729    0.0000 C   0  0  0  0  0  0  0  0  0  0  0  0
    8.7859   -1.5894    0.0000 C   0  0  0  0  0  0  0  0  0  0  0  0
    9.4829   -0.8154    0.0000 C   0  0  0  0  0  0  0  0  0  0  0  0
    4.6973    2.1539    0.0000 H   0  0  0  0  0  0  0  0  0  0  0  0
    3.6812   -0.9826    0.0000 H   0  0  0  0  0  0  0  0  0  0  0  0
    9.5629    0.6383    0.0000 H   0  0  0  0  0  0  0  0  0  0  0  0
    8.9753   -2.1798    0.0000 H   0  0  0  0  0  0  0  0  0  0  0  0
    7.2758   -2.6922    0.0000 H   0  0  0  0  0  0  0  0  0  0  0  0
    3.0115    2.6922    0.0000 H   0  0  0  0  0  0  0  0  0  0  0  0
    2.0000   -0.4301    0.0000 H   0  0  0  0  0  0  0  0  0  0  0  0
   10.8749   -0.5572    0.0000 H   0  0  0  0  0  0  0  0  0  0  0  0
  1  9  1  0  0  0  0
  1 12  1  0  0  0  0
  2 13  1  0  0  0  0
  2 14  1  0  0  0  0
  3 16  1  0  0  0  0
  3 27  1  0  0  0  0
  4 14  2  0  0  0  0
  5 19  1  0  0  0  0
  5 28  1  0  0  0  0
  6 20  1  0  0  0  0
  6 29  1  0  0  0  0
  7 22  1  0  0  0  0
  7 30  1  0  0  0  0
  8  9  2  0  0  0  0
  8 10  1  0  0  0  0
  8 14  1  0  0  0  0
  9 11  1  0  0  0  0
 10 12  1  0  0  0  0
 10 15  2  0  0  0  0
 11 13  1  0  0  0  0
 11 16  2  0  0  0  0
 12 17  2  0  0  0  0
 13 18  2  0  0  0  0
 15 19  1  0  0  0  0
 15 23  1  0  0  0  0
 16 21  1  0  0  0  0
 17 20  1  0  0  0  0
 17 24  1  0  0  0  0
 18 22  1  0  0  0  0
 18 25  1  0  0  0  0
 19 20  2  0  0  0  0
 21 22  2  0  0  0  0
 21 26  1  0  0  0  0
M  END
>  <PUBCHEM_COMPOUND_CID>
5489605

>  <PUBCHEM_COMPOUND_CANONICALIZED>
1

>  <PUBCHEM_CACTVS_COMPLEXITY>
469

>  <PUBCHEM_CACTVS_HBOND_ACCEPTOR>
7

>  <PUBCHEM_CACTVS_HBOND_DONOR>
4

>  <PUBCHEM_CACTVS_ROTATABLE_BOND>
0

>  <PUBCHEM_CACTVS_SUBSKEYS>
AAADccBwOAAAAAAAAAAAAAAAAAAAASAAAAA0YIAAAAAAAEiR9AAAGgAACAAADASAmAAwDsAABkCIAqDSCAACCAAkIAAAiAEGiMgNJzaONRqCe2Gl4BUJuYfL7PzOoQABCAAIQABCAAIQABCAAAAAAAAAAA==

>  <PUBCHEM_IUPAC_OPENEYE_NAME>
1,3,8,9-tetrahydroxybenzofuro[3,2-c]chromen-6-one

>  <PUBCHEM_IUPAC_CAS_NAME>
1,3,8,9-tetrahydroxy-6-benzofuro[3,2-c][1]benzopyranone

>  <PUBCHEM_IUPAC_NAME>
1,3,8,9-tetrahydroxy-[1]benzofuro[3,2-c]chromen-6-one

>  <PUBCHEM_IUPAC_SYSTEMATIC_NAME>
1,3,8,9-tetrakis(oxidanyl)-[1]benzofuro[3,2-c]chromen-6-one

>  <PUBCHEM_IUPAC_TRADITIONAL_NAME>
1,3,8,9-tetrahydroxybenzofuro[3,2-c]chromen-6-one

>  <PUBCHEM_IUPAC_INCHI>
InChI=1S/C15H8O7/c16-5-1-9(19)13-11(2-5)22-15(20)12-6-3-7(17)8(18)4-10(6)21-14(12)13/h1-4,16-19H

>  <PUBCHEM_IUPAC_INCHIKEY>
LUTYTNLPIUCKBJ-UHFFFAOYSA-N

>  <PUBCHEM_XLOGP3_AA>
2.1

>  <PUBCHEM_EXACT_MASS>
300.027

>  <PUBCHEM_MOLECULAR_FORMULA>
C15H8O7

>  <PUBCHEM_MOLECULAR_WEIGHT>
300.222

>  <PUBCHEM_OPENEYE_CAN_SMILES>
C1=C(C=C2C(=C1O)C3=C(C4=CC(=C(C=C4O3)O)O)C(=O)O2)O

>  <PUBCHEM_OPENEYE_ISO_SMILES>
C1=C(C=C2C(=C1O)C3=C(C4=CC(=C(C=C4O3)O)O)C(=O)O2)O

>  <PUBCHEM_CACTVS_TPSA>
120

>  <PUBCHEM_MONOISOTOPIC_WEIGHT>
300.027

>  <PUBCHEM_TOTAL_CHARGE>
0

>  <PUBCHEM_HEAVY_ATOM_COUNT>
22

>  <PUBCHEM_ATOM_DEF_STEREO_COUNT>
0

>  <PUBCHEM_ATOM_UDEF_STEREO_COUNT>
0

>  <PUBCHEM_BOND_DEF_STEREO_COUNT>
0

>  <PUBCHEM_BOND_UDEF_STEREO_COUNT>
0

>  <PUBCHEM_ISOTOPIC_ATOM_COUNT>
0

>  <PUBCHEM_COMPONENT_COUNT>
1

>  <PUBCHEM_CACTVS_TAUTO_COUNT>
132

>  <PUBCHEM_COORDINATE_TYPE>
1
5
255

>  <PUBCHEM_BONDANNOTATIONS>
1  12  8
1  9  8
10  12  8
10  15  8
11  13  8
11  16  8
12  17  8
13  18  8
15  19  8
16  21  8
17  20  8
18  22  8
19  20  8
2  13  8
2  14  8
21  22  8
8  10  8
8  14  8
8  9  8
9  11  8

$$$$
