548927
 OpenBabel06101807152D

 30 29  0  0  1  0  0  0  0  0999 V2000
    2.5369   -0.9050    0.0000 O   0  0  0  0  0  0  0  0  0  0  0  0
    6.0010    1.0950    0.0000 O   0  0  0  0  0  0  0  0  0  0  0  0
    4.2690    0.0950    0.0000 C   0  0  0  0  0  0  0  0  0  0  0  0
    3.4030   -0.4050    0.0000 C   0  0  3  0  0  0  0  0  0  0  0  0
    5.1350   -0.4050    0.0000 C   0  0  0  0  0  0  0  0  0  0  0  0
    6.0010    0.0950    0.0000 C   0  0  3  0  0  0  0  0  0  0  0  0
    3.9030   -1.2710    0.0000 C   0  0  0  0  0  0  0  0  0  0  0  0
    2.9030    0.4610    0.0000 C   0  0  0  0  0  0  0  0  0  0  0  0
    6.8671   -0.4050    0.0000 C   0  0  0  0  0  0  0  0  0  0  0  0
    7.7331    0.0950    0.0000 C   0  0  0  0  0  0  0  0  0  0  0  0
    3.4030    1.3270    0.0000 C   0  0  0  0  0  0  0  0  0  0  0  0
    6.8671   -1.4050    0.0000 C   0  0  0  0  0  0  0  0  0  0  0  0
    4.6675    0.5699    0.0000 H   0  0  0  0  0  0  0  0  0  0  0  0
    3.8705    0.5699    0.0000 H   0  0  0  0  0  0  0  0  0  0  0  0
    4.7365   -0.8799    0.0000 H   0  0  0  0  0  0  0  0  0  0  0  0
    5.5335   -0.8799    0.0000 H   0  0  0  0  0  0  0  0  0  0  0  0
    6.7372    0.5200    0.0000 H   0  0  0  0  0  0  0  0  0  0  0  0
    3.3660   -1.5810    0.0000 H   0  0  0  0  0  0  0  0  0  0  0  0
    4.2130   -1.8080    0.0000 H   0  0  0  0  0  0  0  0  0  0  0  0
    4.4399   -0.9610    0.0000 H   0  0  0  0  0  0  0  0  0  0  0  0
    2.2830    0.4610    0.0000 H   0  0  0  0  0  0  0  0  0  0  0  0
    2.0000   -0.5950    0.0000 H   0  0  0  0  0  0  0  0  0  0  0  0
    8.0431   -0.4419    0.0000 H   0  0  0  0  0  0  0  0  0  0  0  0
    8.2700    0.4050    0.0000 H   0  0  0  0  0  0  0  0  0  0  0  0
    7.4231    0.6319    0.0000 H   0  0  0  0  0  0  0  0  0  0  0  0
    6.5380    1.4050    0.0000 H   0  0  0  0  0  0  0  0  0  0  0  0
    6.3301   -1.7150    0.0000 H   0  0  0  0  0  0  0  0  0  0  0  0
    7.4040   -1.7150    0.0000 H   0  0  0  0  0  0  0  0  0  0  0  0
    4.0230    1.3270    0.0000 H   0  0  0  0  0  0  0  0  0  0  0  0
    3.0930    1.8640    0.0000 H   0  0  0  0  0  0  0  0  0  0  0  0
  1  4  1  0  0  0  0
  1 22  1  0  0  0  0
  2  6  1  0  0  0  0
  2 26  1  0  0  0  0
  3  4  1  0  0  0  0
  3  5  1  0  0  0  0
  3 13  1  0  0  0  0
  3 14  1  0  0  0  0
  4  7  1  0  0  0  0
  4  8  1  0  0  0  0
  5  6  1  0  0  0  0
  5 15  1  0  0  0  0
  5 16  1  0  0  0  0
  6  9  1  0  0  0  0
  6 17  1  0  0  0  0
  7 18  1  0  0  0  0
  7 19  1  0  0  0  0
  7 20  1  0  0  0  0
  8 11  2  0  0  0  0
  8 21  1  0  0  0  0
  9 10  1  0  0  0  0
  9 12  2  0  0  0  0
 10 23  1  0  0  0  0
 10 24  1  0  0  0  0
 10 25  1  0  0  0  0
 11 29  1  0  0  0  0
 11 30  1  0  0  0  0
 12 27  1  0  0  0  0
 12 28  1  0  0  0  0
M  END
>  <PUBCHEM_COMPOUND_CID>
548927

>  <PUBCHEM_COMPOUND_CANONICALIZED>
1

>  <PUBCHEM_CACTVS_COMPLEXITY>
175

>  <PUBCHEM_CACTVS_HBOND_ACCEPTOR>
2

>  <PUBCHEM_CACTVS_HBOND_DONOR>
2

>  <PUBCHEM_CACTVS_ROTATABLE_BOND>
5

>  <PUBCHEM_CACTVS_SUBSKEYS>
AAADceBwMAAAAAAAAAAAAAAAAAAAAAAAAAAAAAAAAAAAAAAAAAAAGgAACAAADFSggAICAAAAAgCAAiBCAAAAAAAgAAAIAAAAAAgAFAIAAQAAQAAEgAAAEAHAwEAMAAAAAAAAAAAAAAAAAAAAAAAAAAAAAA==

>  <PUBCHEM_IUPAC_OPENEYE_NAME>
2,6-dimethylocta-1,7-diene-3,6-diol

>  <PUBCHEM_IUPAC_CAS_NAME>
2,6-dimethylocta-1,7-diene-3,6-diol

>  <PUBCHEM_IUPAC_NAME>
2,6-dimethylocta-1,7-diene-3,6-diol

>  <PUBCHEM_IUPAC_SYSTEMATIC_NAME>
2,6-dimethylocta-1,7-diene-3,6-diol

>  <PUBCHEM_IUPAC_TRADITIONAL_NAME>
2,6-dimethylocta-1,7-diene-3,6-diol

>  <PUBCHEM_IUPAC_INCHI>
InChI=1S/C10H18O2/c1-5-10(4,12)7-6-9(11)8(2)3/h5,9,11-12H,1-2,6-7H2,3-4H3

>  <PUBCHEM_IUPAC_INCHIKEY>
HZHJGFRDKJPQPV-UHFFFAOYSA-N

>  <PUBCHEM_XLOGP3_AA>
1.7

>  <PUBCHEM_EXACT_MASS>
170.131

>  <PUBCHEM_MOLECULAR_FORMULA>
C10H18O2

>  <PUBCHEM_MOLECULAR_WEIGHT>
170.252

>  <PUBCHEM_OPENEYE_CAN_SMILES>
CC(=C)C(CCC(C)(C=C)O)O

>  <PUBCHEM_OPENEYE_ISO_SMILES>
CC(=C)C(CCC(C)(C=C)O)O

>  <PUBCHEM_CACTVS_TPSA>
40.5

>  <PUBCHEM_MONOISOTOPIC_WEIGHT>
170.131

>  <PUBCHEM_TOTAL_CHARGE>
0

>  <PUBCHEM_HEAVY_ATOM_COUNT>
12

>  <PUBCHEM_ATOM_DEF_STEREO_COUNT>
0

>  <PUBCHEM_ATOM_UDEF_STEREO_COUNT>
2

>  <PUBCHEM_BOND_DEF_STEREO_COUNT>
0

>  <PUBCHEM_BOND_UDEF_STEREO_COUNT>
0

>  <PUBCHEM_ISOTOPIC_ATOM_COUNT>
0

>  <PUBCHEM_COMPONENT_COUNT>
1

>  <PUBCHEM_CACTVS_TAUTO_COUNT>
1

>  <PUBCHEM_COORDINATE_TYPE>
1
5
255

>  <PUBCHEM_BONDANNOTATIONS>
4  1  3
6  17  3

$$$$
