5490324
 OpenBabel06101807152D

 57 63  0  0  0  0  0  0  0  0999 V2000
    8.7289    3.1308    0.0000 O   0  0  0  0  0  0  0  0  0  0  0  0
    7.8830    3.6192    0.0000 O   0  0  0  0  0  0  0  0  0  0  0  0
   10.5090    0.1833    0.0000 O   0  0  0  0  0  0  0  0  0  0  0  0
    4.4403    3.6870    0.0000 O   0  0  0  0  0  0  0  0  0  0  0  0
    9.6640   -1.4112    0.0000 O   0  0  0  0  0  0  0  0  0  0  0  0
    3.4819    2.1581    0.0000 O   0  0  0  0  0  0  0  0  0  0  0  0
    8.7703   -3.0169    0.0000 O   0  0  0  0  0  0  0  0  0  0  0  0
    2.5381    0.5812    0.0000 O   0  0  0  0  0  0  0  0  0  0  0  0
    5.1440   -4.0029    0.0000 O   0  0  0  0  0  0  0  0  0  0  0  0
    7.0120    0.1339    0.0000 C   0  0  0  0  0  0  0  0  0  0  0  0
    6.1460    0.6339    0.0000 C   0  0  0  0  0  0  0  0  0  0  0  0
    7.8781    0.6339    0.0000 C   0  0  0  0  0  0  0  0  0  0  0  0
    6.1460    1.6339    0.0000 C   0  0  0  0  0  0  0  0  0  0  0  0
    7.8781    1.6339    0.0000 C   0  0  0  0  0  0  0  0  0  0  0  0
    7.0120    2.1339    0.0000 C   0  0  0  0  0  0  0  0  0  0  0  0
    6.9960   -0.9076    0.0000 C   0  0  0  0  0  0  0  0  0  0  0  0
    5.2521    0.0993    0.0000 C   0  0  0  0  0  0  0  0  0  0  0  0
    8.7881    0.1271    0.0000 C   0  0  0  0  0  0  0  0  0  0  0  0
    5.2521    2.1686    0.0000 C   0  0  0  0  0  0  0  0  0  0  0  0
    7.8940   -1.4353    0.0000 C   0  0  0  0  0  0  0  0  0  0  0  0
    4.3460    0.6131    0.0000 C   0  0  0  0  0  0  0  0  0  0  0  0
    8.7961   -0.9145    0.0000 C   0  0  0  0  0  0  0  0  0  0  0  0
    4.3460    1.6548    0.0000 C   0  0  0  0  0  0  0  0  0  0  0  0
    8.7363    2.1309    0.0000 C   0  0  0  0  0  0  0  0  0  0  0  0
    7.0133    3.1256    0.0000 C   0  0  0  0  0  0  0  0  0  0  0  0
    9.6274    0.6553    0.0000 C   0  0  0  0  0  0  0  0  0  0  0  0
    5.2899    3.1596    0.0000 C   0  0  0  0  0  0  0  0  0  0  0  0
    6.0441   -1.4282    0.0000 C   0  0  0  0  0  0  0  0  0  0  0  0
    5.2772   -0.9854    0.0000 C   0  0  0  0  0  0  0  0  0  0  0  0
    9.6018    1.6467    0.0000 C   0  0  0  0  0  0  0  0  0  0  0  0
    6.1612    3.6331    0.0000 C   0  0  0  0  0  0  0  0  0  0  0  0
    7.9024   -2.5203    0.0000 C   0  0  0  0  0  0  0  0  0  0  0  0
    3.4022    0.0779    0.0000 C   0  0  0  0  0  0  0  0  0  0  0  0
    6.0273   -2.5130    0.0000 C   0  0  0  0  0  0  0  0  0  0  0  0
    4.3460   -1.5423    0.0000 C   0  0  0  0  0  0  0  0  0  0  0  0
    6.9628   -3.0628    0.0000 C   0  0  0  0  0  0  0  0  0  0  0  0
    3.4022   -1.0071    0.0000 C   0  0  0  0  0  0  0  0  0  0  0  0
    5.1556   -3.0030    0.0000 C   0  0  0  0  0  0  0  0  0  0  0  0
    4.3576   -2.5423    0.0000 C   0  0  0  0  0  0  0  0  0  0  0  0
    5.5132   -1.1079    0.0000 H   0  0  0  0  0  0  0  0  0  0  0  0
    5.8200   -1.2850    0.0000 H   0  0  0  0  0  0  0  0  0  0  0  0
   10.1325    1.9672    0.0000 H   0  0  0  0  0  0  0  0  0  0  0  0
    6.1734    4.2530    0.0000 H   0  0  0  0  0  0  0  0  0  0  0  0
    6.9604   -3.6828    0.0000 H   0  0  0  0  0  0  0  0  0  0  0  0
    2.8665   -1.3192    0.0000 H   0  0  0  0  0  0  0  0  0  0  0  0
    4.9503   -2.4180    0.0000 H   0  0  0  0  0  0  0  0  0  0  0  0
    4.5438   -3.1036    0.0000 H   0  0  0  0  0  0  0  0  0  0  0  0
    9.2635    3.4448    0.0000 H   0  0  0  0  0  0  0  0  0  0  0  0
    7.8876    4.2392    0.0000 H   0  0  0  0  0  0  0  0  0  0  0  0
    3.7376   -2.5494    0.0000 H   0  0  0  0  0  0  0  0  0  0  0  0
    4.3647   -3.1622    0.0000 H   0  0  0  0  0  0  0  0  0  0  0  0
    4.9775   -2.5351    0.0000 H   0  0  0  0  0  0  0  0  0  0  0  0
   11.0357    0.5103    0.0000 H   0  0  0  0  0  0  0  0  0  0  0  0
    4.4601    4.3067    0.0000 H   0  0  0  0  0  0  0  0  0  0  0  0
    8.7727   -3.6369    0.0000 H   0  0  0  0  0  0  0  0  0  0  0  0
    2.0000    0.2733    0.0000 H   0  0  0  0  0  0  0  0  0  0  0  0
    4.6035   -4.3067    0.0000 H   0  0  0  0  0  0  0  0  0  0  0  0
  1 24  1  0  0  0  0
  1 48  1  0  0  0  0
  2 25  1  0  0  0  0
  2 49  1  0  0  0  0
  3 26  1  0  0  0  0
  3 53  1  0  0  0  0
  4 27  1  0  0  0  0
  4 54  1  0  0  0  0
  5 22  2  0  0  0  0
  6 23  2  0  0  0  0
  7 32  1  0  0  0  0
  7 55  1  0  0  0  0
  8 33  1  0  0  0  0
  8 56  1  0  0  0  0
  9 38  1  0  0  0  0
  9 57  1  0  0  0  0
 10 11  2  0  0  0  0
 10 12  1  0  0  0  0
 10 16  1  0  0  0  0
 11 13  1  0  0  0  0
 11 17  1  0  0  0  0
 12 14  2  0  0  0  0
 12 18  1  0  0  0  0
 13 15  2  0  0  0  0
 13 19  1  0  0  0  0
 14 15  1  0  0  0  0
 14 24  1  0  0  0  0
 15 25  1  0  0  0  0
 16 20  2  0  0  0  0
 16 28  1  0  0  0  0
 17 21  2  0  0  0  0
 17 29  1  0  0  0  0
 18 22  1  0  0  0  0
 18 26  2  0  0  0  0
 19 23  1  0  0  0  0
 19 27  2  0  0  0  0
 20 22  1  0  0  0  0
 20 32  1  0  0  0  0
 21 23  1  0  0  0  0
 21 33  1  0  0  0  0
 24 30  2  0  0  0  0
 25 31  2  0  0  0  0
 26 30  1  0  0  0  0
 27 31  1  0  0  0  0
 28 34  2  0  0  0  0
 28 40  1  0  0  0  0
 29 35  2  0  0  0  0
 29 41  1  0  0  0  0
 30 42  1  0  0  0  0
 31 43  1  0  0  0  0
 32 36  2  0  0  0  0
 33 37  2  0  0  0  0
 34 36  1  0  0  0  0
 34 38  1  0  0  0  0
 35 37  1  0  0  0  0
 35 39  1  0  0  0  0
 36 44  1  0  0  0  0
 37 45  1  0  0  0  0
 38 46  1  0  0  0  0
 38 47  1  0  0  0  0
 39 50  1  0  0  0  0
 39 51  1  0  0  0  0
 39 52  1  0  0  0  0
M  END
>  <PUBCHEM_COMPOUND_CID>
5490324

>  <PUBCHEM_COMPOUND_CANONICALIZED>
1

>  <PUBCHEM_CACTVS_COMPLEXITY>
1020

>  <PUBCHEM_CACTVS_HBOND_ACCEPTOR>
9

>  <PUBCHEM_CACTVS_HBOND_DONOR>
7

>  <PUBCHEM_CACTVS_ROTATABLE_BOND>
1

>  <PUBCHEM_CACTVS_SUBSKEYS>
AAADceB4PAAAAAAAAAAAAAAAAAAAAAAAAAAwYMGDAAAAAADBVAAAGgAACAAADASgmAIyBsAAAgCIAqBSAAACAAAkIAAAiAEGCMgINzaCFRKAcUAl4BUImQfI7PTO4AADCAAYAADAAAYQADAAAAAAAAAAAA==

>  <PUBCHEM_IUPAC_INCHI>
InChI=1S/C30H18O9/c1-9-2-11-19(13(32)3-9)29(38)25-17(36)6-15(34)23-24-16(35)7-18(37)26-28(24)22(21(11)27(23)25)12-4-10(8-31)5-14(33)20(12)30(26)39/h2-7,31-37H,8H2,1H3

>  <PUBCHEM_IUPAC_INCHIKEY>
QFAPJWSQKUFHAP-UHFFFAOYSA-N

>  <PUBCHEM_XLOGP3_AA>
5.1

>  <PUBCHEM_EXACT_MASS>
522.095

>  <PUBCHEM_MOLECULAR_FORMULA>
C30H18O9

>  <PUBCHEM_MOLECULAR_WEIGHT>
522.465

>  <PUBCHEM_OPENEYE_CAN_SMILES>
CC1=CC(=C2C(=C1)C3=C4C5=CC(=CC(=C5C(=O)C6=C(C=C(C(=C46)C7=C3C(=C(C=C7O)O)C2=O)O)O)O)CO)O

>  <PUBCHEM_OPENEYE_ISO_SMILES>
CC1=CC(=C2C(=C1)C3=C4C5=CC(=CC(=C5C(=O)C6=C(C=C(C(=C46)C7=C3C(=C(C=C7O)O)C2=O)O)O)O)CO)O

>  <PUBCHEM_CACTVS_TPSA>
176

>  <PUBCHEM_MONOISOTOPIC_WEIGHT>
522.095

>  <PUBCHEM_TOTAL_CHARGE>
0

>  <PUBCHEM_HEAVY_ATOM_COUNT>
39

>  <PUBCHEM_ATOM_DEF_STEREO_COUNT>
0

>  <PUBCHEM_ATOM_UDEF_STEREO_COUNT>
0

>  <PUBCHEM_BOND_DEF_STEREO_COUNT>
0

>  <PUBCHEM_BOND_UDEF_STEREO_COUNT>
0

>  <PUBCHEM_ISOTOPIC_ATOM_COUNT>
0

>  <PUBCHEM_COMPONENT_COUNT>
1

>  <PUBCHEM_CACTVS_TAUTO_COUNT>
982

>  <PUBCHEM_COORDINATE_TYPE>
1
5
255

>  <PUBCHEM_BONDANNOTATIONS>
10  11  8
10  12  8
10  16  8
11  13  8
11  17  8
12  14  8
12  18  8
13  15  8
13  19  8
14  15  8
14  24  8
15  25  8
16  20  8
16  28  8
17  21  8
17  29  8
18  22  8
18  26  8
19  23  8
19  27  8
20  22  8
20  32  8
21  23  8
21  33  8
24  30  8
25  31  8
26  30  8
27  31  8
28  34  8
29  35  8
32  36  8
33  37  8
34  36  8
35  37  8

$$$$
