5491385
 OpenBabel06101807152D

 59 62  0  0  1  0  0  0  0  0999 V2000
    5.1350   -1.3813    0.0000 O   0  0  0  0  0  0  0  0  0  0  0  0
    6.8671   -1.3813    0.0000 O   0  0  0  0  0  0  0  0  0  0  0  0
    5.1350   -4.3813    0.0000 O   0  0  0  0  0  0  0  0  0  0  0  0
    3.4030   -3.3813    0.0000 O   0  0  0  0  0  0  0  0  0  0  0  0
    6.8671   -3.3813    0.0000 O   0  0  0  0  0  0  0  0  0  0  0  0
    2.5369   -1.8813    0.0000 O   0  0  0  0  0  0  0  0  0  0  0  0
    7.7331    1.1187    0.0000 O   0  0  0  0  0  0  0  0  0  0  0  0
    5.1350   -0.3813    0.0000 O   0  0  0  0  0  0  0  0  0  0  0  0
    4.2308    1.1156    0.0000 O   0  0  0  0  0  0  0  0  0  0  0  0
    5.9889    4.1880    0.0000 O   0  0  0  0  0  0  0  0  0  0  0  0
   11.1972    0.1187    0.0000 O   0  0  0  0  0  0  0  0  0  0  0  0
   11.1972   -1.8813    0.0000 O   0  0  0  0  0  0  0  0  0  0  0  0
    5.1350   -3.3813    0.0000 C   0  0  1  0  0  0  0  0  0  0  0  0
    4.2690   -2.8813    0.0000 C   0  0  1  0  0  0  0  0  0  0  0  0
    6.0010   -2.8813    0.0000 C   0  0  2  0  0  0  0  0  0  0  0  0
    4.2690   -1.8813    0.0000 C   0  0  1  0  0  0  0  0  0  0  0  0
    6.0010   -1.8813    0.0000 C   0  0  1  0  0  0  0  0  0  0  0  0
    3.4030   -1.3813    0.0000 C   0  0  0  0  0  0  0  0  0  0  0  0
    6.8671   -0.3813    0.0000 C   0  0  0  0  0  0  0  0  0  0  0  0
    7.7331    0.1187    0.0000 C   0  0  0  0  0  0  0  0  0  0  0  0
    6.0010    0.1187    0.0000 C   0  0  0  0  0  0  0  0  0  0  0  0
    6.0010    1.1187    0.0000 C   0  0  0  0  0  0  0  0  0  0  0  0
    6.8671    1.6187    0.0000 C   0  0  0  0  0  0  0  0  0  0  0  0
    8.5991   -0.3813    0.0000 C   0  0  0  0  0  0  0  0  0  0  0  0
    5.0910    1.6256    0.0000 C   0  0  0  0  0  0  0  0  0  0  0  0
    6.8831    2.6602    0.0000 C   0  0  0  0  0  0  0  0  0  0  0  0
    9.4651    0.1187    0.0000 C   0  0  0  0  0  0  0  0  0  0  0  0
    8.5991   -1.3813    0.0000 C   0  0  0  0  0  0  0  0  0  0  0  0
    5.0830    2.6672    0.0000 C   0  0  0  0  0  0  0  0  0  0  0  0
    5.9851    3.1880    0.0000 C   0  0  0  0  0  0  0  0  0  0  0  0
   10.3312   -0.3813    0.0000 C   0  0  0  0  0  0  0  0  0  0  0  0
    9.4651   -1.8813    0.0000 C   0  0  0  0  0  0  0  0  0  0  0  0
   10.3312   -1.3813    0.0000 C   0  0  0  0  0  0  0  0  0  0  0  0
    5.1248    4.6913    0.0000 C   0  0  0  0  0  0  0  0  0  0  0  0
   11.1972    1.1187    0.0000 C   0  0  0  0  0  0  0  0  0  0  0  0
    5.6720   -3.6913    0.0000 H   0  0  0  0  0  0  0  0  0  0  0  0
    4.2690   -3.5013    0.0000 H   0  0  0  0  0  0  0  0  0  0  0  0
    6.5380   -2.5713    0.0000 H   0  0  0  0  0  0  0  0  0  0  0  0
    4.2690   -1.2613    0.0000 H   0  0  0  0  0  0  0  0  0  0  0  0
    6.0010   -1.2613    0.0000 H   0  0  0  0  0  0  0  0  0  0  0  0
    3.8015   -0.9063    0.0000 H   0  0  0  0  0  0  0  0  0  0  0  0
    3.0044   -0.9063    0.0000 H   0  0  0  0  0  0  0  0  0  0  0  0
    4.5981   -4.6913    0.0000 H   0  0  0  0  0  0  0  0  0  0  0  0
    3.4030   -4.0013    0.0000 H   0  0  0  0  0  0  0  0  0  0  0  0
    6.8671   -4.0013    0.0000 H   0  0  0  0  0  0  0  0  0  0  0  0
    2.0000   -1.5713    0.0000 H   0  0  0  0  0  0  0  0  0  0  0  0
    7.4236    2.9640    0.0000 H   0  0  0  0  0  0  0  0  0  0  0  0
    9.4651    0.7387    0.0000 H   0  0  0  0  0  0  0  0  0  0  0  0
    8.0622   -1.6913    0.0000 H   0  0  0  0  0  0  0  0  0  0  0  0
    4.5449    2.9751    0.0000 H   0  0  0  0  0  0  0  0  0  0  0  0
    9.4651   -2.5013    0.0000 H   0  0  0  0  0  0  0  0  0  0  0  0
    3.6904    1.4193    0.0000 H   0  0  0  0  0  0  0  0  0  0  0  0
    5.4369    5.2270    0.0000 H   0  0  0  0  0  0  0  0  0  0  0  0
    4.5891    5.0034    0.0000 H   0  0  0  0  0  0  0  0  0  0  0  0
    4.8128    4.1556    0.0000 H   0  0  0  0  0  0  0  0  0  0  0  0
   11.1972   -2.5013    0.0000 H   0  0  0  0  0  0  0  0  0  0  0  0
   11.8172    1.1187    0.0000 H   0  0  0  0  0  0  0  0  0  0  0  0
   11.1972    1.7387    0.0000 H   0  0  0  0  0  0  0  0  0  0  0  0
   10.5772    1.1187    0.0000 H   0  0  0  0  0  0  0  0  0  0  0  0
  1 16  1  0  0  0  0
  1 17  1  0  0  0  0
  2 19  1  0  0  0  0
  3 43  1  0  0  0  0
  4 44  1  0  0  0  0
  5 45  1  0  0  0  0
  6 18  1  0  0  0  0
  6 46  1  0  0  0  0
  7 20  1  0  0  0  0
  7 23  1  0  0  0  0
  8 21  2  0  0  0  0
  9 25  1  0  0  0  0
  9 52  1  0  0  0  0
 10 30  1  0  0  0  0
 10 34  1  0  0  0  0
 11 31  1  0  0  0  0
 11 35  1  0  0  0  0
 12 33  1  0  0  0  0
 12 56  1  0  0  0  0
 13  3  1  0  0  0  0
 13 14  1  6  0  0  0
 13 36  1  0  0  0  0
 14  4  1  0  0  0  0
 14 16  1  1  0  0  0
 14 37  1  0  0  0  0
 15  5  1  0  0  0  0
 15 13  1  1  0  0  0
 15 38  1  0  0  0  0
 16 18  1  0  0  0  0
 16 39  1  6  0  0  0
 17  2  1  0  0  0  0
 17 15  1  6  0  0  0
 17 40  1  0  0  0  0
 18 41  1  0  0  0  0
 18 42  1  0  0  0  0
 19 20  2  0  0  0  0
 19 21  1  0  0  0  0
 20 24  1  0  0  0  0
 21 22  1  0  0  0  0
 22 23  1  0  0  0  0
 22 25  2  0  0  0  0
 23 26  2  0  0  0  0
 24 27  2  0  0  0  0
 24 28  1  0  0  0  0
 25 29  1  0  0  0  0
 26 30  1  0  0  0  0
 26 47  1  0  0  0  0
 27 31  1  0  0  0  0
 27 48  1  0  0  0  0
 28 32  2  0  0  0  0
 28 49  1  0  0  0  0
 29 30  2  0  0  0  0
 29 50  1  0  0  0  0
 31 33  2  0  0  0  0
 32 33  1  0  0  0  0
 32 51  1  0  0  0  0
 34 53  1  0  0  0  0
 34 54  1  0  0  0  0
 34 55  1  0  0  0  0
 35 57  1  0  0  0  0
 35 58  1  0  0  0  0
 35 59  1  0  0  0  0
M  END
>  <PUBCHEM_COMPOUND_CID>
5491385

>  <PUBCHEM_COMPOUND_CANONICALIZED>
1

>  <PUBCHEM_CACTVS_COMPLEXITY>
789

>  <PUBCHEM_CACTVS_HBOND_ACCEPTOR>
12

>  <PUBCHEM_CACTVS_HBOND_DONOR>
6

>  <PUBCHEM_CACTVS_ROTATABLE_BOND>
6

>  <PUBCHEM_CACTVS_SUBSKEYS>
AAADceB4PAAAAAAAAAAAAAAAAAAAAAAAAAA0YIEAAAAAAACBQAAAGgAACAAADBSwmAMyDoAABgCIAqBSAAICCAAkIAAIiAFGiMgdNzaGNR6ieWOl4BUPuQfI7LzOIAABCAAIQABAAAIQABCAAAAAAAAAAA==

>  <PUBCHEM_IUPAC_OPENEYE_NAME>
5-hydroxy-2-(4-hydroxy-3-methoxy-phenyl)-7-methoxy-3-[(2S,3R,4S,5S,6R)-3,4,5-trihydroxy-6-(hydroxymethyl)tetrahydropyran-2-yl]oxy-chromen-4-one

>  <PUBCHEM_IUPAC_CAS_NAME>
5-hydroxy-2-(4-hydroxy-3-methoxyphenyl)-7-methoxy-3-[[(2S,3R,4S,5S,6R)-3,4,5-trihydroxy-6-(hydroxymethyl)-2-oxanyl]oxy]-1-benzopyran-4-one

>  <PUBCHEM_IUPAC_NAME>
5-hydroxy-2-(4-hydroxy-3-methoxyphenyl)-7-methoxy-3-[(2S,3R,4S,5S,6R)-3,4,5-trihydroxy-6-(hydroxymethyl)oxan-2-yl]oxychromen-4-one

>  <PUBCHEM_IUPAC_SYSTEMATIC_NAME>
3-[(2S,3R,4S,5S,6R)-6-(hydroxymethyl)-3,4,5-tris(oxidanyl)oxan-2-yl]oxy-7-methoxy-2-(3-methoxy-4-oxidanyl-phenyl)-5-oxidanyl-chromen-4-one

>  <PUBCHEM_IUPAC_TRADITIONAL_NAME>
5-hydroxy-2-(4-hydroxy-3-methoxy-phenyl)-7-methoxy-3-[(2S,3R,4S,5S,6R)-3,4,5-trihydroxy-6-methylol-tetrahydropyran-2-yl]oxy-chromone

>  <PUBCHEM_IUPAC_INCHI>
InChI=1S/C23H24O12/c1-31-10-6-12(26)16-14(7-10)33-21(9-3-4-11(25)13(5-9)32-2)22(18(16)28)35-23-20(30)19(29)17(27)15(8-24)34-23/h3-7,15,17,19-20,23-27,29-30H,8H2,1-2H3/t15-,17-,19+,20-,23+/m1/s1

>  <PUBCHEM_IUPAC_INCHIKEY>
NULDUMWEBSEHPR-LNNZMUSMSA-N

>  <PUBCHEM_XLOGP3_AA>
1

>  <PUBCHEM_EXACT_MASS>
492.127

>  <PUBCHEM_MOLECULAR_FORMULA>
C23H24O12

>  <PUBCHEM_MOLECULAR_WEIGHT>
492.433

>  <PUBCHEM_OPENEYE_CAN_SMILES>
COC1=CC(=C2C(=C1)OC(=C(C2=O)OC3C(C(C(C(O3)CO)O)O)O)C4=CC(=C(C=C4)O)OC)O

>  <PUBCHEM_OPENEYE_ISO_SMILES>
COC1=CC(=C2C(=C1)OC(=C(C2=O)O[C@H]3[C@@H]([C@H]([C@@H]([C@H](O3)CO)O)O)O)C4=CC(=C(C=C4)O)OC)O

>  <PUBCHEM_CACTVS_TPSA>
185

>  <PUBCHEM_MONOISOTOPIC_WEIGHT>
492.127

>  <PUBCHEM_TOTAL_CHARGE>
0

>  <PUBCHEM_HEAVY_ATOM_COUNT>
35

>  <PUBCHEM_ATOM_DEF_STEREO_COUNT>
5

>  <PUBCHEM_ATOM_UDEF_STEREO_COUNT>
0

>  <PUBCHEM_BOND_DEF_STEREO_COUNT>
0

>  <PUBCHEM_BOND_UDEF_STEREO_COUNT>
0

>  <PUBCHEM_ISOTOPIC_ATOM_COUNT>
0

>  <PUBCHEM_COMPONENT_COUNT>
1

>  <PUBCHEM_CACTVS_TAUTO_COUNT>
29

>  <PUBCHEM_COORDINATE_TYPE>
1
5
255

>  <PUBCHEM_BONDANNOTATIONS>
16  18  5
19  20  8
19  21  8
17  2  5
21  22  8
22  23  8
22  25  8
23  26  8
24  27  8
24  28  8
25  29  8
26  30  8
27  31  8
28  32  8
29  30  8
13  3  5
31  33  8
32  33  8
14  4  6
15  5  6
7  20  8
7  23  8

$$$$
