5494866
 OpenBabel06101807152D

 43 45  0  0  0  0  0  0  0  0999 V2000
    5.5301   -1.5600    0.0000 O   0  0  0  0  0  0  0  0  0  0  0  0
    9.8602    1.9400    0.0000 O   0  0  0  0  0  0  0  0  0  0  0  0
    5.5301    1.4400    0.0000 O   0  0  0  0  0  0  0  0  0  0  0  0
    3.7817    1.4746    0.0000 O   0  0  0  0  0  0  0  0  0  0  0  0
    2.0000   -1.5842    0.0000 O   0  0  0  0  0  0  0  0  0  0  0  0
    7.2622    0.4400    0.0000 C   0  0  0  0  0  0  0  0  0  0  0  0
    8.9942    0.4400    0.0000 C   0  0  0  0  0  0  0  0  0  0  0  0
    6.3961   -0.0600    0.0000 C   0  0  0  0  0  0  0  0  0  0  0  0
    8.1282   -0.0600    0.0000 C   0  0  0  0  0  0  0  0  0  0  0  0
    9.8602   -0.0600    0.0000 C   0  0  0  0  0  0  0  0  0  0  0  0
    4.6641   -0.0600    0.0000 C   0  0  0  0  0  0  0  0  0  0  0  0
    5.5301    0.4400    0.0000 C   0  0  0  0  0  0  0  0  0  0  0  0
    4.6641   -1.0600    0.0000 C   0  0  0  0  0  0  0  0  0  0  0  0
    8.9942    1.4400    0.0000 C   0  0  0  0  0  0  0  0  0  0  0  0
    7.2622    1.4400    0.0000 C   0  0  0  0  0  0  0  0  0  0  0  0
    8.1282    1.9400    0.0000 C   0  0  0  0  0  0  0  0  0  0  0  0
    6.3961   -1.0600    0.0000 C   0  0  0  0  0  0  0  0  0  0  0  0
    3.7702    0.4747    0.0000 C   0  0  0  0  0  0  0  0  0  0  0  0
    9.8602   -1.0600    0.0000 C   0  0  0  0  0  0  0  0  0  0  0  0
    3.7702   -1.5947    0.0000 C   0  0  0  0  0  0  0  0  0  0  0  0
   10.7263   -1.5600    0.0000 C   0  0  0  0  0  0  0  0  0  0  0  0
    2.8641   -0.0392    0.0000 C   0  0  0  0  0  0  0  0  0  0  0  0
    2.8641   -1.0808    0.0000 C   0  0  0  0  0  0  0  0  0  0  0  0
   10.7263   -2.5600    0.0000 C   0  0  0  0  0  0  0  0  0  0  0  0
   11.5923   -1.0600    0.0000 C   0  0  0  0  0  0  0  0  0  0  0  0
    8.1282   -0.6800    0.0000 H   0  0  0  0  0  0  0  0  0  0  0  0
   10.4708   -0.1677    0.0000 H   0  0  0  0  0  0  0  0  0  0  0  0
   10.0723    0.5226    0.0000 H   0  0  0  0  0  0  0  0  0  0  0  0
    6.7252    1.7500    0.0000 H   0  0  0  0  0  0  0  0  0  0  0  0
    6.9331   -1.3700    0.0000 H   0  0  0  0  0  0  0  0  0  0  0  0
    8.1282    2.5600    0.0000 H   0  0  0  0  0  0  0  0  0  0  0  0
    9.3233   -1.3700    0.0000 H   0  0  0  0  0  0  0  0  0  0  0  0
    3.7773   -2.2146    0.0000 H   0  0  0  0  0  0  0  0  0  0  0  0
    2.3284    0.2729    0.0000 H   0  0  0  0  0  0  0  0  0  0  0  0
   10.1063   -2.5600    0.0000 H   0  0  0  0  0  0  0  0  0  0  0  0
   11.9023   -1.5969    0.0000 H   0  0  0  0  0  0  0  0  0  0  0  0
   12.1292   -0.7500    0.0000 H   0  0  0  0  0  0  0  0  0  0  0  0
   11.2823   -0.5231    0.0000 H   0  0  0  0  0  0  0  0  0  0  0  0
   10.7263   -3.1800    0.0000 H   0  0  0  0  0  0  0  0  0  0  0  0
   11.3463   -2.5600    0.0000 H   0  0  0  0  0  0  0  0  0  0  0  0
    9.8602    2.5600    0.0000 H   0  0  0  0  0  0  0  0  0  0  0  0
    3.2484    1.7908    0.0000 H   0  0  0  0  0  0  0  0  0  0  0  0
    2.0024   -2.2042    0.0000 H   0  0  0  0  0  0  0  0  0  0  0  0
  1 13  1  0  0  0  0
  1 17  1  0  0  0  0
  2 14  1  0  0  0  0
  2 41  1  0  0  0  0
  3 12  2  0  0  0  0
  4 18  1  0  0  0  0
  4 42  1  0  0  0  0
  5 23  1  0  0  0  0
  5 43  1  0  0  0  0
  6  8  1  0  0  0  0
  6  9  2  0  0  0  0
  6 15  1  0  0  0  0
  7  9  1  0  0  0  0
  7 10  1  0  0  0  0
  7 14  2  0  0  0  0
  8 12  1  0  0  0  0
  8 17  2  0  0  0  0
  9 26  1  0  0  0  0
 10 19  1  0  0  0  0
 10 27  1  0  0  0  0
 10 28  1  0  0  0  0
 11 12  1  0  0  0  0
 11 13  1  0  0  0  0
 11 18  2  0  0  0  0
 13 20  2  0  0  0  0
 14 16  1  0  0  0  0
 15 16  2  0  0  0  0
 15 29  1  0  0  0  0
 16 31  1  0  0  0  0
 17 30  1  0  0  0  0
 18 22  1  0  0  0  0
 19 21  2  0  0  0  0
 19 32  1  0  0  0  0
 20 23  1  0  0  0  0
 20 33  1  0  0  0  0
 21 24  1  0  0  0  0
 21 25  1  0  0  0  0
 22 23  2  0  0  0  0
 22 34  1  0  0  0  0
 24 35  1  0  0  0  0
 24 39  1  0  0  0  0
 24 40  1  0  0  0  0
 25 36  1  0  0  0  0
 25 37  1  0  0  0  0
 25 38  1  0  0  0  0
M  END
>  <PUBCHEM_COMPOUND_CID>
5494866

>  <PUBCHEM_COMPOUND_CANONICALIZED>
1

>  <PUBCHEM_CACTVS_COMPLEXITY>
562

>  <PUBCHEM_CACTVS_HBOND_ACCEPTOR>
5

>  <PUBCHEM_CACTVS_HBOND_DONOR>
3

>  <PUBCHEM_CACTVS_ROTATABLE_BOND>
3

>  <PUBCHEM_CACTVS_SUBSKEYS>
AAADceB4OAAAAAAAAAAAAAAAAAAAAAAAAAAwYIAAAAAAAACBQAAAGgAACAAADASgmAIyBoAABgCIAqBSAAACCAAkIAAIiAEGCMgMJzaGNRqAcWAl4BUIuYeI7PzOIAACCAAIAABAAAQQABAAAAAAAAAAAA==

>  <PUBCHEM_IUPAC_OPENEYE_NAME>
5,7-dihydroxy-3-[4-hydroxy-3-(3-methylbut-2-enyl)phenyl]chromen-4-one

>  <PUBCHEM_IUPAC_CAS_NAME>
5,7-dihydroxy-3-[4-hydroxy-3-(3-methylbut-2-enyl)phenyl]-1-benzopyran-4-one

>  <PUBCHEM_IUPAC_NAME>
5,7-dihydroxy-3-[4-hydroxy-3-(3-methylbut-2-enyl)phenyl]chromen-4-one

>  <PUBCHEM_IUPAC_SYSTEMATIC_NAME>
3-[3-(3-methylbut-2-enyl)-4-oxidanyl-phenyl]-5,7-bis(oxidanyl)chromen-4-one

>  <PUBCHEM_IUPAC_TRADITIONAL_NAME>
5,7-dihydroxy-3-[4-hydroxy-3-(3-methylbut-2-enyl)phenyl]chromone

>  <PUBCHEM_IUPAC_INCHI>
InChI=1S/C20H18O5/c1-11(2)3-4-13-7-12(5-6-16(13)22)15-10-25-18-9-14(21)8-17(23)19(18)20(15)24/h3,5-10,21-23H,4H2,1-2H3

>  <PUBCHEM_IUPAC_INCHIKEY>
SWDSVBNAMCDHTF-UHFFFAOYSA-N

>  <PUBCHEM_XLOGP3_AA>
4.6

>  <PUBCHEM_EXACT_MASS>
338.115

>  <PUBCHEM_MOLECULAR_FORMULA>
C20H18O5

>  <PUBCHEM_MOLECULAR_WEIGHT>
338.359

>  <PUBCHEM_OPENEYE_CAN_SMILES>
CC(=CCC1=C(C=CC(=C1)C2=COC3=CC(=CC(=C3C2=O)O)O)O)C

>  <PUBCHEM_OPENEYE_ISO_SMILES>
CC(=CCC1=C(C=CC(=C1)C2=COC3=CC(=CC(=C3C2=O)O)O)O)C

>  <PUBCHEM_CACTVS_TPSA>
87

>  <PUBCHEM_MONOISOTOPIC_WEIGHT>
338.115

>  <PUBCHEM_TOTAL_CHARGE>
0

>  <PUBCHEM_HEAVY_ATOM_COUNT>
25

>  <PUBCHEM_ATOM_DEF_STEREO_COUNT>
0

>  <PUBCHEM_ATOM_UDEF_STEREO_COUNT>
0

>  <PUBCHEM_BOND_DEF_STEREO_COUNT>
0

>  <PUBCHEM_BOND_UDEF_STEREO_COUNT>
0

>  <PUBCHEM_ISOTOPIC_ATOM_COUNT>
0

>  <PUBCHEM_COMPONENT_COUNT>
1

>  <PUBCHEM_CACTVS_TAUTO_COUNT>
36

>  <PUBCHEM_COORDINATE_TYPE>
1
5
255

>  <PUBCHEM_BONDANNOTATIONS>
1  13  8
1  17  8
11  12  8
11  13  8
11  18  8
13  20  8
14  16  8
15  16  8
18  22  8
20  23  8
22  23  8
6  15  8
6  9  8
7  14  8
7  9  8
8  12  8
8  17  8

$$$$
