5497148
 OpenBabel06101807152D

 43 43  0  0  1  0  0  0  0  0999 V2000
   11.0635   -0.9556    0.0000 O   0  0  0  0  0  0  0  0  0  0  0  0
    2.4608   -2.0360    0.0000 O   0  0  0  0  0  0  0  0  0  0  0  0
    3.6197   -3.3231    0.0000 O   0  0  0  0  0  0  0  0  0  0  0  0
    8.4944   -1.2646    0.0000 C   0  0  3  0  0  0  0  0  0  0  0  0
    9.3034   -0.6769    0.0000 C   0  0  3  0  0  0  0  0  0  0  0  0
    7.5434   -0.9556    0.0000 C   0  0  0  0  0  0  0  0  0  0  0  0
    6.8002   -1.6248    0.0000 C   0  0  0  0  0  0  0  0  0  0  0  0
    9.3034    0.3231    0.0000 C   0  0  0  0  0  0  0  0  0  0  0  0
    8.8034   -2.2157    0.0000 C   0  0  0  0  0  0  0  0  0  0  0  0
   10.1124   -1.2646    0.0000 C   0  0  0  0  0  0  0  0  0  0  0  0
    5.8492   -1.3157    0.0000 C   0  0  0  0  0  0  0  0  0  0  0  0
    9.8034   -2.2157    0.0000 C   0  0  0  0  0  0  0  0  0  0  0  0
    5.1060   -1.9849    0.0000 C   0  0  0  0  0  0  0  0  0  0  0  0
   10.1695    0.8231    0.0000 C   0  0  0  0  0  0  0  0  0  0  0  0
    4.1550   -1.6759    0.0000 C   0  0  0  0  0  0  0  0  0  0  0  0
   10.1695    1.8231    0.0000 C   0  0  0  0  0  0  0  0  0  0  0  0
    9.3034    2.3231    0.0000 C   0  0  0  0  0  0  0  0  0  0  0  0
    3.4118   -2.3450    0.0000 C   0  0  0  0  0  0  0  0  0  0  0  0
    9.3034    3.3231    0.0000 C   0  0  0  0  0  0  0  0  0  0  0  0
    7.8934   -1.8657    0.0000 H   0  0  0  0  0  0  0  0  0  0  0  0
   10.0608   -0.2910    0.0000 H   0  0  0  0  0  0  0  0  0  0  0  0
    7.8344   -0.4082    0.0000 H   0  0  0  0  0  0  0  0  0  0  0  0
    7.0548   -0.5739    0.0000 H   0  0  0  0  0  0  0  0  0  0  0  0
    6.5091   -2.1722    0.0000 H   0  0  0  0  0  0  0  0  0  0  0  0
    7.2888   -2.0065    0.0000 H   0  0  0  0  0  0  0  0  0  0  0  0
    9.0914    0.9057    0.0000 H   0  0  0  0  0  0  0  0  0  0  0  0
    8.6928    0.2155    0.0000 H   0  0  0  0  0  0  0  0  0  0  0  0
    8.4390   -2.7173    0.0000 H   0  0  0  0  0  0  0  0  0  0  0  0
    6.1402   -0.7683    0.0000 H   0  0  0  0  0  0  0  0  0  0  0  0
    5.3606   -0.9340    0.0000 H   0  0  0  0  0  0  0  0  0  0  0  0
   10.1679   -2.7173    0.0000 H   0  0  0  0  0  0  0  0  0  0  0  0
    4.8149   -2.5323    0.0000 H   0  0  0  0  0  0  0  0  0  0  0  0
    5.5946   -2.3666    0.0000 H   0  0  0  0  0  0  0  0  0  0  0  0
   10.7064    0.5131    0.0000 H   0  0  0  0  0  0  0  0  0  0  0  0
    4.4460   -1.1284    0.0000 H   0  0  0  0  0  0  0  0  0  0  0  0
    3.6664   -1.2942    0.0000 H   0  0  0  0  0  0  0  0  0  0  0  0
   10.7064    2.1331    0.0000 H   0  0  0  0  0  0  0  0  0  0  0  0
    8.6928    2.4308    0.0000 H   0  0  0  0  0  0  0  0  0  0  0  0
    9.0914    1.7405    0.0000 H   0  0  0  0  0  0  0  0  0  0  0  0
    9.9234    3.3231    0.0000 H   0  0  0  0  0  0  0  0  0  0  0  0
    9.3034    3.9431    0.0000 H   0  0  0  0  0  0  0  0  0  0  0  0
    8.6834    3.3231    0.0000 H   0  0  0  0  0  0  0  0  0  0  0  0
    2.0000   -2.4508    0.0000 H   0  0  0  0  0  0  0  0  0  0  0  0
  1 10  2  0  0  0  0
  2 18  1  0  0  0  0
  2 43  1  0  0  0  0
  3 18  2  0  0  0  0
  4  5  1  0  0  0  0
  4  6  1  0  0  0  0
  4  9  1  0  0  0  0
  4 20  1  0  0  0  0
  5  8  1  0  0  0  0
  5 10  1  0  0  0  0
  5 21  1  0  0  0  0
  6  7  1  0  0  0  0
  6 22  1  0  0  0  0
  6 23  1  0  0  0  0
  7 11  1  0  0  0  0
  7 24  1  0  0  0  0
  7 25  1  0  0  0  0
  8 14  1  0  0  0  0
  8 26  1  0  0  0  0
  8 27  1  0  0  0  0
  9 12  2  0  0  0  0
  9 28  1  0  0  0  0
 10 12  1  0  0  0  0
 11 13  1  0  0  0  0
 11 29  1  0  0  0  0
 11 30  1  0  0  0  0
 12 31  1  0  0  0  0
 13 15  1  0  0  0  0
 13 32  1  0  0  0  0
 13 33  1  0  0  0  0
 14 16  2  0  0  0  0
 14 34  1  0  0  0  0
 15 18  1  0  0  0  0
 15 35  1  0  0  0  0
 15 36  1  0  0  0  0
 16 17  1  0  0  0  0
 16 37  1  0  0  0  0
 17 19  1  0  0  0  0
 17 38  1  0  0  0  0
 17 39  1  0  0  0  0
 19 40  1  0  0  0  0
 19 41  1  0  0  0  0
 19 42  1  0  0  0  0
M  END
>  <PUBCHEM_COMPOUND_CID>
5497148

>  <PUBCHEM_COMPOUND_CANONICALIZED>
1

>  <PUBCHEM_CACTVS_COMPLEXITY>
355

>  <PUBCHEM_CACTVS_HBOND_ACCEPTOR>
3

>  <PUBCHEM_CACTVS_HBOND_DONOR>
1

>  <PUBCHEM_CACTVS_ROTATABLE_BOND>
9

>  <PUBCHEM_CACTVS_SUBSKEYS>
AAADceB4MAAAAAAAAAAAAAAAAAAAAQAAAAAAAAAAAAAAAAAAAAAAGgAACAAADQSAgAACCAAAAgCIAKDSCAAAAAAgAAAICAEAAEgAABIAAQAAQAAEgAAIAYOIyOCOgAAAAAAAAAAAAAAAAAAAAAAAAAAAAA==

>  <PUBCHEM_IUPAC_OPENEYE_NAME>
6-[4-oxo-5-[(Z)-pent-2-enyl]cyclopent-2-en-1-yl]hexanoic acid

>  <PUBCHEM_IUPAC_CAS_NAME>
6-[4-oxo-5-[(Z)-pent-2-enyl]-1-cyclopent-2-enyl]hexanoic acid

>  <PUBCHEM_IUPAC_NAME>
6-[4-oxo-5-[(Z)-pent-2-enyl]cyclopent-2-en-1-yl]hexanoic acid

>  <PUBCHEM_IUPAC_SYSTEMATIC_NAME>
6-[4-oxidanylidene-5-[(Z)-pent-2-enyl]cyclopent-2-en-1-yl]hexanoic acid

>  <PUBCHEM_IUPAC_TRADITIONAL_NAME>
6-[4-keto-5-[(Z)-pent-2-enyl]cyclopent-2-en-1-yl]hexanoic acid

>  <PUBCHEM_IUPAC_INCHI>
InChI=1S/C16H24O3/c1-2-3-5-9-14-13(11-12-15(14)17)8-6-4-7-10-16(18)19/h3,5,11-14H,2,4,6-10H2,1H3,(H,18,19)/b5-3-

>  <PUBCHEM_IUPAC_INCHIKEY>
SZVNKXCDJUBPQO-HYXAFXHYSA-N

>  <PUBCHEM_XLOGP3_AA>
3.6

>  <PUBCHEM_EXACT_MASS>
264.173

>  <PUBCHEM_MOLECULAR_FORMULA>
C16H24O3

>  <PUBCHEM_MOLECULAR_WEIGHT>
264.365

>  <PUBCHEM_OPENEYE_CAN_SMILES>
CCC=CCC1C(C=CC1=O)CCCCCC(=O)O

>  <PUBCHEM_OPENEYE_ISO_SMILES>
CC/C=C\CC1C(C=CC1=O)CCCCCC(=O)O

>  <PUBCHEM_CACTVS_TPSA>
54.4

>  <PUBCHEM_MONOISOTOPIC_WEIGHT>
264.173

>  <PUBCHEM_TOTAL_CHARGE>
0

>  <PUBCHEM_HEAVY_ATOM_COUNT>
19

>  <PUBCHEM_ATOM_DEF_STEREO_COUNT>
0

>  <PUBCHEM_ATOM_UDEF_STEREO_COUNT>
2

>  <PUBCHEM_BOND_DEF_STEREO_COUNT>
1

>  <PUBCHEM_BOND_UDEF_STEREO_COUNT>
0

>  <PUBCHEM_ISOTOPIC_ATOM_COUNT>
0

>  <PUBCHEM_COMPONENT_COUNT>
1

>  <PUBCHEM_CACTVS_TAUTO_COUNT>
10

>  <PUBCHEM_COORDINATE_TYPE>
1
5
255

>  <PUBCHEM_BONDANNOTATIONS>
4  20  3
5  21  3

$$$$
