55463
 OpenBabel06101807152D

 52 56  0  0  0  0  0  0  0  0999 V2000
   10.3655    5.3463    0.0000 F   0  0  0  0  0  0  0  0  0  0  0  0
    6.2619   -3.9522    0.0000 O   0  0  0  0  0  0  0  0  0  0  0  0
    9.7886    1.8438    0.0000 O   0  0  0  0  0  0  0  0  0  0  0  0
    5.6103   -0.2959    0.0000 N   0  0  0  0  0  0  0  0  0  0  0  0
    4.6783   -3.1475    0.0000 N   0  0  0  0  0  0  0  0  0  0  0  0
    4.6783   -4.7570    0.0000 N   0  0  0  0  0  0  0  0  0  0  0  0
    8.9256    1.3505    0.0000 N   0  0  0  0  0  0  0  0  0  0  0  0
    4.9889   -2.1970    0.0000 C   0  0  0  0  0  0  0  0  0  0  0  0
    4.3211   -1.4527    0.0000 C   0  0  0  0  0  0  0  0  0  0  0  0
    5.9674   -1.9908    0.0000 C   0  0  0  0  0  0  0  0  0  0  0  0
    4.6318   -0.5021    0.0000 C   0  0  0  0  0  0  0  0  0  0  0  0
    6.2781   -1.0402    0.0000 C   0  0  0  0  0  0  0  0  0  0  0  0
    5.9209    0.6546    0.0000 C   0  0  0  0  0  0  0  0  0  0  0  0
    3.7320   -3.4522    0.0000 C   0  0  0  0  0  0  0  0  0  0  0  0
    6.8994    0.8608    0.0000 C   0  0  0  0  0  0  0  0  0  0  0  0
    5.2619   -3.9522    0.0000 C   0  0  0  0  0  0  0  0  0  0  0  0
    3.7320   -4.4522    0.0000 C   0  0  0  0  0  0  0  0  0  0  0  0
    7.2101    1.8113    0.0000 C   0  0  0  0  0  0  0  0  0  0  0  0
    2.8660   -2.9522    0.0000 C   0  0  0  0  0  0  0  0  0  0  0  0
    2.8660   -4.9522    0.0000 C   0  0  0  0  0  0  0  0  0  0  0  0
    8.1886    2.0176    0.0000 C   0  0  0  0  0  0  0  0  0  0  0  0
    2.0000   -3.4522    0.0000 C   0  0  0  0  0  0  0  0  0  0  0  0
    2.0000   -4.4522    0.0000 C   0  0  0  0  0  0  0  0  0  0  0  0
    8.5937    2.9253    0.0000 C   0  0  0  0  0  0  0  0  0  0  0  0
    9.5879    2.8174    0.0000 C   0  0  0  0  0  0  0  0  0  0  0  0
    8.1901    3.8403    0.0000 C   0  0  0  0  0  0  0  0  0  0  0  0
   10.1784    3.6244    0.0000 C   0  0  0  0  0  0  0  0  0  0  0  0
    8.7807    4.6473    0.0000 C   0  0  0  0  0  0  0  0  0  0  0  0
    9.7749    4.5393    0.0000 C   0  0  0  0  0  0  0  0  0  0  0  0
    5.4030   -2.6584    0.0000 H   0  0  0  0  0  0  0  0  0  0  0  0
    3.7742   -1.1606    0.0000 H   0  0  0  0  0  0  0  0  0  0  0  0
    3.9385   -1.9406    0.0000 H   0  0  0  0  0  0  0  0  0  0  0  0
    5.9880   -2.6104    0.0000 H   0  0  0  0  0  0  0  0  0  0  0  0
    6.5812   -2.0781    0.0000 H   0  0  0  0  0  0  0  0  0  0  0  0
    4.6112    0.1175    0.0000 H   0  0  0  0  0  0  0  0  0  0  0  0
    4.0179   -0.4148    0.0000 H   0  0  0  0  0  0  0  0  0  0  0  0
    6.8250   -1.3322    0.0000 H   0  0  0  0  0  0  0  0  0  0  0  0
    6.6607   -0.5523    0.0000 H   0  0  0  0  0  0  0  0  0  0  0  0
    5.9004    1.2743    0.0000 H   0  0  0  0  0  0  0  0  0  0  0  0
    5.3071    0.7419    0.0000 H   0  0  0  0  0  0  0  0  0  0  0  0
    6.9200    0.2412    0.0000 H   0  0  0  0  0  0  0  0  0  0  0  0
    7.5132    0.7735    0.0000 H   0  0  0  0  0  0  0  0  0  0  0  0
    7.1895    2.4310    0.0000 H   0  0  0  0  0  0  0  0  0  0  0  0
    6.5963    1.8987    0.0000 H   0  0  0  0  0  0  0  0  0  0  0  0
    4.8709   -5.3463    0.0000 H   0  0  0  0  0  0  0  0  0  0  0  0
    2.8660   -2.3322    0.0000 H   0  0  0  0  0  0  0  0  0  0  0  0
    2.8660   -5.5722    0.0000 H   0  0  0  0  0  0  0  0  0  0  0  0
    1.4631   -3.1422    0.0000 H   0  0  0  0  0  0  0  0  0  0  0  0
    1.4631   -4.7622    0.0000 H   0  0  0  0  0  0  0  0  0  0  0  0
    7.5738    3.9072    0.0000 H   0  0  0  0  0  0  0  0  0  0  0  0
   10.7948    3.5574    0.0000 H   0  0  0  0  0  0  0  0  0  0  0  0
    8.5305    5.2145    0.0000 H   0  0  0  0  0  0  0  0  0  0  0  0
  1 29  1  0  0  0  0
  2 16  2  0  0  0  0
  3  7  1  0  0  0  0
  3 25  1  0  0  0  0
  4 11  1  0  0  0  0
  4 12  1  0  0  0  0
  4 13  1  0  0  0  0
  5  8  1  0  0  0  0
  5 14  1  0  0  0  0
  5 16  1  0  0  0  0
  6 16  1  0  0  0  0
  6 17  1  0  0  0  0
  6 45  1  0  0  0  0
  7 21  2  0  0  0  0
  8  9  1  0  0  0  0
  8 10  1  0  0  0  0
  8 30  1  0  0  0  0
  9 11  1  0  0  0  0
  9 31  1  0  0  0  0
  9 32  1  0  0  0  0
 10 12  1  0  0  0  0
 10 33  1  0  0  0  0
 10 34  1  0  0  0  0
 11 35  1  0  0  0  0
 11 36  1  0  0  0  0
 12 37  1  0  0  0  0
 12 38  1  0  0  0  0
 13 15  1  0  0  0  0
 13 39  1  0  0  0  0
 13 40  1  0  0  0  0
 14 17  1  0  0  0  0
 14 19  2  0  0  0  0
 15 18  1  0  0  0  0
 15 41  1  0  0  0  0
 15 42  1  0  0  0  0
 17 20  2  0  0  0  0
 18 21  1  0  0  0  0
 18 43  1  0  0  0  0
 18 44  1  0  0  0  0
 19 22  1  0  0  0  0
 19 46  1  0  0  0  0
 20 23  1  0  0  0  0
 20 47  1  0  0  0  0
 21 24  1  0  0  0  0
 22 23  2  0  0  0  0
 22 48  1  0  0  0  0
 23 49  1  0  0  0  0
 24 25  2  0  0  0  0
 24 26  1  0  0  0  0
 25 27  1  0  0  0  0
 26 28  2  0  0  0  0
 26 50  1  0  0  0  0
 27 29  2  0  0  0  0
 27 51  1  0  0  0  0
 28 29  1  0  0  0  0
 28 52  1  0  0  0  0
M  END
>  <PUBCHEM_COMPOUND_CID>
55463

>  <PUBCHEM_COMPOUND_CANONICALIZED>
1

>  <PUBCHEM_CACTVS_COMPLEXITY>
585

>  <PUBCHEM_CACTVS_HBOND_ACCEPTOR>
5

>  <PUBCHEM_CACTVS_HBOND_DONOR>
1

>  <PUBCHEM_CACTVS_ROTATABLE_BOND>
5

>  <PUBCHEM_CACTVS_SUBSKEYS>
AAADceB7sQAAAAAAAAAAAAAAAAAAAWLAAAA8YIAAAAAAAFgB9AAAHwAUAAAADCzBngwxxtPQAACpA6RyUgCCAAAlIgAomCE+fNqIZrrA1ZOUMYhu1hvIyeeYyKCOAAAAAAAIACAAAAAAABAAQAAAAAAAAA==

>  <PUBCHEM_IUPAC_OPENEYE_NAME>
3-[1-[3-(6-fluoro-1,2-benzoxazol-3-yl)propyl]-4-piperidyl]-1H-benzimidazol-2-one

>  <PUBCHEM_IUPAC_CAS_NAME>
3-[1-[3-(6-fluoro-1,2-benzoxazol-3-yl)propyl]-4-piperidinyl]-1H-benzimidazol-2-one

>  <PUBCHEM_IUPAC_NAME>
3-[1-[3-(6-fluoro-1,2-benzoxazol-3-yl)propyl]piperidin-4-yl]-1H-benzimidazol-2-one

>  <PUBCHEM_IUPAC_SYSTEMATIC_NAME>
3-[1-[3-(6-fluoranyl-1,2-benzoxazol-3-yl)propyl]piperidin-4-yl]-1H-benzimidazol-2-one

>  <PUBCHEM_IUPAC_TRADITIONAL_NAME>
3-[1-[3-(6-fluoroindoxazen-3-yl)propyl]-4-piperidyl]-1H-benzimidazol-2-one

>  <PUBCHEM_IUPAC_INCHI>
InChI=1S/C22H23FN4O2/c23-15-7-8-17-18(25-29-21(17)14-15)5-3-11-26-12-9-16(10-13-26)27-20-6-2-1-4-19(20)24-22(27)28/h1-2,4,6-8,14,16H,3,5,9-13H2,(H,24,28)

>  <PUBCHEM_IUPAC_INCHIKEY>
VEUGOXRZHKYDED-UHFFFAOYSA-N

>  <PUBCHEM_XLOGP3_AA>
3.6

>  <PUBCHEM_EXACT_MASS>
394.181

>  <PUBCHEM_MOLECULAR_FORMULA>
C22H23FN4O2

>  <PUBCHEM_MOLECULAR_WEIGHT>
394.45

>  <PUBCHEM_OPENEYE_CAN_SMILES>
C1CN(CCC1N2C3=CC=CC=C3NC2=O)CCCC4=NOC5=C4C=CC(=C5)F

>  <PUBCHEM_OPENEYE_ISO_SMILES>
C1CN(CCC1N2C3=CC=CC=C3NC2=O)CCCC4=NOC5=C4C=CC(=C5)F

>  <PUBCHEM_CACTVS_TPSA>
61.6

>  <PUBCHEM_MONOISOTOPIC_WEIGHT>
394.181

>  <PUBCHEM_TOTAL_CHARGE>
0

>  <PUBCHEM_HEAVY_ATOM_COUNT>
29

>  <PUBCHEM_ATOM_DEF_STEREO_COUNT>
0

>  <PUBCHEM_ATOM_UDEF_STEREO_COUNT>
0

>  <PUBCHEM_BOND_DEF_STEREO_COUNT>
0

>  <PUBCHEM_BOND_UDEF_STEREO_COUNT>
0

>  <PUBCHEM_ISOTOPIC_ATOM_COUNT>
0

>  <PUBCHEM_COMPONENT_COUNT>
1

>  <PUBCHEM_CACTVS_TAUTO_COUNT>
2

>  <PUBCHEM_COORDINATE_TYPE>
1
5
255

>  <PUBCHEM_BONDANNOTATIONS>
14  17  8
14  19  8
17  20  8
19  22  8
20  23  8
21  24  8
22  23  8
24  25  8
24  26  8
25  27  8
26  28  8
27  29  8
28  29  8
3  25  8
3  7  8
5  14  8
5  16  8
6  16  8
6  17  8
7  21  8

$$$$
