558135
 OpenBabel06101807152D

 30 31  0  0  1  0  0  0  0  0999 V2000
    2.0000    1.4573    0.0000 O   0  0  0  0  0  0  0  0  0  0  0  0
    3.7320    1.4573    0.0000 O   0  0  0  0  0  0  0  0  0  0  0  0
    3.7320   -1.5427    0.0000 N   0  0  3  0  0  0  0  0  0  0  0  0
    3.7320   -0.5427    0.0000 C   0  0  3  0  0  0  0  0  0  0  0  0
    2.8660   -0.0427    0.0000 C   0  0  3  0  0  0  0  0  0  0  0  0
    4.6260   -0.0080    0.0000 C   0  0  0  0  0  0  0  0  0  0  0  0
    2.0000   -0.5427    0.0000 C   0  0  0  0  0  0  0  0  0  0  0  0
    2.8660   -2.0427    0.0000 C   0  0  0  0  0  0  0  0  0  0  0  0
    4.6260   -2.0773    0.0000 C   0  0  0  0  0  0  0  0  0  0  0  0
    2.0000   -1.5427    0.0000 C   0  0  0  0  0  0  0  0  0  0  0  0
    5.5321   -0.5219    0.0000 C   0  0  0  0  0  0  0  0  0  0  0  0
    5.5321   -1.5635    0.0000 C   0  0  0  0  0  0  0  0  0  0  0  0
    2.8660    0.9573    0.0000 C   0  0  0  0  0  0  0  0  0  0  0  0
    3.7255    0.3073    0.0000 H   0  0  0  0  0  0  0  0  0  0  0  0
    2.1299    0.3823    0.0000 H   0  0  0  0  0  0  0  0  0  0  0  0
    5.0196    0.4710    0.0000 H   0  0  0  0  0  0  0  0  0  0  0  0
    4.2214    0.4618    0.0000 H   0  0  0  0  0  0  0  0  0  0  0  0
    1.7880    0.0399    0.0000 H   0  0  0  0  0  0  0  0  0  0  0  0
    1.3894   -0.6503    0.0000 H   0  0  0  0  0  0  0  0  0  0  0  0
    2.4675   -2.5176    0.0000 H   0  0  0  0  0  0  0  0  0  0  0  0
    3.2646   -2.5176    0.0000 H   0  0  0  0  0  0  0  0  0  0  0  0
    4.2214   -2.5471    0.0000 H   0  0  0  0  0  0  0  0  0  0  0  0
    5.0196   -2.5564    0.0000 H   0  0  0  0  0  0  0  0  0  0  0  0
    1.3894   -1.4350    0.0000 H   0  0  0  0  0  0  0  0  0  0  0  0
    1.7880   -2.1253    0.0000 H   0  0  0  0  0  0  0  0  0  0  0  0
    6.1429   -0.6279    0.0000 H   0  0  0  0  0  0  0  0  0  0  0  0
    5.7411    0.0618    0.0000 H   0  0  0  0  0  0  0  0  0  0  0  0
    5.7411   -2.1472    0.0000 H   0  0  0  0  0  0  0  0  0  0  0  0
    6.1429   -1.4574    0.0000 H   0  0  0  0  0  0  0  0  0  0  0  0
    2.0000    2.0773    0.0000 H   0  0  0  0  0  0  0  0  0  0  0  0
  1 13  1  0  0  0  0
  1 30  1  0  0  0  0
  2 13  2  0  0  0  0
  3  4  1  0  0  0  0
  3  8  1  0  0  0  0
  3  9  1  0  0  0  0
  4  5  1  0  0  0  0
  4  6  1  0  0  0  0
  4 14  1  0  0  0  0
  5  7  1  0  0  0  0
  5 13  1  0  0  0  0
  5 15  1  0  0  0  0
  6 11  1  0  0  0  0
  6 16  1  0  0  0  0
  6 17  1  0  0  0  0
  7 10  1  0  0  0  0
  7 18  1  0  0  0  0
  7 19  1  0  0  0  0
  8 10  1  0  0  0  0
  8 20  1  0  0  0  0
  8 21  1  0  0  0  0
  9 12  1  0  0  0  0
  9 22  1  0  0  0  0
  9 23  1  0  0  0  0
 10 24  1  0  0  0  0
 10 25  1  0  0  0  0
 11 12  1  0  0  0  0
 11 26  1  0  0  0  0
 11 27  1  0  0  0  0
 12 28  1  0  0  0  0
 12 29  1  0  0  0  0
M  END
>  <PUBCHEM_COMPOUND_CID>
558135

>  <PUBCHEM_COMPOUND_CANONICALIZED>
1

>  <PUBCHEM_CACTVS_COMPLEXITY>
205

>  <PUBCHEM_CACTVS_HBOND_ACCEPTOR>
3

>  <PUBCHEM_CACTVS_HBOND_DONOR>
1

>  <PUBCHEM_CACTVS_ROTATABLE_BOND>
1

>  <PUBCHEM_CACTVS_SUBSKEYS>
AAADceByMAAAAAAAAAAAAAAAAAAAAAAAAAAsWAAAAAAAAACwAAAAHgAACAAADSjBgAQACAMAAgAIAACQCAAAAAAAAAAAAAEIAAAAABoAgAAEQAAGAACAAAGY2eKOAAAAAAAAAAAAAAAAAAAAAAAAAAAAAA==

>  <PUBCHEM_IUPAC_OPENEYE_NAME>
2,3,4,6,7,8,9,9a-octahydro-1H-quinolizine-1-carboxylic acid

>  <PUBCHEM_IUPAC_CAS_NAME>
2,3,4,6,7,8,9,9a-octahydro-1H-quinolizine-1-carboxylic acid

>  <PUBCHEM_IUPAC_NAME>
2,3,4,6,7,8,9,9a-octahydro-1H-quinolizine-1-carboxylic acid

>  <PUBCHEM_IUPAC_SYSTEMATIC_NAME>
2,3,4,6,7,8,9,9a-octahydro-1H-quinolizine-1-carboxylic acid

>  <PUBCHEM_IUPAC_TRADITIONAL_NAME>
quinolizidine-1-carboxylic acid

>  <PUBCHEM_IUPAC_INCHI>
InChI=1S/C10H17NO2/c12-10(13)8-4-3-7-11-6-2-1-5-9(8)11/h8-9H,1-7H2,(H,12,13)

>  <PUBCHEM_IUPAC_INCHIKEY>
ZYQJGZAVMHNFNY-UHFFFAOYSA-N

>  <PUBCHEM_XLOGP3_AA>
-1.1

>  <PUBCHEM_EXACT_MASS>
183.126

>  <PUBCHEM_MOLECULAR_FORMULA>
C10H17NO2

>  <PUBCHEM_MOLECULAR_WEIGHT>
183.251

>  <PUBCHEM_OPENEYE_CAN_SMILES>
C1CCN2CCCC(C2C1)C(=O)O

>  <PUBCHEM_OPENEYE_ISO_SMILES>
C1CCN2CCCC(C2C1)C(=O)O

>  <PUBCHEM_CACTVS_TPSA>
40.5

>  <PUBCHEM_MONOISOTOPIC_WEIGHT>
183.126

>  <PUBCHEM_TOTAL_CHARGE>
0

>  <PUBCHEM_HEAVY_ATOM_COUNT>
13

>  <PUBCHEM_ATOM_DEF_STEREO_COUNT>
0

>  <PUBCHEM_ATOM_UDEF_STEREO_COUNT>
2

>  <PUBCHEM_BOND_DEF_STEREO_COUNT>
0

>  <PUBCHEM_BOND_UDEF_STEREO_COUNT>
0

>  <PUBCHEM_ISOTOPIC_ATOM_COUNT>
0

>  <PUBCHEM_COMPONENT_COUNT>
1

>  <PUBCHEM_CACTVS_TAUTO_COUNT>
1

>  <PUBCHEM_COORDINATE_TYPE>
1
5
255

>  <PUBCHEM_BONDANNOTATIONS>
4  14  3
5  15  3

$$$$
