558375
 OpenBabel06101807152D

 18 18  0  0  1  0  0  0  0  0999 V2000
    5.5910    0.1237    0.0000 O   0  0  0  0  0  0  0  0  0  0  0  0
    5.0558   -1.5236    0.0000 O   0  0  0  0  0  0  0  0  0  0  0  0
    3.0878   -0.8242    0.0000 N   0  0  0  0  0  0  0  0  0  0  0  0
    3.8968   -0.2365    0.0000 C   0  0  3  0  0  0  0  0  0  0  0  0
    3.5878    0.7146    0.0000 C   0  0  0  0  0  0  0  0  0  0  0  0
    2.2788   -0.2365    0.0000 C   0  0  0  0  0  0  0  0  0  0  0  0
    2.5878    0.7146    0.0000 C   0  0  0  0  0  0  0  0  0  0  0  0
    4.8479   -0.5455    0.0000 C   0  0  0  0  0  0  0  0  0  0  0  0
    2.0000    1.5236    0.0000 C   0  0  0  0  0  0  0  0  0  0  0  0
    3.9938   -0.8488    0.0000 H   0  0  0  0  0  0  0  0  0  0  0  0
    4.1942    0.8435    0.0000 H   0  0  0  0  0  0  0  0  0  0  0  0
    3.5230    1.3312    0.0000 H   0  0  0  0  0  0  0  0  0  0  0  0
    1.7124    0.0157    0.0000 H   0  0  0  0  0  0  0  0  0  0  0  0
    1.9688   -0.7734    0.0000 H   0  0  0  0  0  0  0  0  0  0  0  0
    3.0878   -1.4442    0.0000 H   0  0  0  0  0  0  0  0  0  0  0  0
    2.2522    2.0900    0.0000 H   0  0  0  0  0  0  0  0  0  0  0  0
    1.3834    1.4588    0.0000 H   0  0  0  0  0  0  0  0  0  0  0  0
    6.1807   -0.0679    0.0000 H   0  0  0  0  0  0  0  0  0  0  0  0
  1  8  1  0  0  0  0
  1 18  1  0  0  0  0
  2  8  2  0  0  0  0
  3  4  1  0  0  0  0
  3  6  1  0  0  0  0
  3 15  1  0  0  0  0
  4  5  1  0  0  0  0
  4  8  1  0  0  0  0
  4 10  1  0  0  0  0
  5  7  1  0  0  0  0
  5 11  1  0  0  0  0
  5 12  1  0  0  0  0
  6  7  1  0  0  0  0
  6 13  1  0  0  0  0
  6 14  1  0  0  0  0
  7  9  2  0  0  0  0
  9 16  1  0  0  0  0
  9 17  1  0  0  0  0
M  END
>  <PUBCHEM_COMPOUND_CID>
558375

>  <PUBCHEM_COMPOUND_CANONICALIZED>
1

>  <PUBCHEM_CACTVS_COMPLEXITY>
153

>  <PUBCHEM_CACTVS_HBOND_ACCEPTOR>
3

>  <PUBCHEM_CACTVS_HBOND_DONOR>
2

>  <PUBCHEM_CACTVS_ROTATABLE_BOND>
1

>  <PUBCHEM_CACTVS_SUBSKEYS>
AAADccBiMAAAAAAAAAAAAAAAAAAAAWAAAAAAAAAAAAAAAAAAAAAAHgAQCAAADCjBgAQACALAAgCIAgDSCACAAAAgAAAAAIGIAAgCABIAgSAEQAAEkACQAACYEQAAAAAAAAAAAAAAAAAAAAAAAAAAAAAAAA==

>  <PUBCHEM_IUPAC_OPENEYE_NAME>
4-methylenepyrrolidine-2-carboxylic acid

>  <PUBCHEM_IUPAC_CAS_NAME>
4-methylene-2-pyrrolidinecarboxylic acid

>  <PUBCHEM_IUPAC_NAME>
4-methylidenepyrrolidine-2-carboxylic acid

>  <PUBCHEM_IUPAC_SYSTEMATIC_NAME>
4-methylidenepyrrolidine-2-carboxylic acid

>  <PUBCHEM_IUPAC_TRADITIONAL_NAME>
4-methyleneproline

>  <PUBCHEM_IUPAC_INCHI>
InChI=1S/C6H9NO2/c1-4-2-5(6(8)9)7-3-4/h5,7H,1-3H2,(H,8,9)

>  <PUBCHEM_IUPAC_INCHIKEY>
PEYQZZMUNYLHII-UHFFFAOYSA-N

>  <PUBCHEM_XLOGP3_AA>
-2.6

>  <PUBCHEM_EXACT_MASS>
127.063

>  <PUBCHEM_MOLECULAR_FORMULA>
C6H9NO2

>  <PUBCHEM_MOLECULAR_WEIGHT>
127.143

>  <PUBCHEM_OPENEYE_CAN_SMILES>
C=C1CC(NC1)C(=O)O

>  <PUBCHEM_OPENEYE_ISO_SMILES>
C=C1CC(NC1)C(=O)O

>  <PUBCHEM_CACTVS_TPSA>
49.3

>  <PUBCHEM_MONOISOTOPIC_WEIGHT>
127.063

>  <PUBCHEM_TOTAL_CHARGE>
0

>  <PUBCHEM_HEAVY_ATOM_COUNT>
9

>  <PUBCHEM_ATOM_DEF_STEREO_COUNT>
0

>  <PUBCHEM_ATOM_UDEF_STEREO_COUNT>
1

>  <PUBCHEM_BOND_DEF_STEREO_COUNT>
0

>  <PUBCHEM_BOND_UDEF_STEREO_COUNT>
0

>  <PUBCHEM_ISOTOPIC_ATOM_COUNT>
0

>  <PUBCHEM_COMPONENT_COUNT>
1

>  <PUBCHEM_CACTVS_TAUTO_COUNT>
1

>  <PUBCHEM_COORDINATE_TYPE>
1
5
255

>  <PUBCHEM_BONDANNOTATIONS>
4  8  3

$$$$
