56671053
 OpenBabel06101807152D

 94 99  0  0  1  0  0  0  0  0999 V2000
   10.3312   -1.7857    0.0000 O   0  0  0  0  0  0  0  0  0  0  0  0
    8.5991    0.2143    0.0000 O   0  0  0  0  0  0  0  0  0  0  0  0
    9.4651   -3.2857    0.0000 O   0  0  0  0  0  0  0  0  0  0  0  0
    6.0010   -0.2857    0.0000 O   0  0  0  0  0  0  0  0  0  0  0  0
    8.5991   -2.7857    0.0000 O   0  0  0  0  0  0  0  0  0  0  0  0
   10.3312    0.2143    0.0000 O   0  0  0  0  0  0  0  0  0  0  0  0
    6.8671   -1.7857    0.0000 O   0  0  0  0  0  0  0  0  0  0  0  0
    5.1350    1.2143    0.0000 O   0  0  0  0  0  0  0  0  0  0  0  0
   12.0632   -2.7857    0.0000 O   0  0  0  0  0  0  0  0  0  0  0  0
   12.0632   -4.7857    0.0000 O   0  0  0  0  0  0  0  0  0  0  0  0
   10.3312   -5.7857    0.0000 O   0  0  0  0  0  0  0  0  0  0  0  0
    4.2690   -1.2857    0.0000 O   0  0  0  0  0  0  0  0  0  0  0  0
    2.5369   -0.2857    0.0000 O   0  0  0  0  0  0  0  0  0  0  0  0
    2.5369    1.7143    0.0000 O   0  0  0  0  0  0  0  0  0  0  0  0
    7.7331   -4.2857    0.0000 O   0  0  0  0  0  0  0  0  0  0  0  0
   11.1972    2.7143    0.0000 O   0  3  0  0  0  0  0  0  0  0  0  0
    7.6950    2.7112    0.0000 O   0  0  0  0  0  0  0  0  0  0  0  0
    9.4530    5.7836    0.0000 O   0  0  0  0  0  0  0  0  0  0  0  0
   14.6613    1.7143    0.0000 O   0  0  0  0  0  0  0  0  0  0  0  0
   14.6613   -0.2857    0.0000 O   0  0  0  0  0  0  0  0  0  0  0  0
    9.4651   -1.2857    0.0000 C   0  0  3  0  0  0  0  0  0  0  0  0
    8.5991   -1.7857    0.0000 C   0  0  3  0  0  0  0  0  0  0  0  0
    7.7331   -1.2857    0.0000 C   0  0  3  0  0  0  0  0  0  0  0  0
    7.7331   -0.2857    0.0000 C   0  0  3  0  0  0  0  0  0  0  0  0
    9.4651   -0.2857    0.0000 C   0  0  3  0  0  0  0  0  0  0  0  0
   10.3312   -2.7857    0.0000 C   0  0  3  0  0  0  0  0  0  0  0  0
   11.1972   -3.2857    0.0000 C   0  0  3  0  0  0  0  0  0  0  0  0
   11.1972   -4.2857    0.0000 C   0  0  3  0  0  0  0  0  0  0  0  0
   10.3312   -4.7857    0.0000 C   0  0  3  0  0  0  0  0  0  0  0  0
    9.4651   -4.2857    0.0000 C   0  0  3  0  0  0  0  0  0  0  0  0
    6.8671    0.2143    0.0000 C   0  0  0  0  0  0  0  0  0  0  0  0
    5.1350    0.2143    0.0000 C   0  0  3  0  0  0  0  0  0  0  0  0
    4.2690   -0.2857    0.0000 C   0  0  3  0  0  0  0  0  0  0  0  0
    3.4030    0.2143    0.0000 C   0  0  3  0  0  0  0  0  0  0  0  0
    3.4030    1.2143    0.0000 C   0  0  3  0  0  0  0  0  0  0  0  0
    4.2690    1.7143    0.0000 C   0  0  3  0  0  0  0  0  0  0  0  0
    8.5991   -4.7857    0.0000 C   0  0  0  0  0  0  0  0  0  0  0  0
    4.2690    2.7143    0.0000 C   0  0  0  0  0  0  0  0  0  0  0  0
   10.3312    1.2143    0.0000 C   0  0  0  0  0  0  0  0  0  0  0  0
   11.1972    1.7143    0.0000 C   0  0  0  0  0  0  0  0  0  0  0  0
    9.4651    1.7143    0.0000 C   0  0  0  0  0  0  0  0  0  0  0  0
    9.4651    2.7143    0.0000 C   0  0  0  0  0  0  0  0  0  0  0  0
   12.0632    1.2143    0.0000 C   0  0  0  0  0  0  0  0  0  0  0  0
   10.3312    3.2143    0.0000 C   0  0  0  0  0  0  0  0  0  0  0  0
    8.5551    3.2212    0.0000 C   0  0  0  0  0  0  0  0  0  0  0  0
   10.3472    4.2558    0.0000 C   0  0  0  0  0  0  0  0  0  0  0  0
   12.9292    1.7143    0.0000 C   0  0  0  0  0  0  0  0  0  0  0  0
   12.0632    0.2143    0.0000 C   0  0  0  0  0  0  0  0  0  0  0  0
    8.5471    4.2628    0.0000 C   0  0  0  0  0  0  0  0  0  0  0  0
    9.4492    4.7836    0.0000 C   0  0  0  0  0  0  0  0  0  0  0  0
   13.7953    1.2143    0.0000 C   0  0  0  0  0  0  0  0  0  0  0  0
   12.9292   -0.2857    0.0000 C   0  0  0  0  0  0  0  0  0  0  0  0
   13.7953    0.2143    0.0000 C   0  0  0  0  0  0  0  0  0  0  0  0
   10.0021   -0.9757    0.0000 H   0  0  0  0  0  0  0  0  0  0  0  0
    8.0622   -2.0957    0.0000 H   0  0  0  0  0  0  0  0  0  0  0  0
    7.1962   -0.9757    0.0000 H   0  0  0  0  0  0  0  0  0  0  0  0
    7.7331    0.3343    0.0000 H   0  0  0  0  0  0  0  0  0  0  0  0
    9.4651    0.3343    0.0000 H   0  0  0  0  0  0  0  0  0  0  0  0
    9.7942   -2.4757    0.0000 H   0  0  0  0  0  0  0  0  0  0  0  0
   11.7341   -3.5957    0.0000 H   0  0  0  0  0  0  0  0  0  0  0  0
   11.1972   -4.9057    0.0000 H   0  0  0  0  0  0  0  0  0  0  0  0
    9.7942   -5.0957    0.0000 H   0  0  0  0  0  0  0  0  0  0  0  0
    8.9282   -3.9757    0.0000 H   0  0  0  0  0  0  0  0  0  0  0  0
    7.2656    0.6893    0.0000 H   0  0  0  0  0  0  0  0  0  0  0  0
    6.4685    0.6893    0.0000 H   0  0  0  0  0  0  0  0  0  0  0  0
    5.1350   -0.4057    0.0000 H   0  0  0  0  0  0  0  0  0  0  0  0
    3.7320   -0.5957    0.0000 H   0  0  0  0  0  0  0  0  0  0  0  0
    2.8660    0.5243    0.0000 H   0  0  0  0  0  0  0  0  0  0  0  0
    3.4030    1.8343    0.0000 H   0  0  0  0  0  0  0  0  0  0  0  0
    4.8059    2.0243    0.0000 H   0  0  0  0  0  0  0  0  0  0  0  0
    8.0622   -3.0957    0.0000 H   0  0  0  0  0  0  0  0  0  0  0  0
    8.2006   -5.2606    0.0000 H   0  0  0  0  0  0  0  0  0  0  0  0
    8.9976   -5.2606    0.0000 H   0  0  0  0  0  0  0  0  0  0  0  0
    6.8671   -2.4057    0.0000 H   0  0  0  0  0  0  0  0  0  0  0  0
   12.6002   -3.0957    0.0000 H   0  0  0  0  0  0  0  0  0  0  0  0
   12.0632   -5.4057    0.0000 H   0  0  0  0  0  0  0  0  0  0  0  0
    9.7942   -6.0957    0.0000 H   0  0  0  0  0  0  0  0  0  0  0  0
    4.8890    2.7143    0.0000 H   0  0  0  0  0  0  0  0  0  0  0  0
    4.2690    3.3343    0.0000 H   0  0  0  0  0  0  0  0  0  0  0  0
    3.6490    2.7143    0.0000 H   0  0  0  0  0  0  0  0  0  0  0  0
    3.7320   -1.5957    0.0000 H   0  0  0  0  0  0  0  0  0  0  0  0
    2.0000    0.0243    0.0000 H   0  0  0  0  0  0  0  0  0  0  0  0
    2.5369    2.3343    0.0000 H   0  0  0  0  0  0  0  0  0  0  0  0
    7.1962   -4.5957    0.0000 H   0  0  0  0  0  0  0  0  0  0  0  0
    8.9282    1.4043    0.0000 H   0  0  0  0  0  0  0  0  0  0  0  0
   10.8877    4.5596    0.0000 H   0  0  0  0  0  0  0  0  0  0  0  0
   12.9292    2.3343    0.0000 H   0  0  0  0  0  0  0  0  0  0  0  0
   11.5263   -0.0957    0.0000 H   0  0  0  0  0  0  0  0  0  0  0  0
    8.0090    4.5707    0.0000 H   0  0  0  0  0  0  0  0  0  0  0  0
   12.9292   -0.9057    0.0000 H   0  0  0  0  0  0  0  0  0  0  0  0
    7.1545    3.0150    0.0000 H   0  0  0  0  0  0  0  0  0  0  0  0
    8.9173    6.0957    0.0000 H   0  0  0  0  0  0  0  0  0  0  0  0
   14.6613    2.3343    0.0000 H   0  0  0  0  0  0  0  0  0  0  0  0
   14.6613   -0.9057    0.0000 H   0  0  0  0  0  0  0  0  0  0  0  0
  1 21  1  0  0  0  0
  1 26  1  0  0  0  0
  2 24  1  0  0  0  0
  2 25  1  0  0  0  0
  3 26  1  0  0  0  0
  3 30  1  0  0  0  0
  4 31  1  0  0  0  0
  4 32  1  0  0  0  0
  5 22  1  0  0  0  0
  5 71  1  0  0  0  0
  6 25  1  0  0  0  0
  6 39  1  0  0  0  0
  7 23  1  0  0  0  0
  7 74  1  0  0  0  0
  8 32  1  0  0  0  0
  8 36  1  0  0  0  0
  9 27  1  0  0  0  0
  9 75  1  0  0  0  0
 10 28  1  0  0  0  0
 10 76  1  0  0  0  0
 11 29  1  0  0  0  0
 11 77  1  0  0  0  0
 12 33  1  0  0  0  0
 12 81  1  0  0  0  0
 13 34  1  0  0  0  0
 13 82  1  0  0  0  0
 14 35  1  0  0  0  0
 14 83  1  0  0  0  0
 15 37  1  0  0  0  0
 15 84  1  0  0  0  0
 16 40  2  0  0  0  0
 16 44  1  0  0  0  0
 17 45  1  0  0  0  0
 17 91  1  0  0  0  0
 18 50  1  0  0  0  0
 18 92  1  0  0  0  0
 19 51  1  0  0  0  0
 19 93  1  0  0  0  0
 20 53  1  0  0  0  0
 20 94  1  0  0  0  0
 21 22  1  0  0  0  0
 21 25  1  0  0  0  0
 21 54  1  0  0  0  0
 22 23  1  0  0  0  0
 22 55  1  0  0  0  0
 23 24  1  0  0  0  0
 23 56  1  0  0  0  0
 24 31  1  0  0  0  0
 24 57  1  0  0  0  0
 25 58  1  0  0  0  0
 26 27  1  0  0  0  0
 26 59  1  0  0  0  0
 27 28  1  0  0  0  0
 27 60  1  0  0  0  0
 28 29  1  0  0  0  0
 28 61  1  0  0  0  0
 29 30  1  0  0  0  0
 29 62  1  0  0  0  0
 30 37  1  0  0  0  0
 30 63  1  0  0  0  0
 31 64  1  0  0  0  0
 31 65  1  0  0  0  0
 32 33  1  0  0  0  0
 32 66  1  0  0  0  0
 33 34  1  0  0  0  0
 33 67  1  0  0  0  0
 34 35  1  0  0  0  0
 34 68  1  0  0  0  0
 35 36  1  0  0  0  0
 35 69  1  0  0  0  0
 36 38  1  0  0  0  0
 36 70  1  0  0  0  0
 37 72  1  0  0  0  0
 37 73  1  0  0  0  0
 38 78  1  0  0  0  0
 38 79  1  0  0  0  0
 38 80  1  0  0  0  0
 39 40  1  0  0  0  0
 39 41  2  0  0  0  0
 40 43  1  0  0  0  0
 41 42  1  0  0  0  0
 41 85  1  0  0  0  0
 42 44  1  0  0  0  0
 42 45  2  0  0  0  0
 43 47  2  0  0  0  0
 43 48  1  0  0  0  0
 44 46  2  0  0  0  0
 45 49  1  0  0  0  0
 46 50  1  0  0  0  0
 46 86  1  0  0  0  0
 47 51  1  0  0  0  0
 47 87  1  0  0  0  0
 48 52  2  0  0  0  0
 48 88  1  0  0  0  0
 49 50  2  0  0  0  0
 49 89  1  0  0  0  0
 51 53  2  0  0  0  0
 52 53  1  0  0  0  0
 52 90  1  0  0  0  0
M  CHG  1  16   1
M  END
>  <PUBCHEM_COMPOUND_CID>
56671053

>  <PUBCHEM_COMPOUND_CANONICALIZED>
1

>  <PUBCHEM_CACTVS_COMPLEXITY>
1170

>  <PUBCHEM_CACTVS_HBOND_ACCEPTOR>
19

>  <PUBCHEM_CACTVS_HBOND_DONOR>
13

>  <PUBCHEM_CACTVS_ROTATABLE_BOND>
9

>  <PUBCHEM_CACTVS_SUBSKEYS>
AAADcfB8PgAAAAAAAAAAAAAAAAAAAAAAAAA0aJEiAAAAAACR9AAAGgAACAAADBSwmAMyDsAABkCIAqBSAAICCAAkIAAIiAFGiMgdNzaGNR6ieWOl4BUPuYfK7PzOIAABCAAIQABAAAIQABCAAAAAAAAAAA==

>  <PUBCHEM_IUPAC_OPENEYE_NAME>
2-[[6-[2-(3,4-dihydroxyphenyl)-5,7-dihydroxy-chromenylium-3-yl]oxy-3,4-dihydroxy-5-[3,4,5-trihydroxy-6-(hydroxymethyl)tetrahydropyran-2-yl]oxy-tetrahydropyran-2-yl]methoxy]-6-methyl-tetrahydropyran-3,4,5-triol

>  <PUBCHEM_IUPAC_CAS_NAME>
2-[[6-[[2-(3,4-dihydroxyphenyl)-5,7-dihydroxy-1-benzopyrylium-3-yl]oxy]-3,4-dihydroxy-5-[[3,4,5-trihydroxy-6-(hydroxymethyl)-2-oxanyl]oxy]-2-oxanyl]methoxy]-6-methyloxane-3,4,5-triol

>  <PUBCHEM_IUPAC_NAME>
2-[[6-[2-(3,4-dihydroxyphenyl)-5,7-dihydroxychromenylium-3-yl]oxy-3,4-dihydroxy-5-[3,4,5-trihydroxy-6-(hydroxymethyl)oxan-2-yl]oxyoxan-2-yl]methoxy]-6-methyloxane-3,4,5-triol

>  <PUBCHEM_IUPAC_SYSTEMATIC_NAME>
2-[[6-[2-[3,4-bis(oxidanyl)phenyl]-5,7-bis(oxidanyl)chromenylium-3-yl]oxy-5-[6-(hydroxymethyl)-3,4,5-tris(oxidanyl)oxan-2-yl]oxy-3,4-bis(oxidanyl)oxan-2-yl]methoxy]-6-methyl-oxane-3,4,5-triol

>  <PUBCHEM_IUPAC_TRADITIONAL_NAME>
2-[[6-[[2-(3,4-dihydroxyphenyl)-5,7-dihydroxy-1-benzopyrylium-3-yl]oxy]-3,4-dihydroxy-5-(3,4,5-trihydroxy-6-methylol-tetrahydropyran-2-yl)oxy-tetrahydropyran-2-yl]methoxy]-6-methyl-tetrahydropyran-3,4,5-triol

>  <PUBCHEM_IUPAC_INCHI>
InChI=1S/C33H40O20/c1-10-21(39)24(42)27(45)31(48-10)47-9-20-23(41)26(44)30(53-32-28(46)25(43)22(40)19(8-34)51-32)33(52-20)50-18-7-13-15(37)5-12(35)6-17(13)49-29(18)11-2-3-14(36)16(38)4-11/h2-7,10,19-28,30-34,39-46H,8-9H2,1H3,(H3-,35,36,37,38)/p+1

>  <PUBCHEM_IUPAC_INCHIKEY>
MSUVUDCULKNUJL-UHFFFAOYSA-O

>  <PUBCHEM_EXACT_MASS>
757.219

>  <PUBCHEM_MOLECULAR_FORMULA>
C33H41O20+

>  <PUBCHEM_MOLECULAR_WEIGHT>
757.671

>  <PUBCHEM_OPENEYE_CAN_SMILES>
CC1C(C(C(C(O1)OCC2C(C(C(C(O2)OC3=C([O+]=C4C=C(C=C(C4=C3)O)O)C5=CC(=C(C=C5)O)O)OC6C(C(C(C(O6)CO)O)O)O)O)O)O)O)O

>  <PUBCHEM_OPENEYE_ISO_SMILES>
CC1C(C(C(C(O1)OCC2C(C(C(C(O2)OC3=C([O+]=C4C=C(C=C(C4=C3)O)O)C5=CC(=C(C=C5)O)O)OC6C(C(C(C(O6)CO)O)O)O)O)O)O)O)O

>  <PUBCHEM_CACTVS_TPSA>
319

>  <PUBCHEM_MONOISOTOPIC_WEIGHT>
757.219

>  <PUBCHEM_TOTAL_CHARGE>
1

>  <PUBCHEM_HEAVY_ATOM_COUNT>
53

>  <PUBCHEM_ATOM_DEF_STEREO_COUNT>
0

>  <PUBCHEM_ATOM_UDEF_STEREO_COUNT>
15

>  <PUBCHEM_BOND_DEF_STEREO_COUNT>
0

>  <PUBCHEM_BOND_UDEF_STEREO_COUNT>
0

>  <PUBCHEM_ISOTOPIC_ATOM_COUNT>
0

>  <PUBCHEM_COMPONENT_COUNT>
1

>  <PUBCHEM_CACTVS_TAUTO_COUNT>
171

>  <PUBCHEM_COORDINATE_TYPE>
1
5
255

>  <PUBCHEM_BONDANNOTATIONS>
21  1  3
26  1  3
28  10  3
29  11  3
33  12  3
34  13  3
35  14  3
16  40  8
16  44  8
24  31  3
30  37  3
36  38  3
39  40  8
39  41  8
32  4  3
41  42  8
42  44  8
42  45  8
43  47  8
43  48  8
44  46  8
45  49  8
46  50  8
47  51  8
48  52  8
49  50  8
22  5  3
51  53  8
52  53  8
25  6  3
23  7  3
27  9  3

$$$$
