566912
 OpenBabel06101807152D

 31 31  0  0  1  0  0  0  0  0999 V2000
    6.2859    0.4629    0.0000 O   0  0  0  0  0  0  0  0  0  0  0  0
    5.1981    2.8108    0.0000 O   0  0  0  0  0  0  0  0  0  0  0  0
    4.3179   -0.2365    0.0000 C   0  0  0  0  0  0  0  0  0  0  0  0
    4.5258    0.7417    0.0000 C   0  0  0  0  0  0  0  0  0  0  0  0
    3.3669   -0.5455    0.0000 C   0  0  0  0  0  0  0  0  0  0  0  0
    5.4769    1.0507    0.0000 C   0  0  3  0  0  0  0  0  0  0  0  0
    3.1590   -1.5236    0.0000 C   0  0  0  0  0  0  0  0  0  0  0  0
    2.2079   -1.8326    0.0000 C   0  0  0  0  0  0  0  0  0  0  0  0
    5.7859    2.0018    0.0000 C   0  0  0  0  0  0  0  0  0  0  0  0
    7.0949    1.0507    0.0000 C   0  0  0  0  0  0  0  0  0  0  0  0
    6.7859    2.0018    0.0000 C   0  0  0  0  0  0  0  0  0  0  0  0
    2.0000   -2.8108    0.0000 C   0  0  0  0  0  0  0  0  0  0  0  0
    8.0460    0.7417    0.0000 C   0  0  0  0  0  0  0  0  0  0  0  0
    4.4042   -0.8504    0.0000 H   0  0  0  0  0  0  0  0  0  0  0  0
    4.9376   -0.2581    0.0000 H   0  0  0  0  0  0  0  0  0  0  0  0
    4.4396    1.3557    0.0000 H   0  0  0  0  0  0  0  0  0  0  0  0
    3.9062    0.7633    0.0000 H   0  0  0  0  0  0  0  0  0  0  0  0
    3.2806    0.0685    0.0000 H   0  0  0  0  0  0  0  0  0  0  0  0
    2.7473   -0.5238    0.0000 H   0  0  0  0  0  0  0  0  0  0  0  0
    5.3439    0.2112    0.0000 H   0  0  0  0  0  0  0  0  0  0  0  0
    3.2453   -2.1376    0.0000 H   0  0  0  0  0  0  0  0  0  0  0  0
    3.7786   -1.5453    0.0000 H   0  0  0  0  0  0  0  0  0  0  0  0
    2.1216   -1.2187    0.0000 H   0  0  0  0  0  0  0  0  0  0  0  0
    1.5883   -1.8110    0.0000 H   0  0  0  0  0  0  0  0  0  0  0  0
    7.1504    2.5034    0.0000 H   0  0  0  0  0  0  0  0  0  0  0  0
    1.3936   -2.6819    0.0000 H   0  0  0  0  0  0  0  0  0  0  0  0
    1.8711   -3.4172    0.0000 H   0  0  0  0  0  0  0  0  0  0  0  0
    2.6064   -2.9397    0.0000 H   0  0  0  0  0  0  0  0  0  0  0  0
    7.8544    0.1520    0.0000 H   0  0  0  0  0  0  0  0  0  0  0  0
    8.6356    0.5501    0.0000 H   0  0  0  0  0  0  0  0  0  0  0  0
    8.2376    1.3314    0.0000 H   0  0  0  0  0  0  0  0  0  0  0  0
  1  6  1  0  0  0  0
  1 10  1  0  0  0  0
  2  9  2  0  0  0  0
  3  4  1  0  0  0  0
  3  5  1  0  0  0  0
  3 14  1  0  0  0  0
  3 15  1  0  0  0  0
  4  6  1  0  0  0  0
  4 16  1  0  0  0  0
  4 17  1  0  0  0  0
  5  7  1  0  0  0  0
  5 18  1  0  0  0  0
  5 19  1  0  0  0  0
  6  9  1  0  0  0  0
  6 20  1  0  0  0  0
  7  8  1  0  0  0  0
  7 21  1  0  0  0  0
  7 22  1  0  0  0  0
  8 12  1  0  0  0  0
  8 23  1  0  0  0  0
  8 24  1  0  0  0  0
  9 11  1  0  0  0  0
 10 11  2  0  0  0  0
 10 13  1  0  0  0  0
 11 25  1  0  0  0  0
 12 26  1  0  0  0  0
 12 27  1  0  0  0  0
 12 28  1  0  0  0  0
 13 29  1  0  0  0  0
 13 30  1  0  0  0  0
 13 31  1  0  0  0  0
M  END
>  <PUBCHEM_COMPOUND_CID>
566912

>  <PUBCHEM_COMPOUND_CANONICALIZED>
1

>  <PUBCHEM_CACTVS_COMPLEXITY>
206

>  <PUBCHEM_CACTVS_HBOND_ACCEPTOR>
2

>  <PUBCHEM_CACTVS_HBOND_DONOR>
0

>  <PUBCHEM_CACTVS_ROTATABLE_BOND>
5

>  <PUBCHEM_CACTVS_SUBSKEYS>
AAADceBwMAAAAAAAAAAAAAAAAAAAAQAAAAAAAAAAAAAAAAAAAAAAGgAAAAAACBSggAICAAAABACIAKBSAAIACAAgIAAACAFAAEgAABIAAQQCAAAEwAAIAQOIyKCAAAAAAAAAAAAAAAAAAAAAAAAAAAAAAA==

>  <PUBCHEM_IUPAC_OPENEYE_NAME>
2-hexyl-5-methyl-furan-3-one

>  <PUBCHEM_IUPAC_CAS_NAME>
2-hexyl-5-methyl-3-furanone

>  <PUBCHEM_IUPAC_NAME>
2-hexyl-5-methylfuran-3-one

>  <PUBCHEM_IUPAC_SYSTEMATIC_NAME>
2-hexyl-5-methyl-furan-3-one

>  <PUBCHEM_IUPAC_TRADITIONAL_NAME>
2-hexyl-5-methyl-furan-3-one

>  <PUBCHEM_IUPAC_INCHI>
InChI=1S/C11H18O2/c1-3-4-5-6-7-11-10(12)8-9(2)13-11/h8,11H,3-7H2,1-2H3

>  <PUBCHEM_IUPAC_INCHIKEY>
AAUWBAWSKVOBFL-UHFFFAOYSA-N

>  <PUBCHEM_XLOGP3_AA>
3.3

>  <PUBCHEM_EXACT_MASS>
182.131

>  <PUBCHEM_MOLECULAR_FORMULA>
C11H18O2

>  <PUBCHEM_MOLECULAR_WEIGHT>
182.263

>  <PUBCHEM_OPENEYE_CAN_SMILES>
CCCCCCC1C(=O)C=C(O1)C

>  <PUBCHEM_OPENEYE_ISO_SMILES>
CCCCCCC1C(=O)C=C(O1)C

>  <PUBCHEM_CACTVS_TPSA>
26.3

>  <PUBCHEM_MONOISOTOPIC_WEIGHT>
182.131

>  <PUBCHEM_TOTAL_CHARGE>
0

>  <PUBCHEM_HEAVY_ATOM_COUNT>
13

>  <PUBCHEM_ATOM_DEF_STEREO_COUNT>
0

>  <PUBCHEM_ATOM_UDEF_STEREO_COUNT>
1

>  <PUBCHEM_BOND_DEF_STEREO_COUNT>
0

>  <PUBCHEM_BOND_UDEF_STEREO_COUNT>
0

>  <PUBCHEM_ISOTOPIC_ATOM_COUNT>
0

>  <PUBCHEM_COMPONENT_COUNT>
1

>  <PUBCHEM_CACTVS_TAUTO_COUNT>
5

>  <PUBCHEM_COORDINATE_TYPE>
1
5
255

>  <PUBCHEM_BONDANNOTATIONS>
6  20  3

$$$$
