568152
 OpenBabel06101807152D

 15 15  0  0  0  0  0  0  0  0999 V2000
    5.4543   -0.7694    0.0000 S   0  0  0  0  0  0  0  0  0  0  0  0
    3.6942   -0.4907    0.0000 O   0  0  0  0  0  0  0  0  0  0  0  0
    5.9543    0.7694    0.0000 N   0  0  0  0  0  0  0  0  0  0  0  0
    2.9511    0.1785    0.0000 C   0  0  0  0  0  0  0  0  0  0  0  0
    2.0000   -0.1305    0.0000 C   0  0  0  0  0  0  0  0  0  0  0  0
    4.6453   -0.1816    0.0000 C   0  0  0  0  0  0  0  0  0  0  0  0
    4.9543    0.7694    0.0000 C   0  0  0  0  0  0  0  0  0  0  0  0
    6.2633   -0.1816    0.0000 C   0  0  0  0  0  0  0  0  0  0  0  0
    3.4396    0.5602    0.0000 H   0  0  0  0  0  0  0  0  0  0  0  0
    2.6600    0.7259    0.0000 H   0  0  0  0  0  0  0  0  0  0  0  0
    1.8084    0.4591    0.0000 H   0  0  0  0  0  0  0  0  0  0  0  0
    1.4103   -0.3221    0.0000 H   0  0  0  0  0  0  0  0  0  0  0  0
    2.1916   -0.7202    0.0000 H   0  0  0  0  0  0  0  0  0  0  0  0
    4.5898    1.2710    0.0000 H   0  0  0  0  0  0  0  0  0  0  0  0
    6.8530   -0.3732    0.0000 H   0  0  0  0  0  0  0  0  0  0  0  0
  1  6  1  0  0  0  0
  1  8  1  0  0  0  0
  2  4  1  0  0  0  0
  2  6  1  0  0  0  0
  3  7  1  0  0  0  0
  3  8  2  0  0  0  0
  4  5  1  0  0  0  0
  4  9  1  0  0  0  0
  4 10  1  0  0  0  0
  5 11  1  0  0  0  0
  5 12  1  0  0  0  0
  5 13  1  0  0  0  0
  6  7  2  0  0  0  0
  7 14  1  0  0  0  0
  8 15  1  0  0  0  0
M  END
>  <PUBCHEM_COMPOUND_CID>
568152

>  <PUBCHEM_COMPOUND_CANONICALIZED>
1

>  <PUBCHEM_CACTVS_COMPLEXITY>
69.4

>  <PUBCHEM_CACTVS_HBOND_ACCEPTOR>
3

>  <PUBCHEM_CACTVS_HBOND_DONOR>
0

>  <PUBCHEM_CACTVS_ROTATABLE_BOND>
2

>  <PUBCHEM_CACTVS_SUBSKEYS>
AAADcYBiIABAAAAAAAAAAAAAAAAAAWAAAAAAAAAAAAAAAAABgAAAHgQAAAAAAADhwgauhRIIFAikABAnRAQA+KBRSDhAQAwLAAAGAAAAAAADCACAAAAQAAAAAAAAAAAAAAAAAAAAAAAAAAAAAAAAAAAAAA==

>  <PUBCHEM_IUPAC_OPENEYE_NAME>
5-ethoxythiazole

>  <PUBCHEM_IUPAC_CAS_NAME>
5-ethoxythiazole

>  <PUBCHEM_IUPAC_NAME>
5-ethoxy-1,3-thiazole

>  <PUBCHEM_IUPAC_SYSTEMATIC_NAME>
5-ethoxy-1,3-thiazole

>  <PUBCHEM_IUPAC_TRADITIONAL_NAME>
5-ethoxythiazole

>  <PUBCHEM_IUPAC_INCHI>
InChI=1S/C5H7NOS/c1-2-7-5-3-6-4-8-5/h3-4H,2H2,1H3

>  <PUBCHEM_IUPAC_INCHIKEY>
CAYSHAOATVWHSR-UHFFFAOYSA-N

>  <PUBCHEM_XLOGP3_AA>
1.6

>  <PUBCHEM_EXACT_MASS>
129.025

>  <PUBCHEM_MOLECULAR_FORMULA>
C5H7NOS

>  <PUBCHEM_MOLECULAR_WEIGHT>
129.177

>  <PUBCHEM_OPENEYE_CAN_SMILES>
CCOC1=CN=CS1

>  <PUBCHEM_OPENEYE_ISO_SMILES>
CCOC1=CN=CS1

>  <PUBCHEM_CACTVS_TPSA>
50.4

>  <PUBCHEM_MONOISOTOPIC_WEIGHT>
129.025

>  <PUBCHEM_TOTAL_CHARGE>
0

>  <PUBCHEM_HEAVY_ATOM_COUNT>
8

>  <PUBCHEM_ATOM_DEF_STEREO_COUNT>
0

>  <PUBCHEM_ATOM_UDEF_STEREO_COUNT>
0

>  <PUBCHEM_BOND_DEF_STEREO_COUNT>
0

>  <PUBCHEM_BOND_UDEF_STEREO_COUNT>
0

>  <PUBCHEM_ISOTOPIC_ATOM_COUNT>
0

>  <PUBCHEM_COMPONENT_COUNT>
1

>  <PUBCHEM_CACTVS_TAUTO_COUNT>
1

>  <PUBCHEM_COORDINATE_TYPE>
1
5
255

>  <PUBCHEM_BONDANNOTATIONS>
1  6  8
1  8  8
3  7  8
3  8  8
6  7  8

$$$$
