5716900
 OpenBabel06101807152D

 39 39  0  0  1  0  0  0  0  0999 V2000
    9.3693   -1.1357    0.0000 O   0  0  0  0  0  0  0  0  0  0  0  0
    2.4608   -1.8559    0.0000 O   0  0  0  0  0  0  0  0  0  0  0  0
    3.6197   -3.1431    0.0000 O   0  0  0  0  0  0  0  0  0  0  0  0
    6.8002   -1.4447    0.0000 C   0  0  1  0  0  0  0  0  0  0  0  0
    7.6092   -0.8569    0.0000 C   0  0  2  0  0  0  0  0  0  0  0  0
    7.1092   -2.3958    0.0000 C   0  0  0  0  0  0  0  0  0  0  0  0
    5.8492   -1.1357    0.0000 C   0  0  0  0  0  0  0  0  0  0  0  0
    8.1092   -2.3958    0.0000 C   0  0  0  0  0  0  0  0  0  0  0  0
    8.4182   -1.4447    0.0000 C   0  0  0  0  0  0  0  0  0  0  0  0
    7.6092    0.1431    0.0000 C   0  0  0  0  0  0  0  0  0  0  0  0
    5.1060   -1.8048    0.0000 C   0  0  0  0  0  0  0  0  0  0  0  0
    8.4753    0.6431    0.0000 C   0  0  0  0  0  0  0  0  0  0  0  0
    4.1550   -1.4958    0.0000 C   0  0  0  0  0  0  0  0  0  0  0  0
    8.4753    1.6431    0.0000 C   0  0  0  0  0  0  0  0  0  0  0  0
    3.4118   -2.1649    0.0000 C   0  0  0  0  0  0  0  0  0  0  0  0
    7.6092    2.1431    0.0000 C   0  0  0  0  0  0  0  0  0  0  0  0
    7.6092    3.1431    0.0000 C   0  0  0  0  0  0  0  0  0  0  0  0
    6.3618   -1.8831    0.0000 H   0  0  0  0  0  0  0  0  0  0  0  0
    7.0568   -0.5754    0.0000 H   0  0  0  0  0  0  0  0  0  0  0  0
    6.5028   -2.5247    0.0000 H   0  0  0  0  0  0  0  0  0  0  0  0
    7.1740   -3.0124    0.0000 H   0  0  0  0  0  0  0  0  0  0  0  0
    6.1402   -0.5883    0.0000 H   0  0  0  0  0  0  0  0  0  0  0  0
    5.3606   -0.7540    0.0000 H   0  0  0  0  0  0  0  0  0  0  0  0
    8.0444   -3.0124    0.0000 H   0  0  0  0  0  0  0  0  0  0  0  0
    8.7157   -2.5247    0.0000 H   0  0  0  0  0  0  0  0  0  0  0  0
    7.3972    0.7257    0.0000 H   0  0  0  0  0  0  0  0  0  0  0  0
    6.9986    0.0354    0.0000 H   0  0  0  0  0  0  0  0  0  0  0  0
    4.8149   -2.3522    0.0000 H   0  0  0  0  0  0  0  0  0  0  0  0
    5.5946   -2.1865    0.0000 H   0  0  0  0  0  0  0  0  0  0  0  0
    9.0122    0.3331    0.0000 H   0  0  0  0  0  0  0  0  0  0  0  0
    4.4460   -0.9484    0.0000 H   0  0  0  0  0  0  0  0  0  0  0  0
    3.6664   -1.1141    0.0000 H   0  0  0  0  0  0  0  0  0  0  0  0
    9.0122    1.9531    0.0000 H   0  0  0  0  0  0  0  0  0  0  0  0
    6.9986    2.2507    0.0000 H   0  0  0  0  0  0  0  0  0  0  0  0
    7.3972    1.5605    0.0000 H   0  0  0  0  0  0  0  0  0  0  0  0
    8.2292    3.1431    0.0000 H   0  0  0  0  0  0  0  0  0  0  0  0
    7.6092    3.7631    0.0000 H   0  0  0  0  0  0  0  0  0  0  0  0
    6.9892    3.1431    0.0000 H   0  0  0  0  0  0  0  0  0  0  0  0
    2.0000   -2.2708    0.0000 H   0  0  0  0  0  0  0  0  0  0  0  0
  1  9  2  0  0  0  0
  2 15  1  0  0  0  0
  2 39  1  0  0  0  0
  3 15  2  0  0  0  0
  4  5  1  6  0  0  0
  4  6  1  0  0  0  0
  4  7  1  0  0  0  0
  4 18  1  0  0  0  0
  5  9  1  0  0  0  0
  5 10  1  0  0  0  0
  5 19  1  6  0  0  0
  6  8  1  0  0  0  0
  6 20  1  0  0  0  0
  6 21  1  0  0  0  0
  7 11  1  0  0  0  0
  7 22  1  0  0  0  0
  7 23  1  0  0  0  0
  8  9  1  0  0  0  0
  8 24  1  0  0  0  0
  8 25  1  0  0  0  0
 10 12  1  0  0  0  0
 10 26  1  0  0  0  0
 10 27  1  0  0  0  0
 11 13  1  0  0  0  0
 11 28  1  0  0  0  0
 11 29  1  0  0  0  0
 12 14  2  0  0  0  0
 12 30  1  0  0  0  0
 13 15  1  0  0  0  0
 13 31  1  0  0  0  0
 13 32  1  0  0  0  0
 14 16  1  0  0  0  0
 14 33  1  0  0  0  0
 16 17  1  0  0  0  0
 16 34  1  0  0  0  0
 16 35  1  0  0  0  0
 17 36  1  0  0  0  0
 17 37  1  0  0  0  0
 17 38  1  0  0  0  0
M  END
>  <PUBCHEM_COMPOUND_CID>
5716900

>  <PUBCHEM_COMPOUND_CANONICALIZED>
1

>  <PUBCHEM_CACTVS_COMPLEXITY>
294

>  <PUBCHEM_CACTVS_HBOND_ACCEPTOR>
3

>  <PUBCHEM_CACTVS_HBOND_DONOR>
1

>  <PUBCHEM_CACTVS_ROTATABLE_BOND>
7

>  <PUBCHEM_CACTVS_SUBSKEYS>
AAADceBwMAAAAAAAAAAAAAAAAAAAAYAAAAAAAAAAAAAAAAAAAAAAGgAACAAADQSAgAACCAAAAgCIAKDSCAAAAAAgAAAICAEAAAgAABIAAQAAQAAEgAAIAAOIyPCOgAAAAAAAAAAAAAAAAAAAAAAACAAAAA==

>  <PUBCHEM_IUPAC_OPENEYE_NAME>
4-[(1R,2R)-3-oxo-2-[(Z)-pent-2-enyl]cyclopentyl]butanoic acid

>  <PUBCHEM_IUPAC_CAS_NAME>
4-[(1R,2R)-3-oxo-2-[(Z)-pent-2-enyl]cyclopentyl]butanoic acid

>  <PUBCHEM_IUPAC_NAME>
4-[(1R,2R)-3-oxo-2-[(Z)-pent-2-enyl]cyclopentyl]butanoic acid

>  <PUBCHEM_IUPAC_SYSTEMATIC_NAME>
4-[(1R,2R)-3-oxidanylidene-2-[(Z)-pent-2-enyl]cyclopentyl]butanoic acid

>  <PUBCHEM_IUPAC_TRADITIONAL_NAME>
4-[(1R,2R)-3-keto-2-[(Z)-pent-2-enyl]cyclopentyl]butyric acid

>  <PUBCHEM_IUPAC_INCHI>
InChI=1S/C14H22O3/c1-2-3-4-7-12-11(9-10-13(12)15)6-5-8-14(16)17/h3-4,11-12H,2,5-10H2,1H3,(H,16,17)/b4-3-/t11-,12-/m1/s1

>  <PUBCHEM_IUPAC_INCHIKEY>
LVQJNKFFJNUFNY-OPVGQWETSA-N

>  <PUBCHEM_XLOGP3_AA>
2.5

>  <PUBCHEM_EXACT_MASS>
238.157

>  <PUBCHEM_MOLECULAR_FORMULA>
C14H22O3

>  <PUBCHEM_MOLECULAR_WEIGHT>
238.327

>  <PUBCHEM_OPENEYE_CAN_SMILES>
CCC=CCC1C(CCC1=O)CCCC(=O)O

>  <PUBCHEM_OPENEYE_ISO_SMILES>
CC/C=C\C[C@@H]1[C@@H](CCC1=O)CCCC(=O)O

>  <PUBCHEM_CACTVS_TPSA>
54.4

>  <PUBCHEM_MONOISOTOPIC_WEIGHT>
238.157

>  <PUBCHEM_TOTAL_CHARGE>
0

>  <PUBCHEM_HEAVY_ATOM_COUNT>
17

>  <PUBCHEM_ATOM_DEF_STEREO_COUNT>
2

>  <PUBCHEM_ATOM_UDEF_STEREO_COUNT>
0

>  <PUBCHEM_BOND_DEF_STEREO_COUNT>
1

>  <PUBCHEM_BOND_UDEF_STEREO_COUNT>
0

>  <PUBCHEM_ISOTOPIC_ATOM_COUNT>
0

>  <PUBCHEM_COMPONENT_COUNT>
1

>  <PUBCHEM_CACTVS_TAUTO_COUNT>
3

>  <PUBCHEM_COORDINATE_TYPE>
1
5
255

>  <PUBCHEM_BONDANNOTATIONS>
4  7  5
5  10  5

$$$$
