57397583
 OpenBabel06101807152D

 92 97  0  0  1  0  0  0  0  0999 V2000
    6.0010   -2.7736    0.0000 O   0  0  0  0  0  0  0  0  0  0  0  0
    6.8671   -0.2736    0.0000 O   0  0  0  0  0  0  0  0  0  0  0  0
    4.2690   -2.7736    0.0000 O   0  0  0  0  0  0  0  0  0  0  0  0
    7.7331   -1.7736    0.0000 O   0  0  0  0  0  0  0  0  0  0  0  0
    4.2690   -1.7736    0.0000 O   0  0  0  0  0  0  0  0  0  0  0  0
    4.2690    0.2264    0.0000 O   0  0  0  0  0  0  0  0  0  0  0  0
    6.0010   -4.7736    0.0000 O   0  0  0  0  0  0  0  0  0  0  0  0
    4.2690   -5.7736    0.0000 O   0  0  0  0  0  0  0  0  0  0  0  0
    2.5369   -4.7736    0.0000 O   0  0  0  0  0  0  0  0  0  0  0  0
   11.2569    3.2749    0.0000 O   0  0  0  0  0  0  0  0  0  0  0  0
    5.1350    1.7264    0.0000 O   0  0  0  0  0  0  0  0  0  0  0  0
   12.1171    1.7715    0.0000 O   0  0  0  0  0  0  0  0  0  0  0  0
   13.8607    4.7648    0.0000 O   0  0  0  0  0  0  0  0  0  0  0  0
   12.1326    5.7715    0.0000 O   0  0  0  0  0  0  0  0  0  0  0  0
   13.8530    2.7648    0.0000 O   0  0  0  0  0  0  0  0  0  0  0  0
   10.3312   -1.2736    0.0000 O   0  0  0  0  0  0  0  0  0  0  0  0
    7.7331    0.2264    0.0000 O   0  0  0  0  0  0  0  0  0  0  0  0
    8.5773    1.7579    0.0000 O   0  0  0  0  0  0  0  0  0  0  0  0
    9.4651   -5.7736    0.0000 O   0  0  0  0  0  0  0  0  0  0  0  0
    6.0010   -1.7736    0.0000 C   0  0  2  0  0  0  0  0  0  0  0  0
    5.1350   -1.2736    0.0000 C   0  0  2  0  0  0  0  0  0  0  0  0
    5.1350   -0.2736    0.0000 C   0  0  2  0  0  0  0  0  0  0  0  0
    5.1350   -3.2736    0.0000 C   0  0  2  0  0  0  0  0  0  0  0  0
    6.8671   -1.2736    0.0000 C   0  0  1  0  0  0  0  0  0  0  0  0
    6.0010    0.2264    0.0000 C   0  0  1  0  0  0  0  0  0  0  0  0
    5.1350   -4.2736    0.0000 C   0  0  1  0  0  0  0  0  0  0  0  0
    4.2690   -4.7736    0.0000 C   0  0  1  0  0  0  0  0  0  0  0  0
    3.4030   -4.2736    0.0000 C   0  0  2  0  0  0  0  0  0  0  0  0
    3.4030   -3.2736    0.0000 C   0  0  2  0  0  0  0  0  0  0  0  0
    6.0010    1.2264    0.0000 C   0  0  0  0  0  0  0  0  0  0  0  0
    2.5369   -2.7736    0.0000 C   0  0  0  0  0  0  0  0  0  0  0  0
   12.9928    4.2682    0.0000 C   0  0  2  0  0  0  0  0  0  0  0  0
   12.1287    4.7715    0.0000 C   0  0  2  0  0  0  0  0  0  0  0  0
   12.9889    3.2682    0.0000 C   0  0  2  0  0  0  0  0  0  0  0  0
   11.2608    4.2748    0.0000 C   0  0  2  0  0  0  0  0  0  0  0  0
   12.1210    2.7715    0.0000 C   0  0  1  0  0  0  0  0  0  0  0  0
    8.5991   -1.2736    0.0000 C   0  0  0  0  0  0  0  0  0  0  0  0
   10.3967    4.7782    0.0000 C   0  0  0  0  0  0  0  0  0  0  0  0
    9.4651   -1.7736    0.0000 C   0  0  0  0  0  0  0  0  0  0  0  0
    8.5991   -0.2736    0.0000 C   0  0  0  0  0  0  0  0  0  0  0  0
    9.4651    0.2264    0.0000 C   0  0  0  0  0  0  0  0  0  0  0  0
   11.2492    1.2749    0.0000 C   0  0  0  0  0  0  0  0  0  0  0  0
   10.3312   -0.2736    0.0000 C   0  0  0  0  0  0  0  0  0  0  0  0
   11.2412    0.2333    0.0000 C   0  0  0  0  0  0  0  0  0  0  0  0
    9.4491    1.2679    0.0000 C   0  0  0  0  0  0  0  0  0  0  0  0
    9.4651   -2.7736    0.0000 C   0  0  0  0  0  0  0  0  0  0  0  0
   10.3471    1.7957    0.0000 C   0  0  0  0  0  0  0  0  0  0  0  0
   10.3312   -3.2736    0.0000 C   0  0  0  0  0  0  0  0  0  0  0  0
    8.5991   -3.2736    0.0000 C   0  0  0  0  0  0  0  0  0  0  0  0
   10.3312   -4.2736    0.0000 C   0  0  0  0  0  0  0  0  0  0  0  0
    8.5991   -4.2736    0.0000 C   0  0  0  0  0  0  0  0  0  0  0  0
    9.4651   -4.7736    0.0000 C   0  0  0  0  0  0  0  0  0  0  0  0
    6.5380   -2.0836    0.0000 H   0  0  0  0  0  0  0  0  0  0  0  0
    5.1350   -1.8936    0.0000 H   0  0  0  0  0  0  0  0  0  0  0  0
    5.1350    0.3464    0.0000 H   0  0  0  0  0  0  0  0  0  0  0  0
    5.1350   -2.6536    0.0000 H   0  0  0  0  0  0  0  0  0  0  0  0
    7.4040   -0.9636    0.0000 H   0  0  0  0  0  0  0  0  0  0  0  0
    6.5380    0.5364    0.0000 H   0  0  0  0  0  0  0  0  0  0  0  0
    5.1350   -4.8936    0.0000 H   0  0  0  0  0  0  0  0  0  0  0  0
    3.7320   -5.0836    0.0000 H   0  0  0  0  0  0  0  0  0  0  0  0
    2.8660   -3.9636    0.0000 H   0  0  0  0  0  0  0  0  0  0  0  0
    3.4030   -2.6536    0.0000 H   0  0  0  0  0  0  0  0  0  0  0  0
    6.6116    1.1188    0.0000 H   0  0  0  0  0  0  0  0  0  0  0  0
    6.2131    1.8090    0.0000 H   0  0  0  0  0  0  0  0  0  0  0  0
    2.8469   -2.2366    0.0000 H   0  0  0  0  0  0  0  0  0  0  0  0
    2.0000   -2.4636    0.0000 H   0  0  0  0  0  0  0  0  0  0  0  0
    2.2269   -3.3105    0.0000 H   0  0  0  0  0  0  0  0  0  0  0  0
    3.7320   -1.4636    0.0000 H   0  0  0  0  0  0  0  0  0  0  0  0
   13.5285    3.9561    0.0000 H   0  0  0  0  0  0  0  0  0  0  0  0
    4.2690    0.8464    0.0000 H   0  0  0  0  0  0  0  0  0  0  0  0
   11.5930    5.0836    0.0000 H   0  0  0  0  0  0  0  0  0  0  0  0
   12.9866    2.6482    0.0000 H   0  0  0  0  0  0  0  0  0  0  0  0
   10.7226    3.9669    0.0000 H   0  0  0  0  0  0  0  0  0  0  0  0
    6.0010   -5.3936    0.0000 H   0  0  0  0  0  0  0  0  0  0  0  0
   11.5829    2.4636    0.0000 H   0  0  0  0  0  0  0  0  0  0  0  0
    3.7320   -6.0836    0.0000 H   0  0  0  0  0  0  0  0  0  0  0  0
    2.0000   -4.4636    0.0000 H   0  0  0  0  0  0  0  0  0  0  0  0
   10.7087    5.3139    0.0000 H   0  0  0  0  0  0  0  0  0  0  0  0
    9.8609    5.0902    0.0000 H   0  0  0  0  0  0  0  0  0  0  0  0
   10.0846    4.2424    0.0000 H   0  0  0  0  0  0  0  0  0  0  0  0
    5.1350    2.3464    0.0000 H   0  0  0  0  0  0  0  0  0  0  0  0
   13.8631    5.3848    0.0000 H   0  0  0  0  0  0  0  0  0  0  0  0
   11.5968    6.0836    0.0000 H   0  0  0  0  0  0  0  0  0  0  0  0
   14.3912    3.0728    0.0000 H   0  0  0  0  0  0  0  0  0  0  0  0
   11.7745   -0.0829    0.0000 H   0  0  0  0  0  0  0  0  0  0  0  0
   10.3447    2.4157    0.0000 H   0  0  0  0  0  0  0  0  0  0  0  0
   10.8681   -2.9636    0.0000 H   0  0  0  0  0  0  0  0  0  0  0  0
    8.0622   -2.9636    0.0000 H   0  0  0  0  0  0  0  0  0  0  0  0
    8.5702    2.3778    0.0000 H   0  0  0  0  0  0  0  0  0  0  0  0
   10.8681   -4.5836    0.0000 H   0  0  0  0  0  0  0  0  0  0  0  0
    8.0622   -4.5836    0.0000 H   0  0  0  0  0  0  0  0  0  0  0  0
   10.0021   -6.0836    0.0000 H   0  0  0  0  0  0  0  0  0  0  0  0
  2 24  1  0  0  0  0
  2 25  1  0  0  0  0
  3 23  1  0  0  0  0
  3 29  1  0  0  0  0
  4 37  1  0  0  0  0
  5 68  1  0  0  0  0
  6 70  1  0  0  0  0
  7 74  1  0  0  0  0
  8 76  1  0  0  0  0
  9 77  1  0  0  0  0
 10 35  1  0  0  0  0
 10 36  1  0  0  0  0
 11 30  1  0  0  0  0
 11 81  1  0  0  0  0
 12 42  1  0  0  0  0
 13 82  1  0  0  0  0
 14 83  1  0  0  0  0
 15 84  1  0  0  0  0
 16 39  1  0  0  0  0
 16 43  1  0  0  0  0
 17 40  2  0  0  0  0
 18 45  1  0  0  0  0
 18 89  1  0  0  0  0
 19 52  1  0  0  0  0
 19 92  1  0  0  0  0
 20  1  1  0  0  0  0
 20 21  1  1  0  0  0
 20 53  1  0  0  0  0
 21  5  1  0  0  0  0
 21 22  1  6  0  0  0
 21 54  1  0  0  0  0
 22  6  1  0  0  0  0
 22 25  1  1  0  0  0
 22 55  1  0  0  0  0
 23  1  1  0  0  0  0
 23 26  1  6  0  0  0
 23 56  1  0  0  0  0
 24  4  1  0  0  0  0
 24 20  1  6  0  0  0
 24 57  1  0  0  0  0
 25 30  1  0  0  0  0
 25 58  1  6  0  0  0
 26  7  1  0  0  0  0
 26 27  1  6  0  0  0
 26 59  1  0  0  0  0
 27  8  1  0  0  0  0
 27 28  1  6  0  0  0
 27 60  1  0  0  0  0
 28  9  1  0  0  0  0
 28 29  1  1  0  0  0
 28 61  1  0  0  0  0
 29 31  1  0  0  0  0
 29 62  1  1  0  0  0
 30 63  1  0  0  0  0
 30 64  1  0  0  0  0
 31 65  1  0  0  0  0
 31 66  1  0  0  0  0
 31 67  1  0  0  0  0
 32 13  1  0  0  0  0
 32 33  1  6  0  0  0
 32 69  1  0  0  0  0
 33 14  1  0  0  0  0
 33 35  1  6  0  0  0
 33 71  1  0  0  0  0
 34 15  1  0  0  0  0
 34 32  1  6  0  0  0
 34 72  1  0  0  0  0
 35 38  1  0  0  0  0
 35 73  1  6  0  0  0
 36 12  1  0  0  0  0
 36 34  1  1  0  0  0
 36 75  1  0  0  0  0
 37 39  2  0  0  0  0
 37 40  1  0  0  0  0
 38 78  1  0  0  0  0
 38 79  1  0  0  0  0
 38 80  1  0  0  0  0
 39 46  1  0  0  0  0
 40 41  1  0  0  0  0
 41 43  1  0  0  0  0
 41 45  2  0  0  0  0
 42 44  1  0  0  0  0
 42 47  2  0  0  0  0
 43 44  2  0  0  0  0
 44 85  1  0  0  0  0
 45 47  1  0  0  0  0
 46 48  2  0  0  0  0
 46 49  1  0  0  0  0
 47 86  1  0  0  0  0
 48 50  1  0  0  0  0
 48 87  1  0  0  0  0
 49 51  2  0  0  0  0
 49 88  1  0  0  0  0
 50 52  2  0  0  0  0
 50 90  1  0  0  0  0
 51 52  1  0  0  0  0
 51 91  1  0  0  0  0
M  END
>  <PUBCHEM_COMPOUND_CID>
57397583

>  <PUBCHEM_COMPOUND_CANONICALIZED>
1

>  <PUBCHEM_CACTVS_COMPLEXITY>
1260

>  <PUBCHEM_CACTVS_HBOND_ACCEPTOR>
19

>  <PUBCHEM_CACTVS_HBOND_DONOR>
11

>  <PUBCHEM_CACTVS_ROTATABLE_BOND>
8

>  <PUBCHEM_CACTVS_SUBSKEYS>
AAADcfB8PgAAAAAAAAAAAAAAAAAAAAAAAAA0aJECAAAAAACBQAAAGgAACAAADBSwmAMyDoAABgCIAqBSAAICCAAkIAAIiAFGCMgdNzaGNR6ieWCl4BUPuQfI7KzOIAAACAAIAABAAAAQABAAAAAAAAAAAA==

>  <PUBCHEM_IUPAC_OPENEYE_NAME>
3-[(2S,3R,4S,5R,6R)-4,5-dihydroxy-6-(hydroxymethyl)-3-[(2S,3R,4R,5R,6S)-3,4,5-trihydroxy-6-methyl-tetrahydropyran-2-yl]oxy-tetrahydropyran-2-yl]oxy-5-hydroxy-2-(4-hydroxyphenyl)-7-[(2S,3R,4R,5R,6S)-3,4,5-trihydroxy-6-methyl-tetrahydropyran-2-yl]oxy-chromen-4-one

>  <PUBCHEM_IUPAC_CAS_NAME>
3-[[(2S,3R,4S,5R,6R)-4,5-dihydroxy-6-(hydroxymethyl)-3-[[(2S,3R,4R,5R,6S)-3,4,5-trihydroxy-6-methyl-2-oxanyl]oxy]-2-oxanyl]oxy]-5-hydroxy-2-(4-hydroxyphenyl)-7-[[(2S,3R,4R,5R,6S)-3,4,5-trihydroxy-6-methyl-2-oxanyl]oxy]-1-benzopyran-4-one

>  <PUBCHEM_IUPAC_NAME>
3-[(2S,3R,4S,5R,6R)-4,5-dihydroxy-6-(hydroxymethyl)-3-[(2S,3R,4R,5R,6S)-3,4,5-trihydroxy-6-methyloxan-2-yl]oxyoxan-2-yl]oxy-5-hydroxy-2-(4-hydroxyphenyl)-7-[(2S,3R,4R,5R,6S)-3,4,5-trihydroxy-6-methyloxan-2-yl]oxychromen-4-one

>  <PUBCHEM_IUPAC_SYSTEMATIC_NAME>
3-[(2S,3R,4S,5R,6R)-6-(hydroxymethyl)-3-[(2S,3R,4R,5R,6S)-6-methyl-3,4,5-tris(oxidanyl)oxan-2-yl]oxy-4,5-bis(oxidanyl)oxan-2-yl]oxy-2-(4-hydroxyphenyl)-7-[(2S,3R,4R,5R,6S)-6-methyl-3,4,5-tris(oxidanyl)oxan-2-yl]oxy-5-oxidanyl-chromen-4-one

>  <PUBCHEM_IUPAC_TRADITIONAL_NAME>
3-[(2S,3R,4S,5R,6R)-4,5-dihydroxy-6-methylol-3-[(2S,3R,4R,5R,6S)-3,4,5-trihydroxy-6-methyl-tetrahydropyran-2-yl]oxy-tetrahydropyran-2-yl]oxy-5-hydroxy-2-(4-hydroxyphenyl)-7-[(2S,3R,4R,5R,6S)-3,4,5-trihydroxy-6-methyl-tetrahydropyran-2-yl]oxy-chromone

>  <PUBCHEM_IUPAC_INCHI>
InChI=1S/C33H40O19/c1-10-19(37)23(41)26(44)31(46-10)48-14-7-15(36)18-16(8-14)49-28(12-3-5-13(35)6-4-12)29(22(18)40)51-33-30(25(43)21(39)17(9-34)50-33)52-32-27(45)24(42)20(38)11(2)47-32/h3-8,10-11,17,19-21,23-27,30-39,41-45H,9H2,1-2H3/t10-,11-,17+,19-,20-,21-,23+,24+,25-,26+,27+,30+,31-,32-,33-/m0/s1

>  <PUBCHEM_IUPAC_INCHIKEY>
DDELFAUOHDSZJL-KINVIYQBSA-N

>  <PUBCHEM_XLOGP3_AA>
-1.7

>  <PUBCHEM_EXACT_MASS>
740.216

>  <PUBCHEM_MOLECULAR_FORMULA>
C33H40O19

>  <PUBCHEM_MOLECULAR_WEIGHT>
740.664

>  <PUBCHEM_OPENEYE_CAN_SMILES>
CC1C(C(C(C(O1)OC2C(C(C(OC2OC3=C(OC4=CC(=CC(=C4C3=O)O)OC5C(C(C(C(O5)C)O)O)O)C6=CC=C(C=C6)O)CO)O)O)O)O)O

>  <PUBCHEM_OPENEYE_ISO_SMILES>
C[C@H]1[C@@H]([C@H]([C@H]([C@@H](O1)O[C@@H]2[C@H]([C@H]([C@H](O[C@H]2OC3=C(OC4=CC(=CC(=C4C3=O)O)O[C@H]5[C@@H]([C@@H]([C@H]([C@@H](O5)C)O)O)O)C6=CC=C(C=C6)O)CO)O)O)O)O)O

>  <PUBCHEM_CACTVS_TPSA>
304

>  <PUBCHEM_MONOISOTOPIC_WEIGHT>
740.216

>  <PUBCHEM_TOTAL_CHARGE>
0

>  <PUBCHEM_HEAVY_ATOM_COUNT>
52

>  <PUBCHEM_ATOM_DEF_STEREO_COUNT>
15

>  <PUBCHEM_ATOM_UDEF_STEREO_COUNT>
0

>  <PUBCHEM_BOND_DEF_STEREO_COUNT>
0

>  <PUBCHEM_BOND_UDEF_STEREO_COUNT>
0

>  <PUBCHEM_ISOTOPIC_ATOM_COUNT>
0

>  <PUBCHEM_COMPONENT_COUNT>
1

>  <PUBCHEM_CACTVS_TAUTO_COUNT>
24

>  <PUBCHEM_COORDINATE_TYPE>
1
5
255

>  <PUBCHEM_BONDANNOTATIONS>
20  1  6
23  1  5
36  12  6
32  13  5
33  14  6
34  15  5
16  39  8
16  43  8
25  30  5
29  31  6
35  38  5
37  39  8
37  40  8
24  4  5
40  41  8
41  43  8
41  45  8
42  44  8
42  47  8
43  44  8
45  47  8
46  48  8
46  49  8
48  50  8
49  51  8
21  5  5
50  52  8
51  52  8
22  6  5
26  7  6
27  8  6
28  9  5

$$$$
