5748586
 OpenBabel06101807152D

 29 32  0  0  0  0  0  0  0  0999 V2000
    5.9065   -0.4852    0.0000 O   0  0  0  0  0  0  0  0  0  0  0  0
    8.0505    1.5833    0.0000 O   0  0  0  0  0  0  0  0  0  0  0  0
    6.7634    2.7422    0.0000 O   0  0  0  0  0  0  0  0  0  0  0  0
    9.3195   -2.2831    0.0000 O   0  0  0  0  0  0  0  0  0  0  0  0
   10.6901   -0.7609    0.0000 O   0  0  0  0  0  0  0  0  0  0  0  0
    2.4170    0.4190    0.0000 O   0  0  0  0  0  0  0  0  0  0  0  0
    6.4033    1.0480    0.0000 C   0  0  0  0  0  0  0  0  0  0  0  0
    6.7123    0.0970    0.0000 C   0  0  0  0  0  0  0  0  0  0  0  0
    5.4092    1.0454    0.0000 C   0  0  0  0  0  0  0  0  0  0  0  0
    7.6904   -0.1109    0.0000 C   0  0  0  0  0  0  0  0  0  0  0  0
    5.1028    0.0998    0.0000 C   0  0  0  0  0  0  0  0  0  0  0  0
    8.3596    0.6322    0.0000 C   0  0  0  0  0  0  0  0  0  0  0  0
    7.0724    1.7912    0.0000 C   0  0  0  0  0  0  0  0  0  0  0  0
    7.9970   -1.1064    0.0000 C   0  0  0  0  0  0  0  0  0  0  0  0
    4.7276    1.8250    0.0000 C   0  0  0  0  0  0  0  0  0  0  0  0
    4.0936   -0.1320    0.0000 C   0  0  0  0  0  0  0  0  0  0  0  0
    9.3816    0.4314    0.0000 C   0  0  0  0  0  0  0  0  0  0  0  0
    9.0142   -1.3308    0.0000 C   0  0  0  0  0  0  0  0  0  0  0  0
    3.7133    1.6166    0.0000 C   0  0  0  0  0  0  0  0  0  0  0  0
    9.7112   -0.5568    0.0000 C   0  0  0  0  0  0  0  0  0  0  0  0
    3.3942    0.6315    0.0000 C   0  0  0  0  0  0  0  0  0  0  0  0
    7.5768   -1.5623    0.0000 H   0  0  0  0  0  0  0  0  0  0  0  0
    4.9255    2.4125    0.0000 H   0  0  0  0  0  0  0  0  0  0  0  0
    3.9094   -0.7240    0.0000 H   0  0  0  0  0  0  0  0  0  0  0  0
    9.7912    0.8969    0.0000 H   0  0  0  0  0  0  0  0  0  0  0  0
    3.2998    2.0786    0.0000 H   0  0  0  0  0  0  0  0  0  0  0  0
    8.9029   -2.7422    0.0000 H   0  0  0  0  0  0  0  0  0  0  0  0
   11.1032   -0.2986    0.0000 H   0  0  0  0  0  0  0  0  0  0  0  0
    2.0000    0.8778    0.0000 H   0  0  0  0  0  0  0  0  0  0  0  0
  1  8  1  0  0  0  0
  1 11  1  0  0  0  0
  2 12  1  0  0  0  0
  2 13  1  0  0  0  0
  3 13  2  0  0  0  0
  4 18  1  0  0  0  0
  4 27  1  0  0  0  0
  5 20  1  0  0  0  0
  5 28  1  0  0  0  0
  6 21  1  0  0  0  0
  6 29  1  0  0  0  0
  7  8  2  0  0  0  0
  7  9  1  0  0  0  0
  7 13  1  0  0  0  0
  8 10  1  0  0  0  0
  9 11  2  0  0  0  0
  9 15  1  0  0  0  0
 10 12  1  0  0  0  0
 10 14  2  0  0  0  0
 11 16  1  0  0  0  0
 12 17  2  0  0  0  0
 14 18  1  0  0  0  0
 14 22  1  0  0  0  0
 15 19  2  0  0  0  0
 15 23  1  0  0  0  0
 16 21  2  0  0  0  0
 16 24  1  0  0  0  0
 17 20  1  0  0  0  0
 17 25  1  0  0  0  0
 18 20  2  0  0  0  0
 19 21  1  0  0  0  0
 19 26  1  0  0  0  0
M  END
>  <PUBCHEM_COMPOUND_CID>
5748586

>  <PUBCHEM_COMPOUND_CANONICALIZED>
1

>  <PUBCHEM_CACTVS_COMPLEXITY>
440

>  <PUBCHEM_CACTVS_HBOND_ACCEPTOR>
6

>  <PUBCHEM_CACTVS_HBOND_DONOR>
3

>  <PUBCHEM_CACTVS_ROTATABLE_BOND>
0

>  <PUBCHEM_CACTVS_SUBSKEYS>
AAADccBwOAAAAAAAAAAAAAAAAAAAASAAAAA0YIAAAAAAAEiR9AAAGgAACAAADASAmAAwDsAABkCIAqDSCAACCAAkIAAIiAEGiMgNJzaONRqCe2Gl4BUJuYfL7PzOoQABCAAIQABCAAIQABCAAAAAAAAAAA==

>  <PUBCHEM_IUPAC_OPENEYE_NAME>
2,3,9-trihydroxybenzofuro[3,2-c]chromen-6-one

>  <PUBCHEM_IUPAC_CAS_NAME>
2,3,9-trihydroxy-6-benzofuro[3,2-c][1]benzopyranone

>  <PUBCHEM_IUPAC_NAME>
2,3,9-trihydroxy-[1]benzofuro[3,2-c]chromen-6-one

>  <PUBCHEM_IUPAC_SYSTEMATIC_NAME>
2,3,9-tris(oxidanyl)-[1]benzofuro[3,2-c]chromen-6-one

>  <PUBCHEM_IUPAC_TRADITIONAL_NAME>
2,3,9-trihydroxybenzofuro[3,2-c]chromen-6-one

>  <PUBCHEM_IUPAC_INCHI>
InChI=1S/C15H8O6/c16-6-1-2-7-11(3-6)20-14-8-4-9(17)10(18)5-12(8)21-15(19)13(7)14/h1-5,16-18H

>  <PUBCHEM_IUPAC_INCHIKEY>
CJPXZAMCIOOMNF-UHFFFAOYSA-N

>  <PUBCHEM_XLOGP3_AA>
2.4

>  <PUBCHEM_EXACT_MASS>
284.032

>  <PUBCHEM_MOLECULAR_FORMULA>
C15H8O6

>  <PUBCHEM_MOLECULAR_WEIGHT>
284.223

>  <PUBCHEM_OPENEYE_CAN_SMILES>
C1=CC2=C(C=C1O)OC3=C2C(=O)OC4=CC(=C(C=C43)O)O

>  <PUBCHEM_OPENEYE_ISO_SMILES>
C1=CC2=C(C=C1O)OC3=C2C(=O)OC4=CC(=C(C=C43)O)O

>  <PUBCHEM_CACTVS_TPSA>
100

>  <PUBCHEM_MONOISOTOPIC_WEIGHT>
284.032

>  <PUBCHEM_TOTAL_CHARGE>
0

>  <PUBCHEM_HEAVY_ATOM_COUNT>
21

>  <PUBCHEM_ATOM_DEF_STEREO_COUNT>
0

>  <PUBCHEM_ATOM_UDEF_STEREO_COUNT>
0

>  <PUBCHEM_BOND_DEF_STEREO_COUNT>
0

>  <PUBCHEM_BOND_UDEF_STEREO_COUNT>
0

>  <PUBCHEM_ISOTOPIC_ATOM_COUNT>
0

>  <PUBCHEM_COMPONENT_COUNT>
1

>  <PUBCHEM_CACTVS_TAUTO_COUNT>
52

>  <PUBCHEM_COORDINATE_TYPE>
1
5
255

>  <PUBCHEM_BONDANNOTATIONS>
1  11  8
1  8  8
10  12  8
10  14  8
11  16  8
12  17  8
14  18  8
15  19  8
16  21  8
17  20  8
18  20  8
19  21  8
2  12  8
2  13  8
7  13  8
7  8  8
7  9  8
8  10  8
9  11  8
9  15  8

$$$$
