57501690
 OpenBabel06101807152D

  7  3  0  0  0  0  0  0  0  0999 V2000
    3.2500    0.0000    0.0000 Al  0  0  0  0  0 15  0  0  0  0  0  0
    0.0000    2.5000    0.0000 H   0  0  0  0  0  0  0  0  0  0  0  0
    3.0000    2.5000    0.0000 H   0  0  0  0  0  0  0  0  0  0  0  0
    3.0000    5.0000    0.0000 H   0  0  0  0  0  0  0  0  0  0  0  0
    1.0000    2.5000    0.0000 H   0  0  0  0  0  0  0  0  0  0  0  0
    4.0000    2.5000    0.0000 H   0  0  0  0  0  0  0  0  0  0  0  0
    4.0000    5.0000    0.0000 H   0  0  0  0  0  0  0  0  0  0  0  0
  2  5  1  0  0  0  0
  3  6  1  0  0  0  0
  4  7  1  0  0  0  0
M  END
>  <PUBCHEM_COMPOUND_CID>
57501690

>  <PUBCHEM_COMPOUND_CANONICALIZED>
1

>  <PUBCHEM_CACTVS_COMPLEXITY>
0

>  <PUBCHEM_CACTVS_HBOND_ACCEPTOR>
0

>  <PUBCHEM_CACTVS_HBOND_DONOR>
0

>  <PUBCHEM_CACTVS_ROTATABLE_BOND>
0

>  <PUBCHEM_CACTVS_SUBSKEYS>
AAADcYAAAAAAABAAAAAAAAAAAAAAAAAAAAAAAAAAAAAAAAAAAAAAAAAAAAAAAAAAAAAAAAAAAAAAAAAAAAAAAAAAAAAAAAAAAAAAAAAAAAAAAAAAAAAAAAAAAAAAAAAAAAAAAAAAAAAAAAAAAAAAAAAAAA==

>  <PUBCHEM_IUPAC_OPENEYE_NAME>
aluminum;molecular hydrogen

>  <PUBCHEM_IUPAC_CAS_NAME>
aluminum;molecular hydrogen

>  <PUBCHEM_IUPAC_NAME>
aluminum;molecular hydrogen

>  <PUBCHEM_IUPAC_SYSTEMATIC_NAME>
aluminum;molecular hydrogen

>  <PUBCHEM_IUPAC_TRADITIONAL_NAME>
aluminum;molecular hydrogen

>  <PUBCHEM_IUPAC_INCHI>
InChI=1S/Al.3H2/h;3*1H

>  <PUBCHEM_IUPAC_INCHIKEY>
VSKBCRUQHHGABO-UHFFFAOYSA-N

>  <PUBCHEM_EXACT_MASS>
33.028

>  <PUBCHEM_MOLECULAR_FORMULA>
AlH6

>  <PUBCHEM_MOLECULAR_WEIGHT>
33.03

>  <PUBCHEM_OPENEYE_CAN_SMILES>
[HH].[HH].[HH].[Al]

>  <PUBCHEM_OPENEYE_ISO_SMILES>
[HH].[HH].[HH].[Al]

>  <PUBCHEM_CACTVS_TPSA>
0

>  <PUBCHEM_MONOISOTOPIC_WEIGHT>
33.028

>  <PUBCHEM_TOTAL_CHARGE>
0

>  <PUBCHEM_HEAVY_ATOM_COUNT>
1

>  <PUBCHEM_ATOM_DEF_STEREO_COUNT>
0

>  <PUBCHEM_ATOM_UDEF_STEREO_COUNT>
0

>  <PUBCHEM_BOND_DEF_STEREO_COUNT>
0

>  <PUBCHEM_BOND_UDEF_STEREO_COUNT>
0

>  <PUBCHEM_ISOTOPIC_ATOM_COUNT>
0

>  <PUBCHEM_COMPONENT_COUNT>
4

>  <PUBCHEM_CACTVS_TAUTO_COUNT>
1

>  <PUBCHEM_COORDINATE_TYPE>
1
5
255

$$$$
