5773603
 OpenBabel06101807152D

 50 52  0  0  1  0  0  0  0  0999 V2000
    4.2690   -1.8824    0.0000 O   0  0  0  0  0  0  0  0  0  0  0  0
    6.0010   -1.8824    0.0000 O   0  0  0  0  0  0  0  0  0  0  0  0
    4.2690   -4.8824    0.0000 O   0  0  0  0  0  0  0  0  0  0  0  0
    2.5369   -3.8824    0.0000 O   0  0  0  0  0  0  0  0  0  0  0  0
    6.0010   -3.8824    0.0000 O   0  0  0  0  0  0  0  0  0  0  0  0
    2.5369   -0.8824    0.0000 O   0  0  0  0  0  0  0  0  0  0  0  0
    7.7331    2.1176    0.0000 N   0  0  0  0  0  0  0  0  0  0  0  0
    7.8621    4.2846    0.0000 N   0  0  0  0  0  0  0  0  0  0  0  0
    9.4651    2.1176    0.0000 N   0  0  0  0  0  0  0  0  0  0  0  0
    9.2559    5.0894    0.0000 N   0  0  0  0  0  0  0  0  0  0  0  0
   10.3312    3.6176    0.0000 N   0  0  0  0  0  0  0  0  0  0  0  0
    4.2690   -3.8824    0.0000 C   0  0  3  0  0  0  0  0  0  0  0  0
    3.4030   -3.3824    0.0000 C   0  0  3  0  0  0  0  0  0  0  0  0
    5.1350   -3.3824    0.0000 C   0  0  3  0  0  0  0  0  0  0  0  0
    3.4030   -2.3824    0.0000 C   0  0  3  0  0  0  0  0  0  0  0  0
    5.1350   -2.3824    0.0000 C   0  0  3  0  0  0  0  0  0  0  0  0
    2.5369   -1.8824    0.0000 C   0  0  0  0  0  0  0  0  0  0  0  0
    6.0010   -0.8824    0.0000 C   0  0  0  0  0  0  0  0  0  0  0  0
    6.8671   -0.3824    0.0000 C   0  0  0  0  0  0  0  0  0  0  0  0
    6.8671    0.6176    0.0000 C   0  0  0  0  0  0  0  0  0  0  0  0
    7.7331   -0.8824    0.0000 C   0  0  0  0  0  0  0  0  0  0  0  0
    7.7331    1.1176    0.0000 C   0  0  0  0  0  0  0  0  0  0  0  0
    8.5991    2.6176    0.0000 C   0  0  0  0  0  0  0  0  0  0  0  0
    8.5991    3.6176    0.0000 C   0  0  0  0  0  0  0  0  0  0  0  0
    9.4651    4.1176    0.0000 C   0  0  0  0  0  0  0  0  0  0  0  0
    8.2672    5.1924    0.0000 C   0  0  0  0  0  0  0  0  0  0  0  0
   10.3312    2.6176    0.0000 C   0  0  0  0  0  0  0  0  0  0  0  0
    4.8059   -4.1924    0.0000 H   0  0  0  0  0  0  0  0  0  0  0  0
    3.4030   -4.0024    0.0000 H   0  0  0  0  0  0  0  0  0  0  0  0
    5.6720   -3.0724    0.0000 H   0  0  0  0  0  0  0  0  0  0  0  0
    3.4030   -1.7624    0.0000 H   0  0  0  0  0  0  0  0  0  0  0  0
    5.1350   -1.7624    0.0000 H   0  0  0  0  0  0  0  0  0  0  0  0
    1.9264   -1.7748    0.0000 H   0  0  0  0  0  0  0  0  0  0  0  0
    2.3249   -2.4650    0.0000 H   0  0  0  0  0  0  0  0  0  0  0  0
    3.7320   -5.1924    0.0000 H   0  0  0  0  0  0  0  0  0  0  0  0
    2.0000   -3.5724    0.0000 H   0  0  0  0  0  0  0  0  0  0  0  0
    6.5380   -3.5724    0.0000 H   0  0  0  0  0  0  0  0  0  0  0  0
    5.7890   -0.2998    0.0000 H   0  0  0  0  0  0  0  0  0  0  0  0
    5.3905   -0.9901    0.0000 H   0  0  0  0  0  0  0  0  0  0  0  0
    2.0000   -0.5724    0.0000 H   0  0  0  0  0  0  0  0  0  0  0  0
    6.3301    0.9276    0.0000 H   0  0  0  0  0  0  0  0  0  0  0  0
    7.4231   -1.4194    0.0000 H   0  0  0  0  0  0  0  0  0  0  0  0
    8.2700   -1.1924    0.0000 H   0  0  0  0  0  0  0  0  0  0  0  0
    8.0431   -0.3455    0.0000 H   0  0  0  0  0  0  0  0  0  0  0  0
    7.9451    0.5350    0.0000 H   0  0  0  0  0  0  0  0  0  0  0  0
    8.3437    1.2252    0.0000 H   0  0  0  0  0  0  0  0  0  0  0  0
    7.1962    2.4276    0.0000 H   0  0  0  0  0  0  0  0  0  0  0  0
    7.2554    4.1568    0.0000 H   0  0  0  0  0  0  0  0  0  0  0  0
    7.9572    5.7294    0.0000 H   0  0  0  0  0  0  0  0  0  0  0  0
   10.8681    2.3076    0.0000 H   0  0  0  0  0  0  0  0  0  0  0  0
  1 15  1  0  0  0  0
  1 16  1  0  0  0  0
  2 16  1  0  0  0  0
  2 18  1  0  0  0  0
  3 12  1  0  0  0  0
  3 35  1  0  0  0  0
  4 13  1  0  0  0  0
  4 36  1  0  0  0  0
  5 14  1  0  0  0  0
  5 37  1  0  0  0  0
  6 17  1  0  0  0  0
  6 40  1  0  0  0  0
  7 22  1  0  0  0  0
  7 23  1  0  0  0  0
  7 47  1  0  0  0  0
  8 24  1  0  0  0  0
  8 26  1  0  0  0  0
  8 48  1  0  0  0  0
  9 23  2  0  0  0  0
  9 27  1  0  0  0  0
 10 25  1  0  0  0  0
 10 26  2  0  0  0  0
 11 25  1  0  0  0  0
 11 27  2  0  0  0  0
 12 13  1  0  0  0  0
 12 14  1  0  0  0  0
 12 28  1  0  0  0  0
 13 15  1  0  0  0  0
 13 29  1  0  0  0  0
 14 16  1  0  0  0  0
 14 30  1  0  0  0  0
 15 17  1  0  0  0  0
 15 31  1  0  0  0  0
 16 32  1  0  0  0  0
 17 33  1  0  0  0  0
 17 34  1  0  0  0  0
 18 19  1  0  0  0  0
 18 38  1  0  0  0  0
 18 39  1  0  0  0  0
 19 20  2  0  0  0  0
 19 21  1  0  0  0  0
 20 22  1  0  0  0  0
 20 41  1  0  0  0  0
 21 42  1  0  0  0  0
 21 43  1  0  0  0  0
 21 44  1  0  0  0  0
 22 45  1  0  0  0  0
 22 46  1  0  0  0  0
 23 24  1  0  0  0  0
 24 25  2  0  0  0  0
 26 49  1  0  0  0  0
 27 50  1  0  0  0  0
M  END
>  <PUBCHEM_COMPOUND_CID>
5773603

>  <PUBCHEM_COMPOUND_CANONICALIZED>
1

>  <PUBCHEM_CACTVS_COMPLEXITY>
512

>  <PUBCHEM_CACTVS_HBOND_ACCEPTOR>
10

>  <PUBCHEM_CACTVS_HBOND_DONOR>
6

>  <PUBCHEM_CACTVS_ROTATABLE_BOND>
7

>  <PUBCHEM_CACTVS_SUBSKEYS>
AAADceB7uAAAAAAAAAAAAAAAAAAAAWAAAAAsSAAAAAAAAFgB+AAAHgAQCAAADBzxlwcH+L7JlgCgAyZjZACAgC2REKABWaAoVBCRXAJAaUA2VAgNEALHICHAYAwAAAAAAAAAAAAAAAAAAAAAAAAAAAAAAA==

>  <PUBCHEM_IUPAC_OPENEYE_NAME>
2-(hydroxymethyl)-6-[(E)-2-methyl-4-(7H-purin-6-ylamino)but-2-enoxy]tetrahydropyran-3,4,5-triol

>  <PUBCHEM_IUPAC_CAS_NAME>
2-(hydroxymethyl)-6-[(E)-2-methyl-4-(7H-purin-6-ylamino)but-2-enoxy]oxane-3,4,5-triol

>  <PUBCHEM_IUPAC_NAME>
2-(hydroxymethyl)-6-[(E)-2-methyl-4-(7H-purin-6-ylamino)but-2-enoxy]oxane-3,4,5-triol

>  <PUBCHEM_IUPAC_SYSTEMATIC_NAME>
2-(hydroxymethyl)-6-[(E)-2-methyl-4-(7H-purin-6-ylamino)but-2-enoxy]oxane-3,4,5-triol

>  <PUBCHEM_IUPAC_TRADITIONAL_NAME>
2-methylol-6-[(E)-2-methyl-4-(7H-purin-6-ylamino)but-2-enoxy]tetrahydropyran-3,4,5-triol

>  <PUBCHEM_IUPAC_INCHI>
InChI=1S/C16H23N5O6/c1-8(2-3-17-14-10-15(19-6-18-10)21-7-20-14)5-26-16-13(25)12(24)11(23)9(4-22)27-16/h2,6-7,9,11-13,16,22-25H,3-5H2,1H3,(H2,17,18,19,20,21)/b8-2+

>  <PUBCHEM_IUPAC_INCHIKEY>
UUPDCCPAOMDMPT-KRXBUXKQSA-N

>  <PUBCHEM_XLOGP3_AA>
-0.9

>  <PUBCHEM_EXACT_MASS>
381.165

>  <PUBCHEM_MOLECULAR_FORMULA>
C16H23N5O6

>  <PUBCHEM_MOLECULAR_WEIGHT>
381.389

>  <PUBCHEM_OPENEYE_CAN_SMILES>
CC(=CCNC1=NC=NC2=C1NC=N2)COC3C(C(C(C(O3)CO)O)O)O

>  <PUBCHEM_OPENEYE_ISO_SMILES>
C/C(=C\CNC1=NC=NC2=C1NC=N2)/COC3C(C(C(C(O3)CO)O)O)O

>  <PUBCHEM_CACTVS_TPSA>
166

>  <PUBCHEM_MONOISOTOPIC_WEIGHT>
381.165

>  <PUBCHEM_TOTAL_CHARGE>
0

>  <PUBCHEM_HEAVY_ATOM_COUNT>
27

>  <PUBCHEM_ATOM_DEF_STEREO_COUNT>
0

>  <PUBCHEM_ATOM_UDEF_STEREO_COUNT>
0

>  <PUBCHEM_BOND_DEF_STEREO_COUNT>
1

>  <PUBCHEM_BOND_UDEF_STEREO_COUNT>
0

>  <PUBCHEM_ISOTOPIC_ATOM_COUNT>
0

>  <PUBCHEM_COMPONENT_COUNT>
1

>  <PUBCHEM_CACTVS_TAUTO_COUNT>
8

>  <PUBCHEM_COORDINATE_TYPE>
1
5
255

>  <PUBCHEM_BONDANNOTATIONS>
10  25  8
10  26  8
11  25  8
11  27  8
23  24  8
24  25  8
8  24  8
8  26  8
9  23  8
9  27  8

$$$$
