5847395
 OpenBabel06101807152D

132135  0  0  1  0  0  0  0  0999 V2000
    4.2690    5.5000    0.0000 O   0  0  0  0  0  0  0  0  0  0  0  0
   15.5273   -7.0000    0.0000 O   0  0  0  0  0  0  0  0  0  0  0  0
    7.7331    6.5000    0.0000 O   0  0  0  0  0  0  0  0  0  0  0  0
   11.1972   -6.5000    0.0000 O   0  0  0  0  0  0  0  0  0  0  0  0
    6.0010    5.5000    0.0000 O   0  0  0  0  0  0  0  0  0  0  0  0
   13.7953   -7.0000    0.0000 O   0  0  0  0  0  0  0  0  0  0  0  0
    6.0010    8.5000    0.0000 O   0  0  0  0  0  0  0  0  0  0  0  0
   12.9292   -8.5000    0.0000 O   0  0  0  0  0  0  0  0  0  0  0  0
    6.0010    3.5000    0.0000 O   0  0  0  0  0  0  0  0  0  0  0  0
   13.7953   -5.0000    0.0000 O   0  0  0  0  0  0  0  0  0  0  0  0
    4.2690    2.5000    0.0000 O   0  0  0  0  0  0  0  0  0  0  0  0
   15.5273   -4.0000    0.0000 O   0  0  0  0  0  0  0  0  0  0  0  0
    7.7331    9.5000    0.0000 O   0  0  0  0  0  0  0  0  0  0  0  0
   11.1972   -9.5000    0.0000 O   0  0  0  0  0  0  0  0  0  0  0  0
    2.5369    3.5000    0.0000 O   0  0  0  0  0  0  0  0  0  0  0  0
   17.2594   -5.0000    0.0000 O   0  0  0  0  0  0  0  0  0  0  0  0
    9.4651    8.5000    0.0000 O   0  0  0  0  0  0  0  0  0  0  0  0
    9.4651   -8.5000    0.0000 O   0  0  0  0  0  0  0  0  0  0  0  0
    9.4651    6.5000    0.0000 O   0  0  0  0  0  0  0  0  0  0  0  0
    9.4651   -6.5000    0.0000 O   0  0  0  0  0  0  0  0  0  0  0  0
    2.5369    6.5000    0.0000 O   0  0  0  0  0  0  0  0  0  0  0  0
   17.2594   -8.0000    0.0000 O   0  0  0  0  0  0  0  0  0  0  0  0
    8.5991    5.0000    0.0000 O   0  0  0  0  0  0  0  0  0  0  0  0
   10.3312   -5.0000    0.0000 O   0  0  0  0  0  0  0  0  0  0  0  0
    6.8671    7.0000    0.0000 C   0  0  3  0  0  0  0  0  0  0  0  0
   12.0632   -7.0000    0.0000 C   0  0  3  0  0  0  0  0  0  0  0  0
    6.8671    8.0000    0.0000 C   0  0  3  0  0  0  0  0  0  0  0  0
   12.0632   -8.0000    0.0000 C   0  0  3  0  0  0  0  0  0  0  0  0
    5.1350    4.0000    0.0000 C   0  0  3  0  0  0  0  0  0  0  0  0
   14.6613   -5.5000    0.0000 C   0  0  3  0  0  0  0  0  0  0  0  0
    4.2690    3.5000    0.0000 C   0  0  3  0  0  0  0  0  0  0  0  0
   15.5273   -5.0000    0.0000 C   0  0  3  0  0  0  0  0  0  0  0  0
    7.7331    8.5000    0.0000 C   0  0  3  0  0  0  0  0  0  0  0  0
   11.1972   -8.5000    0.0000 C   0  0  3  0  0  0  0  0  0  0  0  0
    5.1350    5.0000    0.0000 C   0  0  3  0  0  0  0  0  0  0  0  0
   14.6613   -6.5000    0.0000 C   0  0  3  0  0  0  0  0  0  0  0  0
    3.4030    4.0000    0.0000 C   0  0  3  0  0  0  0  0  0  0  0  0
   16.3933   -5.5000    0.0000 C   0  0  3  0  0  0  0  0  0  0  0  0
    3.4030    5.0000    0.0000 C   0  0  3  0  0  0  0  0  0  0  0  0
   16.3933   -6.5000    0.0000 C   0  0  3  0  0  0  0  0  0  0  0  0
    8.5991    8.0000    0.0000 C   0  0  3  0  0  0  0  0  0  0  0  0
   10.3312   -8.0000    0.0000 C   0  0  3  0  0  0  0  0  0  0  0  0
    6.0010    6.5000    0.0000 C   0  0  0  0  0  0  0  0  0  0  0  0
   12.9292   -6.5000    0.0000 C   0  0  0  0  0  0  0  0  0  0  0  0
    8.5991    7.0000    0.0000 C   0  0  3  0  0  0  0  0  0  0  0  0
   10.3312   -7.0000    0.0000 C   0  0  3  0  0  0  0  0  0  0  0  0
    2.5369    5.5000    0.0000 C   0  0  0  0  0  0  0  0  0  0  0  0
   17.2594   -7.0000    0.0000 C   0  0  0  0  0  0  0  0  0  0  0  0
    9.4651    5.5000    0.0000 C   0  0  0  0  0  0  0  0  0  0  0  0
    9.4651   -5.5000    0.0000 C   0  0  0  0  0  0  0  0  0  0  0  0
   10.3312    5.0000    0.0000 C   0  0  0  0  0  0  0  0  0  0  0  0
    8.5991   -5.0000    0.0000 C   0  0  0  0  0  0  0  0  0  0  0  0
   11.1972    5.5000    0.0000 C   0  0  0  0  0  0  0  0  0  0  0  0
    7.7331   -5.5000    0.0000 C   0  0  0  0  0  0  0  0  0  0  0  0
   10.3312    4.0000    0.0000 C   0  0  0  0  0  0  0  0  0  0  0  0
    8.5991   -4.0000    0.0000 C   0  0  0  0  0  0  0  0  0  0  0  0
    9.4651    3.5000    0.0000 C   0  0  0  0  0  0  0  0  0  0  0  0
    7.7331   -3.5000    0.0000 C   0  0  0  0  0  0  0  0  0  0  0  0
    9.4651    2.5000    0.0000 C   0  0  0  0  0  0  0  0  0  0  0  0
    7.7331   -2.5000    0.0000 C   0  0  0  0  0  0  0  0  0  0  0  0
    8.5991    2.0000    0.0000 C   0  0  0  0  0  0  0  0  0  0  0  0
    6.8671   -2.0000    0.0000 C   0  0  0  0  0  0  0  0  0  0  0  0
    7.7331    2.5000    0.0000 C   0  0  0  0  0  0  0  0  0  0  0  0
    6.0010   -2.5000    0.0000 C   0  0  0  0  0  0  0  0  0  0  0  0
    8.5991    1.0000    0.0000 C   0  0  0  0  0  0  0  0  0  0  0  0
    6.8671   -1.0000    0.0000 C   0  0  0  0  0  0  0  0  0  0  0  0
    7.7331    0.5000    0.0000 C   0  0  0  0  0  0  0  0  0  0  0  0
    7.7331   -0.5000    0.0000 C   0  0  0  0  0  0  0  0  0  0  0  0
    6.8671    6.3800    0.0000 H   0  0  0  0  0  0  0  0  0  0  0  0
   12.0632   -6.3800    0.0000 H   0  0  0  0  0  0  0  0  0  0  0  0
    6.3301    7.6900    0.0000 H   0  0  0  0  0  0  0  0  0  0  0  0
   12.0632   -8.6200    0.0000 H   0  0  0  0  0  0  0  0  0  0  0  0
    5.1350    3.3800    0.0000 H   0  0  0  0  0  0  0  0  0  0  0  0
   14.6613   -4.8800    0.0000 H   0  0  0  0  0  0  0  0  0  0  0  0
    3.7320    3.1900    0.0000 H   0  0  0  0  0  0  0  0  0  0  0  0
   16.0643   -4.6900    0.0000 H   0  0  0  0  0  0  0  0  0  0  0  0
    7.1962    8.8100    0.0000 H   0  0  0  0  0  0  0  0  0  0  0  0
   10.6603   -8.8100    0.0000 H   0  0  0  0  0  0  0  0  0  0  0  0
    5.1350    5.6200    0.0000 H   0  0  0  0  0  0  0  0  0  0  0  0
   14.6613   -7.1200    0.0000 H   0  0  0  0  0  0  0  0  0  0  0  0
    2.8660    4.3100    0.0000 H   0  0  0  0  0  0  0  0  0  0  0  0
   16.9303   -5.8100    0.0000 H   0  0  0  0  0  0  0  0  0  0  0  0
    3.4030    5.6200    0.0000 H   0  0  0  0  0  0  0  0  0  0  0  0
   16.3933   -7.1200    0.0000 H   0  0  0  0  0  0  0  0  0  0  0  0
    8.5991    8.6200    0.0000 H   0  0  0  0  0  0  0  0  0  0  0  0
    9.7942   -7.6900    0.0000 H   0  0  0  0  0  0  0  0  0  0  0  0
    5.7890    7.0826    0.0000 H   0  0  0  0  0  0  0  0  0  0  0  0
    5.3905    6.3923    0.0000 H   0  0  0  0  0  0  0  0  0  0  0  0
   13.3278   -6.0250    0.0000 H   0  0  0  0  0  0  0  0  0  0  0  0
   12.5307   -6.0250    0.0000 H   0  0  0  0  0  0  0  0  0  0  0  0
    8.5991    6.3800    0.0000 H   0  0  0  0  0  0  0  0  0  0  0  0
   10.3312   -6.3800    0.0000 H   0  0  0  0  0  0  0  0  0  0  0  0
    1.9264    5.6077    0.0000 H   0  0  0  0  0  0  0  0  0  0  0  0
    2.3249    4.9174    0.0000 H   0  0  0  0  0  0  0  0  0  0  0  0
   17.8699   -7.1077    0.0000 H   0  0  0  0  0  0  0  0  0  0  0  0
   17.4714   -6.4174    0.0000 H   0  0  0  0  0  0  0  0  0  0  0  0
    6.0010    9.1200    0.0000 H   0  0  0  0  0  0  0  0  0  0  0  0
   12.9292   -9.1200    0.0000 H   0  0  0  0  0  0  0  0  0  0  0  0
    6.5380    3.8100    0.0000 H   0  0  0  0  0  0  0  0  0  0  0  0
   13.7953   -4.3800    0.0000 H   0  0  0  0  0  0  0  0  0  0  0  0
    3.7320    2.1900    0.0000 H   0  0  0  0  0  0  0  0  0  0  0  0
   16.0643   -3.6900    0.0000 H   0  0  0  0  0  0  0  0  0  0  0  0
    8.2700    9.8100    0.0000 H   0  0  0  0  0  0  0  0  0  0  0  0
   11.7341   -9.8100    0.0000 H   0  0  0  0  0  0  0  0  0  0  0  0
    2.0000    3.8100    0.0000 H   0  0  0  0  0  0  0  0  0  0  0  0
   17.7963   -5.3100    0.0000 H   0  0  0  0  0  0  0  0  0  0  0  0
   10.0021    8.1900    0.0000 H   0  0  0  0  0  0  0  0  0  0  0  0
    9.4651   -9.1200    0.0000 H   0  0  0  0  0  0  0  0  0  0  0  0
    2.0000    6.8100    0.0000 H   0  0  0  0  0  0  0  0  0  0  0  0
   17.7963   -8.3100    0.0000 H   0  0  0  0  0  0  0  0  0  0  0  0
   11.5072    4.9631    0.0000 H   0  0  0  0  0  0  0  0  0  0  0  0
   11.7341    5.8100    0.0000 H   0  0  0  0  0  0  0  0  0  0  0  0
   10.8872    6.0369    0.0000 H   0  0  0  0  0  0  0  0  0  0  0  0
    7.4231   -4.9631    0.0000 H   0  0  0  0  0  0  0  0  0  0  0  0
    7.1962   -5.8100    0.0000 H   0  0  0  0  0  0  0  0  0  0  0  0
    8.0431   -6.0369    0.0000 H   0  0  0  0  0  0  0  0  0  0  0  0
   10.8681    3.6900    0.0000 H   0  0  0  0  0  0  0  0  0  0  0  0
    9.1360   -3.6900    0.0000 H   0  0  0  0  0  0  0  0  0  0  0  0
    8.9282    3.8100    0.0000 H   0  0  0  0  0  0  0  0  0  0  0  0
    7.1962   -3.8100    0.0000 H   0  0  0  0  0  0  0  0  0  0  0  0
   10.0021    2.1900    0.0000 H   0  0  0  0  0  0  0  0  0  0  0  0
    8.2700   -2.1900    0.0000 H   0  0  0  0  0  0  0  0  0  0  0  0
    8.0431    3.0369    0.0000 H   0  0  0  0  0  0  0  0  0  0  0  0
    7.1962    2.8100    0.0000 H   0  0  0  0  0  0  0  0  0  0  0  0
    7.4231    1.9631    0.0000 H   0  0  0  0  0  0  0  0  0  0  0  0
    5.6910   -1.9631    0.0000 H   0  0  0  0  0  0  0  0  0  0  0  0
    5.4641   -2.8100    0.0000 H   0  0  0  0  0  0  0  0  0  0  0  0
    6.3110   -3.0369    0.0000 H   0  0  0  0  0  0  0  0  0  0  0  0
    9.1360    0.6900    0.0000 H   0  0  0  0  0  0  0  0  0  0  0  0
    6.3301   -0.6900    0.0000 H   0  0  0  0  0  0  0  0  0  0  0  0
    7.1962    0.8100    0.0000 H   0  0  0  0  0  0  0  0  0  0  0  0
    8.2700   -0.8100    0.0000 H   0  0  0  0  0  0  0  0  0  0  0  0
  1 35  1  0  0  0  0
  1 39  1  0  0  0  0
  2 36  1  0  0  0  0
  2 40  1  0  0  0  0
  3 25  1  0  0  0  0
  3 45  1  0  0  0  0
  4 26  1  0  0  0  0
  4 46  1  0  0  0  0
  5 35  1  0  0  0  0
  5 43  1  0  0  0  0
  6 36  1  0  0  0  0
  6 44  1  0  0  0  0
  7 27  1  0  0  0  0
  7 97  1  0  0  0  0
  8 28  1  0  0  0  0
  8 98  1  0  0  0  0
  9 29  1  0  0  0  0
  9 99  1  0  0  0  0
 10 30  1  0  0  0  0
 10100  1  0  0  0  0
 11 31  1  0  0  0  0
 11101  1  0  0  0  0
 12 32  1  0  0  0  0
 12102  1  0  0  0  0
 13 33  1  0  0  0  0
 13103  1  0  0  0  0
 14 34  1  0  0  0  0
 14104  1  0  0  0  0
 15 37  1  0  0  0  0
 15105  1  0  0  0  0
 16 38  1  0  0  0  0
 16106  1  0  0  0  0
 17 41  1  0  0  0  0
 17107  1  0  0  0  0
 18 42  1  0  0  0  0
 18108  1  0  0  0  0
 19 45  1  0  0  0  0
 19 49  1  0  0  0  0
 20 46  1  0  0  0  0
 20 50  1  0  0  0  0
 21 47  1  0  0  0  0
 21109  1  0  0  0  0
 22 48  1  0  0  0  0
 22110  1  0  0  0  0
 23 49  2  0  0  0  0
 24 50  2  0  0  0  0
 25 27  1  0  0  0  0
 25 43  1  0  0  0  0
 25 69  1  0  0  0  0
 26 28  1  0  0  0  0
 26 44  1  0  0  0  0
 26 70  1  0  0  0  0
 27 33  1  0  0  0  0
 27 71  1  0  0  0  0
 28 34  1  0  0  0  0
 28 72  1  0  0  0  0
 29 31  1  0  0  0  0
 29 35  1  0  0  0  0
 29 73  1  0  0  0  0
 30 32  1  0  0  0  0
 30 36  1  0  0  0  0
 30 74  1  0  0  0  0
 31 37  1  0  0  0  0
 31 75  1  0  0  0  0
 32 38  1  0  0  0  0
 32 76  1  0  0  0  0
 33 41  1  0  0  0  0
 33 77  1  0  0  0  0
 34 42  1  0  0  0  0
 34 78  1  0  0  0  0
 35 79  1  0  0  0  0
 36 80  1  0  0  0  0
 37 39  1  0  0  0  0
 37 81  1  0  0  0  0
 38 40  1  0  0  0  0
 38 82  1  0  0  0  0
 39 47  1  0  0  0  0
 39 83  1  0  0  0  0
 40 48  1  0  0  0  0
 40 84  1  0  0  0  0
 41 45  1  0  0  0  0
 41 85  1  0  0  0  0
 42 46  1  0  0  0  0
 42 86  1  0  0  0  0
 43 87  1  0  0  0  0
 43 88  1  0  0  0  0
 44 89  1  0  0  0  0
 44 90  1  0  0  0  0
 45 91  1  0  0  0  0
 46 92  1  0  0  0  0
 47 93  1  0  0  0  0
 47 94  1  0  0  0  0
 48 95  1  0  0  0  0
 48 96  1  0  0  0  0
 49 51  1  0  0  0  0
 50 52  1  0  0  0  0
 51 53  1  0  0  0  0
 51 55  2  0  0  0  0
 52 54  1  0  0  0  0
 52 56  2  0  0  0  0
 53111  1  0  0  0  0
 53112  1  0  0  0  0
 53113  1  0  0  0  0
 54114  1  0  0  0  0
 54115  1  0  0  0  0
 54116  1  0  0  0  0
 55 57  1  0  0  0  0
 55117  1  0  0  0  0
 56 58  1  0  0  0  0
 56118  1  0  0  0  0
 57 59  2  0  0  0  0
 57119  1  0  0  0  0
 58 60  2  0  0  0  0
 58120  1  0  0  0  0
 59 61  1  0  0  0  0
 59121  1  0  0  0  0
 60 62  1  0  0  0  0
 60122  1  0  0  0  0
 61 63  1  0  0  0  0
 61 65  2  0  0  0  0
 62 64  1  0  0  0  0
 62 66  2  0  0  0  0
 63123  1  0  0  0  0
 63124  1  0  0  0  0
 63125  1  0  0  0  0
 64126  1  0  0  0  0
 64127  1  0  0  0  0
 64128  1  0  0  0  0
 65 67  1  0  0  0  0
 65129  1  0  0  0  0
 66 68  1  0  0  0  0
 66130  1  0  0  0  0
 67 68  2  0  0  0  0
 67131  1  0  0  0  0
 68132  1  0  0  0  0
M  END
>  <PUBCHEM_COMPOUND_CID>
5847395

>  <PUBCHEM_COMPOUND_CANONICALIZED>
1

>  <PUBCHEM_CACTVS_COMPLEXITY>
1730

>  <PUBCHEM_CACTVS_HBOND_ACCEPTOR>
24

>  <PUBCHEM_CACTVS_HBOND_DONOR>
14

>  <PUBCHEM_CACTVS_ROTATABLE_BOND>
20

>  <PUBCHEM_CACTVS_SUBSKEYS>
AAADcfB8PgAAAAAAAAAAAAAAAAAAAAAAAAAkSJEgAAAAAAAAAAAAGgAACAAADBSwgAMCCAAABgCIAiDSCAAAAAAgAAAICAEAAEgZFAIAIQAiUAAFAAAPoYPAYAwAAAAAAAAAAAAAAAAAAAAAAAAAAAAAAA==

>  <PUBCHEM_IUPAC_OPENEYE_NAME>
bis[3,4,5-trihydroxy-6-[[3,4,5-trihydroxy-6-(hydroxymethyl)tetrahydropyran-2-yl]oxymethyl]tetrahydropyran-2-yl] (2Z,4E,6E,8E,10Z,12E,14E)-2,6,11,15-tetramethylhexadeca-2,4,6,8,10,12,14-heptaenedioate

>  <PUBCHEM_IUPAC_CAS_NAME>
(2Z,4E,6E,8E,10Z,12E,14E)-2,6,11,15-tetramethylhexadeca-2,4,6,8,10,12,14-heptaenedioic acid bis[3,4,5-trihydroxy-6-[[3,4,5-trihydroxy-6-(hydroxymethyl)-2-oxanyl]oxymethyl]-2-oxanyl] ester

>  <PUBCHEM_IUPAC_NAME>
bis[3,4,5-trihydroxy-6-[[3,4,5-trihydroxy-6-(hydroxymethyl)oxan-2-yl]oxymethyl]oxan-2-yl] (2Z,4E,6E,8E,10Z,12E,14E)-2,6,11,15-tetramethylhexadeca-2,4,6,8,10,12,14-heptaenedioate

>  <PUBCHEM_IUPAC_SYSTEMATIC_NAME>
bis[6-[[6-(hydroxymethyl)-3,4,5-tris(oxidanyl)oxan-2-yl]oxymethyl]-3,4,5-tris(oxidanyl)oxan-2-yl] (2Z,4E,6E,8E,10Z,12E,14E)-2,6,11,15-tetramethylhexadeca-2,4,6,8,10,12,14-heptaenedioate

>  <PUBCHEM_IUPAC_TRADITIONAL_NAME>
(2Z,4E,6E,8E,10Z,12E,14E)-2,6,11,15-tetramethylhexadeca-2,4,6,8,10,12,14-heptaenedioic acid bis[3,4,5-trihydroxy-6-[(3,4,5-trihydroxy-6-methylol-tetrahydropyran-2-yl)oxymethyl]tetrahydropyran-2-yl] ester

>  <PUBCHEM_IUPAC_INCHI>
InChI=1S/C44H64O24/c1-19(11-7-13-21(3)39(59)67-43-37(57)33(53)29(49)25(65-43)17-61-41-35(55)31(51)27(47)23(15-45)63-41)9-5-6-10-20(2)12-8-14-22(4)40(60)68-44-38(58)34(54)30(50)26(66-44)18-62-42-36(56)32(52)28(48)24(16-46)64-42/h5-14,23-38,41-58H,15-18H2,1-4H3/b6-5+,11-7+,12-8+,19-9-,20-10+,21-13+,22-14-

>  <PUBCHEM_IUPAC_INCHIKEY>
SEBIKDIMAPSUBY-WOPHWFRHSA-N

>  <PUBCHEM_XLOGP3_AA>
-2.5

>  <PUBCHEM_EXACT_MASS>
976.379

>  <PUBCHEM_MOLECULAR_FORMULA>
C44H64O24

>  <PUBCHEM_MOLECULAR_WEIGHT>
976.972

>  <PUBCHEM_OPENEYE_CAN_SMILES>
CC(=CC=CC=C(C)C=CC=C(C)C(=O)OC1C(C(C(C(O1)COC2C(C(C(C(O2)CO)O)O)O)O)O)O)C=CC=C(C)C(=O)OC3C(C(C(C(O3)COC4C(C(C(C(O4)CO)O)O)O)O)O)O

>  <PUBCHEM_OPENEYE_ISO_SMILES>
C/C(=C\C=C\C=C(\C)/C=C/C=C(\C)/C(=O)OC1C(C(C(C(O1)COC2C(C(C(C(O2)CO)O)O)O)O)O)O)/C=C/C=C(/C)\C(=O)OC3C(C(C(C(O3)COC4C(C(C(C(O4)CO)O)O)O)O)O)O

>  <PUBCHEM_CACTVS_TPSA>
391

>  <PUBCHEM_MONOISOTOPIC_WEIGHT>
976.379

>  <PUBCHEM_TOTAL_CHARGE>
0

>  <PUBCHEM_HEAVY_ATOM_COUNT>
68

>  <PUBCHEM_ATOM_DEF_STEREO_COUNT>
0

>  <PUBCHEM_ATOM_UDEF_STEREO_COUNT>
20

>  <PUBCHEM_BOND_DEF_STEREO_COUNT>
7

>  <PUBCHEM_BOND_UDEF_STEREO_COUNT>
0

>  <PUBCHEM_ISOTOPIC_ATOM_COUNT>
0

>  <PUBCHEM_COMPONENT_COUNT>
1

>  <PUBCHEM_CACTVS_TAUTO_COUNT>
1

>  <PUBCHEM_COORDINATE_TYPE>
1
5
255

>  <PUBCHEM_BONDANNOTATIONS>
30  10  3
31  11  3
32  12  3
33  13  3
34  14  3
37  15  3
38  16  3
41  17  3
42  18  3
45  19  3
46  20  3
25  43  3
26  44  3
39  47  3
40  48  3
35  5  3
36  6  3
27  7  3
28  8  3
29  9  3

$$$$
