585998
 OpenBabel06101807152D

 45 50  0  0  1  0  0  0  0  0999 V2000
    9.3783    1.3933    0.0000 O   0  0  0  0  0  0  0  0  0  0  0  0
    7.0978   -0.6600    0.0000 O   0  0  0  0  0  0  0  0  0  0  0  0
    6.1262    0.8270    0.0000 O   0  0  0  0  0  0  0  0  0  0  0  0
   13.0271    0.2035    0.0000 O   0  0  0  0  0  0  0  0  0  0  0  0
   13.0271   -1.4060    0.0000 O   0  0  0  0  0  0  0  0  0  0  0  0
    2.5822    0.6256    0.0000 O   0  0  0  0  0  0  0  0  0  0  0  0
    2.5850   -0.9839    0.0000 O   0  0  0  0  0  0  0  0  0  0  0  0
    8.5693   -0.0080    0.0000 C   0  0  3  0  0  0  0  0  0  0  0  0
    7.9001    0.7352    0.0000 C   0  0  3  0  0  0  0  0  0  0  0  0
    9.4828    0.3988    0.0000 C   0  0  3  0  0  0  0  0  0  0  0  0
    6.9931    0.3285    0.0000 C   0  0  3  0  0  0  0  0  0  0  0  0
    8.4001    1.6012    0.0000 C   0  0  0  0  0  0  0  0  0  0  0  0
    8.0700   -0.8676    0.0000 C   0  0  0  0  0  0  0  0  0  0  0  0
   10.3488   -0.1012    0.0000 C   0  0  0  0  0  0  0  0  0  0  0  0
   11.2149    0.3988    0.0000 C   0  0  0  0  0  0  0  0  0  0  0  0
   10.3488   -1.1012    0.0000 C   0  0  0  0  0  0  0  0  0  0  0  0
    5.2610    0.3255    0.0000 C   0  0  0  0  0  0  0  0  0  0  0  0
   12.0809   -0.1012    0.0000 C   0  0  0  0  0  0  0  0  0  0  0  0
   11.2149   -1.6012    0.0000 C   0  0  0  0  0  0  0  0  0  0  0  0
   12.0809   -1.1012    0.0000 C   0  0  0  0  0  0  0  0  0  0  0  0
    4.3941    0.8240    0.0000 C   0  0  0  0  0  0  0  0  0  0  0  0
    5.2627   -0.6745    0.0000 C   0  0  0  0  0  0  0  0  0  0  0  0
   13.6107   -0.6012    0.0000 C   0  0  0  0  0  0  0  0  0  0  0  0
    3.5290    0.3225    0.0000 C   0  0  0  0  0  0  0  0  0  0  0  0
    4.3976   -1.1760    0.0000 C   0  0  0  0  0  0  0  0  0  0  0  0
    3.5307   -0.6775    0.0000 C   0  0  0  0  0  0  0  0  0  0  0  0
    2.0000   -0.1801    0.0000 C   0  0  0  0  0  0  0  0  0  0  0  0
    9.1372   -0.6404    0.0000 H   0  0  0  0  0  0  0  0  0  0  0  0
    7.3306    1.3661    0.0000 H   0  0  0  0  0  0  0  0  0  0  0  0
   10.1957    0.8617    0.0000 H   0  0  0  0  0  0  0  0  0  0  0  0
    7.0357    1.1774    0.0000 H   0  0  0  0  0  0  0  0  0  0  0  0
    8.5917    2.1909    0.0000 H   0  0  0  0  0  0  0  0  0  0  0  0
    7.8337    1.8534    0.0000 H   0  0  0  0  0  0  0  0  0  0  0  0
    7.8776   -1.4569    0.0000 H   0  0  0  0  0  0  0  0  0  0  0  0
    8.6359   -1.1209    0.0000 H   0  0  0  0  0  0  0  0  0  0  0  0
   11.2149    1.0188    0.0000 H   0  0  0  0  0  0  0  0  0  0  0  0
    9.8119   -1.4112    0.0000 H   0  0  0  0  0  0  0  0  0  0  0  0
   11.2149   -2.2212    0.0000 H   0  0  0  0  0  0  0  0  0  0  0  0
    4.3930    1.4440    0.0000 H   0  0  0  0  0  0  0  0  0  0  0  0
    5.8002   -0.9836    0.0000 H   0  0  0  0  0  0  0  0  0  0  0  0
   14.0716   -1.0159    0.0000 H   0  0  0  0  0  0  0  0  0  0  0  0
   14.0716   -0.1865    0.0000 H   0  0  0  0  0  0  0  0  0  0  0  0
    4.3986   -1.7960    0.0000 H   0  0  0  0  0  0  0  0  0  0  0  0
    1.5384    0.2338    0.0000 H   0  0  0  0  0  0  0  0  0  0  0  0
    1.5398   -0.5957    0.0000 H   0  0  0  0  0  0  0  0  0  0  0  0
  1 10  1  0  0  0  0
  1 12  1  0  0  0  0
  2 11  1  0  0  0  0
  2 13  1  0  0  0  0
  3 11  1  0  0  0  0
  3 17  1  0  0  0  0
  4 18  1  0  0  0  0
  4 23  1  0  0  0  0
  5 20  1  0  0  0  0
  5 23  1  0  0  0  0
  6 24  1  0  0  0  0
  6 27  1  0  0  0  0
  7 26  1  0  0  0  0
  7 27  1  0  0  0  0
  8  9  1  0  0  0  0
  8 10  1  0  0  0  0
  8 13  1  0  0  0  0
  8 28  1  0  0  0  0
  9 11  1  0  0  0  0
  9 12  1  0  0  0  0
  9 29  1  0  0  0  0
 10 14  1  0  0  0  0
 10 30  1  0  0  0  0
 11 31  1  0  0  0  0
 12 32  1  0  0  0  0
 12 33  1  0  0  0  0
 13 34  1  0  0  0  0
 13 35  1  0  0  0  0
 14 15  2  0  0  0  0
 14 16  1  0  0  0  0
 15 18  1  0  0  0  0
 15 36  1  0  0  0  0
 16 19  2  0  0  0  0
 16 37  1  0  0  0  0
 17 21  2  0  0  0  0
 17 22  1  0  0  0  0
 18 20  2  0  0  0  0
 19 20  1  0  0  0  0
 19 38  1  0  0  0  0
 21 24  1  0  0  0  0
 21 39  1  0  0  0  0
 22 25  2  0  0  0  0
 22 40  1  0  0  0  0
 23 41  1  0  0  0  0
 23 42  1  0  0  0  0
 24 26  2  0  0  0  0
 25 26  1  0  0  0  0
 25 43  1  0  0  0  0
 27 44  1  0  0  0  0
 27 45  1  0  0  0  0
M  END
>  <PUBCHEM_COMPOUND_CID>
585998

>  <PUBCHEM_COMPOUND_CANONICALIZED>
1

>  <PUBCHEM_CACTVS_COMPLEXITY>
544

>  <PUBCHEM_CACTVS_HBOND_ACCEPTOR>
7

>  <PUBCHEM_CACTVS_HBOND_DONOR>
0

>  <PUBCHEM_CACTVS_ROTATABLE_BOND>
3

>  <PUBCHEM_CACTVS_SUBSKEYS>
AAADceB4OAAAAAAAAAAAAAAAAAAAASJEiQAwYAAAAAASAEgBQAAAGgAAAAAADRSwmAMwDoAABACAAiBCAAACCAAgIAAIiAAGiIgdJyKEMRqiOCKlwBUOqAfA4PwOoQABCAAAQABCAAIQAACAAAAAAAAAAA==

>  <PUBCHEM_IUPAC_OPENEYE_NAME>
5-[[3-(1,3-benzodioxol-5-yl)-1,3,3a,4,6,6a-hexahydrofuro[3,4-c]furan-6-yl]oxy]-1,3-benzodioxole

>  <PUBCHEM_IUPAC_CAS_NAME>
5-[[3-(1,3-benzodioxol-5-yl)-1,3,3a,4,6,6a-hexahydrofuro[3,4-c]furan-6-yl]oxy]-1,3-benzodioxole

>  <PUBCHEM_IUPAC_NAME>
5-[[3-(1,3-benzodioxol-5-yl)-1,3,3a,4,6,6a-hexahydrofuro[3,4-c]furan-6-yl]oxy]-1,3-benzodioxole

>  <PUBCHEM_IUPAC_SYSTEMATIC_NAME>
5-[[3-(1,3-benzodioxol-5-yl)-1,3,3a,4,6,6a-hexahydrofuro[3,4-c]furan-6-yl]oxy]-1,3-benzodioxole

>  <PUBCHEM_IUPAC_TRADITIONAL_NAME>
5-[[3-(1,3-benzodioxol-5-yl)-1,3,3a,4,6,6a-hexahydrofuro[3,4-c]furan-6-yl]oxy]-1,3-benzodioxole

>  <PUBCHEM_IUPAC_INCHI>
InChI=1S/C20H18O7/c1-3-15-17(25-9-23-15)5-11(1)19-13-7-22-20(14(13)8-21-19)27-12-2-4-16-18(6-12)26-10-24-16/h1-6,13-14,19-20H,7-10H2

>  <PUBCHEM_IUPAC_INCHIKEY>
ZZMNWJVJUKMZJY-UHFFFAOYSA-N

>  <PUBCHEM_XLOGP3_AA>
3

>  <PUBCHEM_EXACT_MASS>
370.105

>  <PUBCHEM_MOLECULAR_FORMULA>
C20H18O7

>  <PUBCHEM_MOLECULAR_WEIGHT>
370.357

>  <PUBCHEM_OPENEYE_CAN_SMILES>
C1C2C(COC2OC3=CC4=C(C=C3)OCO4)C(O1)C5=CC6=C(C=C5)OCO6

>  <PUBCHEM_OPENEYE_ISO_SMILES>
C1C2C(COC2OC3=CC4=C(C=C3)OCO4)C(O1)C5=CC6=C(C=C5)OCO6

>  <PUBCHEM_CACTVS_TPSA>
64.6

>  <PUBCHEM_MONOISOTOPIC_WEIGHT>
370.105

>  <PUBCHEM_TOTAL_CHARGE>
0

>  <PUBCHEM_HEAVY_ATOM_COUNT>
27

>  <PUBCHEM_ATOM_DEF_STEREO_COUNT>
0

>  <PUBCHEM_ATOM_UDEF_STEREO_COUNT>
4

>  <PUBCHEM_BOND_DEF_STEREO_COUNT>
0

>  <PUBCHEM_BOND_UDEF_STEREO_COUNT>
0

>  <PUBCHEM_ISOTOPIC_ATOM_COUNT>
0

>  <PUBCHEM_COMPONENT_COUNT>
1

>  <PUBCHEM_CACTVS_TAUTO_COUNT>
1

>  <PUBCHEM_COORDINATE_TYPE>
1
5
255

>  <PUBCHEM_BONDANNOTATIONS>
10  30  3
11  31  3
14  15  8
14  16  8
15  18  8
16  19  8
17  21  8
17  22  8
18  20  8
19  20  8
21  24  8
22  25  8
24  26  8
25  26  8
8  28  3
9  29  3

$$$$
