586570
 OpenBabel06101807152D

 26 26  0  0  0  0  0  0  0  0999 V2000
    3.9680   -0.8242    0.0000 O   0  0  0  0  0  0  0  0  0  0  0  0
    4.4680    0.7146    0.0000 N   0  0  0  0  0  0  0  0  0  0  0  0
    5.7281   -0.5455    0.0000 C   0  0  0  0  0  0  0  0  0  0  0  0
    4.7770   -0.2365    0.0000 C   0  0  0  0  0  0  0  0  0  0  0  0
    3.1590   -0.2365    0.0000 C   0  0  0  0  0  0  0  0  0  0  0  0
    3.4680    0.7146    0.0000 C   0  0  0  0  0  0  0  0  0  0  0  0
    2.2079   -0.5455    0.0000 C   0  0  0  0  0  0  0  0  0  0  0  0
    5.9360   -1.5236    0.0000 C   0  0  0  0  0  0  0  0  0  0  0  0
    6.4712    0.1237    0.0000 C   0  0  0  0  0  0  0  0  0  0  0  0
    2.8802    1.5236    0.0000 C   0  0  0  0  0  0  0  0  0  0  0  0
    2.0000   -1.5236    0.0000 C   0  0  0  0  0  0  0  0  0  0  0  0
    6.3177   -0.7371    0.0000 H   0  0  0  0  0  0  0  0  0  0  0  0
    2.1216    0.0685    0.0000 H   0  0  0  0  0  0  0  0  0  0  0  0
    1.5883   -0.5238    0.0000 H   0  0  0  0  0  0  0  0  0  0  0  0
    5.3295   -1.6525    0.0000 H   0  0  0  0  0  0  0  0  0  0  0  0
    6.0649   -2.1301    0.0000 H   0  0  0  0  0  0  0  0  0  0  0  0
    6.5424   -1.3947    0.0000 H   0  0  0  0  0  0  0  0  0  0  0  0
    6.8861   -0.3371    0.0000 H   0  0  0  0  0  0  0  0  0  0  0  0
    6.9320    0.5385    0.0000 H   0  0  0  0  0  0  0  0  0  0  0  0
    6.0563    0.5844    0.0000 H   0  0  0  0  0  0  0  0  0  0  0  0
    3.3818    1.8880    0.0000 H   0  0  0  0  0  0  0  0  0  0  0  0
    2.5158    2.0252    0.0000 H   0  0  0  0  0  0  0  0  0  0  0  0
    2.3786    1.1592    0.0000 H   0  0  0  0  0  0  0  0  0  0  0  0
    1.3936   -1.3947    0.0000 H   0  0  0  0  0  0  0  0  0  0  0  0
    1.8711   -2.1301    0.0000 H   0  0  0  0  0  0  0  0  0  0  0  0
    2.6064   -1.6525    0.0000 H   0  0  0  0  0  0  0  0  0  0  0  0
  1  4  1  0  0  0  0
  1  5  1  0  0  0  0
  2  4  2  0  0  0  0
  2  6  1  0  0  0  0
  3  4  1  0  0  0  0
  3  8  1  0  0  0  0
  3  9  1  0  0  0  0
  3 12  1  0  0  0  0
  5  6  2  0  0  0  0
  5  7  1  0  0  0  0
  6 10  1  0  0  0  0
  7 11  1  0  0  0  0
  7 13  1  0  0  0  0
  7 14  1  0  0  0  0
  8 15  1  0  0  0  0
  8 16  1  0  0  0  0
  8 17  1  0  0  0  0
  9 18  1  0  0  0  0
  9 19  1  0  0  0  0
  9 20  1  0  0  0  0
 10 21  1  0  0  0  0
 10 22  1  0  0  0  0
 10 23  1  0  0  0  0
 11 24  1  0  0  0  0
 11 25  1  0  0  0  0
 11 26  1  0  0  0  0
M  END
>  <PUBCHEM_COMPOUND_CID>
586570

>  <PUBCHEM_COMPOUND_CANONICALIZED>
1

>  <PUBCHEM_CACTVS_COMPLEXITY>
125

>  <PUBCHEM_CACTVS_HBOND_ACCEPTOR>
2

>  <PUBCHEM_CACTVS_HBOND_DONOR>
0

>  <PUBCHEM_CACTVS_ROTATABLE_BOND>
2

>  <PUBCHEM_CACTVS_SUBSKEYS>
AAADccByIAAAAAAAAAAAAAAAAAAAAWAAAAAAAAAAAAAAAAABgAAAHgAAAAAADQyBlgAChBIIFECoAYVwVAQAiCArYCAAGAG1QAgGIAJEgCAPCCCgBADYSAIAAAAAAAAAAAAAAAAAAAAAAAAAAAAAAAAAAA==

>  <PUBCHEM_IUPAC_OPENEYE_NAME>
5-ethyl-2-isopropyl-4-methyl-oxazole

>  <PUBCHEM_IUPAC_CAS_NAME>
5-ethyl-4-methyl-2-propan-2-yloxazole

>  <PUBCHEM_IUPAC_NAME>
5-ethyl-4-methyl-2-propan-2-yl-1,3-oxazole

>  <PUBCHEM_IUPAC_SYSTEMATIC_NAME>
5-ethyl-4-methyl-2-propan-2-yl-1,3-oxazole

>  <PUBCHEM_IUPAC_TRADITIONAL_NAME>
5-ethyl-2-isopropyl-4-methyl-oxazole

>  <PUBCHEM_IUPAC_INCHI>
InChI=1S/C9H15NO/c1-5-8-7(4)10-9(11-8)6(2)3/h6H,5H2,1-4H3

>  <PUBCHEM_IUPAC_INCHIKEY>
IEYWMNYHQSDLRX-UHFFFAOYSA-N

>  <PUBCHEM_XLOGP3_AA>
2.7

>  <PUBCHEM_EXACT_MASS>
153.115

>  <PUBCHEM_MOLECULAR_FORMULA>
C9H15NO

>  <PUBCHEM_MOLECULAR_WEIGHT>
153.225

>  <PUBCHEM_OPENEYE_CAN_SMILES>
CCC1=C(N=C(O1)C(C)C)C

>  <PUBCHEM_OPENEYE_ISO_SMILES>
CCC1=C(N=C(O1)C(C)C)C

>  <PUBCHEM_CACTVS_TPSA>
26

>  <PUBCHEM_MONOISOTOPIC_WEIGHT>
153.115

>  <PUBCHEM_TOTAL_CHARGE>
0

>  <PUBCHEM_HEAVY_ATOM_COUNT>
11

>  <PUBCHEM_ATOM_DEF_STEREO_COUNT>
0

>  <PUBCHEM_ATOM_UDEF_STEREO_COUNT>
0

>  <PUBCHEM_BOND_DEF_STEREO_COUNT>
0

>  <PUBCHEM_BOND_UDEF_STEREO_COUNT>
0

>  <PUBCHEM_ISOTOPIC_ATOM_COUNT>
0

>  <PUBCHEM_COMPONENT_COUNT>
1

>  <PUBCHEM_CACTVS_TAUTO_COUNT>
2

>  <PUBCHEM_COORDINATE_TYPE>
1
5
255

>  <PUBCHEM_BONDANNOTATIONS>
1  4  8
1  5  8
2  4  8
2  6  8
5  6  8

$$$$
