59658623
 OpenBabel06101807152D

 15 14  0  0  1  0  0  0  0  0999 V2000
    3.4030   -0.1900    0.0000 P   0  0  3  0  0  0  0  0  0  0  0  0
    4.2690    0.3100    0.0000 O   0  0  0  0  0  0  0  0  0  0  0  0
    2.5369   -0.6900    0.0000 O   0  3  0  0  0  0  0  0  0  0  0  0
    2.9030    0.6760    0.0000 O   0  0  0  0  0  0  0  0  0  0  0  0
    3.9030   -1.0560    0.0000 O   0  0  0  0  0  0  0  0  0  0  0  0
    6.8671   -0.1900    0.0000 O   0  5  0  0  0  0  0  0  0  0  0  0
    6.0010    1.3100    0.0000 O   0  0  0  0  0  0  0  0  0  0  0  0
    5.1350   -0.1900    0.0000 C   0  0  0  0  0  0  0  0  0  0  0  0
    6.0010    0.3100    0.0000 C   0  0  0  0  0  0  0  0  0  0  0  0
    5.1350   -1.1900    0.0000 C   0  0  0  0  0  0  0  0  0  0  0  0
    2.0000   -0.3800    0.0000 H   0  0  0  0  0  0  0  0  0  0  0  0
    2.5369   -1.3100    0.0000 H   0  0  0  0  0  0  0  0  0  0  0  0
    3.2130    1.2130    0.0000 H   0  0  0  0  0  0  0  0  0  0  0  0
    4.5981   -1.5000    0.0000 H   0  0  0  0  0  0  0  0  0  0  0  0
    5.6720   -1.5000    0.0000 H   0  0  0  0  0  0  0  0  0  0  0  0
  1  2  1  0  0  0  0
  1  3  1  0  0  0  0
  1  4  1  0  0  0  0
  1  5  2  0  0  0  0
  2  8  1  0  0  0  0
  3 11  1  0  0  0  0
  3 12  1  0  0  0  0
  4 13  1  0  0  0  0
  6  9  1  0  0  0  0
  7  9  2  0  0  0  0
  8  9  1  0  0  0  0
  8 10  2  0  0  0  0
 10 14  1  0  0  0  0
 10 15  1  0  0  0  0
M  CHG  2   3   1   6  -1
M  END
>  <PUBCHEM_COMPOUND_CID>
59658623

>  <PUBCHEM_COMPOUND_CANONICALIZED>
1

>  <PUBCHEM_CACTVS_COMPLEXITY>
202

>  <PUBCHEM_CACTVS_HBOND_ACCEPTOR>
5

>  <PUBCHEM_CACTVS_HBOND_DONOR>
2

>  <PUBCHEM_CACTVS_ROTATABLE_BOND>
2

>  <PUBCHEM_CACTVS_SUBSKEYS>
AAADcYBAOAIAAAAAAAAAAAAAAAAAAAAAAAAAAAAAAAAAAAAAAAAAGgAACCAACASAgAAACAAAARCIQADSCIIAAAAAAAAAAABAAEABBAAAAAAAAAAAAAAAAIAAAAAAAAAAAAAAAAAAAAAAAAAAAAAAAAAAAA==

>  <PUBCHEM_IUPAC_OPENEYE_NAME>
2-[hydroxy(oxonio)phosphoryl]oxyprop-2-enoate

>  <PUBCHEM_IUPAC_CAS_NAME>
2-[hydroxy(oxonio)phosphoryl]oxy-2-propenoate

>  <PUBCHEM_IUPAC_NAME>
2-[hydroxy(oxonio)phosphoryl]oxyprop-2-enoate

>  <PUBCHEM_IUPAC_SYSTEMATIC_NAME>
2-[oxidaniumyl(oxidanyl)phosphoryl]oxyprop-2-enoate

>  <PUBCHEM_IUPAC_TRADITIONAL_NAME>
2-[hydroxy(oxonio)phosphoryl]oxyacrylate

>  <PUBCHEM_IUPAC_INCHI>
InChI=1S/C3H5O6P/c1-2(3(4)5)9-10(6,7)8/h1H2,(H,4,5)(H2,6,7,8)

>  <PUBCHEM_IUPAC_INCHIKEY>
DTBNBXWJWCWCIK-UHFFFAOYSA-N

>  <PUBCHEM_XLOGP3_AA>
-0.4

>  <PUBCHEM_EXACT_MASS>
167.982

>  <PUBCHEM_MOLECULAR_FORMULA>
C3H5O6P

>  <PUBCHEM_MOLECULAR_WEIGHT>
168.041

>  <PUBCHEM_OPENEYE_CAN_SMILES>
C=C(C(=O)[O-])OP(=O)([OH2+])O

>  <PUBCHEM_OPENEYE_ISO_SMILES>
C=C(C(=O)[O-])OP(=O)([OH2+])O

>  <PUBCHEM_CACTVS_TPSA>
87.7

>  <PUBCHEM_MONOISOTOPIC_WEIGHT>
167.982

>  <PUBCHEM_TOTAL_CHARGE>
0

>  <PUBCHEM_HEAVY_ATOM_COUNT>
10

>  <PUBCHEM_ATOM_DEF_STEREO_COUNT>
0

>  <PUBCHEM_ATOM_UDEF_STEREO_COUNT>
0

>  <PUBCHEM_BOND_DEF_STEREO_COUNT>
0

>  <PUBCHEM_BOND_UDEF_STEREO_COUNT>
0

>  <PUBCHEM_ISOTOPIC_ATOM_COUNT>
0

>  <PUBCHEM_COMPONENT_COUNT>
1

>  <PUBCHEM_CACTVS_TAUTO_COUNT>
2

>  <PUBCHEM_COORDINATE_TYPE>
1
5
255

$$$$
