5969616
 OpenBabel06101807152D

 46 48  0  0  0  0  0  0  0  0999 V2000
    2.5369   -2.5722    0.0000 O   0  0  0  0  0  0  0  0  0  0  0  0
    9.3274   -1.1983    0.0000 O   0  0  0  0  0  0  0  0  0  0  0  0
   12.5271    3.0162    0.0000 O   0  0  0  0  0  0  0  0  0  0  0  0
   11.1914    4.5048    0.0000 O   0  0  0  0  0  0  0  0  0  0  0  0
    6.0812   -4.3770    0.0000 N   0  0  0  0  0  0  0  0  0  0  0  0
    7.6811   -0.6602    0.0000 N   0  0  0  0  0  0  0  0  0  0  0  0
    6.0812   -2.7675    0.0000 C   0  0  0  0  0  0  0  0  0  0  0  0
    5.1350   -3.0722    0.0000 C   0  0  0  0  0  0  0  0  0  0  0  0
    6.3919   -1.8170    0.0000 C   0  0  0  0  0  0  0  0  0  0  0  0
    5.1350   -4.0722    0.0000 C   0  0  0  0  0  0  0  0  0  0  0  0
    6.6648   -3.5722    0.0000 C   0  0  0  0  0  0  0  0  0  0  0  0
    7.3704   -1.6107    0.0000 C   0  0  0  0  0  0  0  0  0  0  0  0
    4.2690   -2.5722    0.0000 C   0  0  0  0  0  0  0  0  0  0  0  0
    4.2690   -4.5722    0.0000 C   0  0  0  0  0  0  0  0  0  0  0  0
    3.4030   -3.0722    0.0000 C   0  0  0  0  0  0  0  0  0  0  0  0
    3.4030   -4.0722    0.0000 C   0  0  0  0  0  0  0  0  0  0  0  0
    8.6596   -0.4540    0.0000 C   0  0  0  0  0  0  0  0  0  0  0  0
    8.9702    0.4965    0.0000 C   0  0  0  0  0  0  0  0  0  0  0  0
   10.2594    1.6532    0.0000 C   0  0  0  0  0  0  0  0  0  0  0  0
    9.9487    0.7027    0.0000 C   0  0  0  0  0  0  0  0  0  0  0  0
   11.2379    1.8595    0.0000 C   0  0  0  0  0  0  0  0  0  0  0  0
    9.5916    2.3976    0.0000 C   0  0  0  0  0  0  0  0  0  0  0  0
   11.5486    2.8100    0.0000 C   0  0  0  0  0  0  0  0  0  0  0  0
   10.8807    3.5543    0.0000 C   0  0  0  0  0  0  0  0  0  0  0  0
    9.9022    3.3481    0.0000 C   0  0  0  0  0  0  0  0  0  0  0  0
   13.1949    2.2719    0.0000 C   0  0  0  0  0  0  0  0  0  0  0  0
    6.3713   -1.1973    0.0000 H   0  0  0  0  0  0  0  0  0  0  0  0
    5.7781   -1.7296    0.0000 H   0  0  0  0  0  0  0  0  0  0  0  0
    7.3910   -2.2304    0.0000 H   0  0  0  0  0  0  0  0  0  0  0  0
    7.9842   -1.6981    0.0000 H   0  0  0  0  0  0  0  0  0  0  0  0
    7.2848   -3.5722    0.0000 H   0  0  0  0  0  0  0  0  0  0  0  0
    6.2738   -4.9663    0.0000 H   0  0  0  0  0  0  0  0  0  0  0  0
    4.2690   -1.9522    0.0000 H   0  0  0  0  0  0  0  0  0  0  0  0
    4.2690   -5.1922    0.0000 H   0  0  0  0  0  0  0  0  0  0  0  0
    2.8660   -4.3822    0.0000 H   0  0  0  0  0  0  0  0  0  0  0  0
    7.2670   -0.1988    0.0000 H   0  0  0  0  0  0  0  0  0  0  0  0
    8.5562    0.9580    0.0000 H   0  0  0  0  0  0  0  0  0  0  0  0
    2.0000   -2.8822    0.0000 H   0  0  0  0  0  0  0  0  0  0  0  0
   10.3628    0.2413    0.0000 H   0  0  0  0  0  0  0  0  0  0  0  0
   11.6520    1.3980    0.0000 H   0  0  0  0  0  0  0  0  0  0  0  0
    8.9849    2.2697    0.0000 H   0  0  0  0  0  0  0  0  0  0  0  0
    9.4881    3.8095    0.0000 H   0  0  0  0  0  0  0  0  0  0  0  0
   10.7773    4.9663    0.0000 H   0  0  0  0  0  0  0  0  0  0  0  0
   12.7334    1.8578    0.0000 H   0  0  0  0  0  0  0  0  0  0  0  0
   13.6090    1.8104    0.0000 H   0  0  0  0  0  0  0  0  0  0  0  0
   13.6564    2.6860    0.0000 H   0  0  0  0  0  0  0  0  0  0  0  0
  1 15  1  0  0  0  0
  1 38  1  0  0  0  0
  2 17  2  0  0  0  0
  3 23  1  0  0  0  0
  3 26  1  0  0  0  0
  4 24  1  0  0  0  0
  4 43  1  0  0  0  0
  5 10  1  0  0  0  0
  5 11  1  0  0  0  0
  5 32  1  0  0  0  0
  6 12  1  0  0  0  0
  6 17  1  0  0  0  0
  6 36  1  0  0  0  0
  7  8  1  0  0  0  0
  7  9  1  0  0  0  0
  7 11  2  0  0  0  0
  8 10  2  0  0  0  0
  8 13  1  0  0  0  0
  9 12  1  0  0  0  0
  9 27  1  0  0  0  0
  9 28  1  0  0  0  0
 10 14  1  0  0  0  0
 11 31  1  0  0  0  0
 12 29  1  0  0  0  0
 12 30  1  0  0  0  0
 13 15  2  0  0  0  0
 13 33  1  0  0  0  0
 14 16  2  0  0  0  0
 14 34  1  0  0  0  0
 15 16  1  0  0  0  0
 16 35  1  0  0  0  0
 17 18  1  0  0  0  0
 18 20  2  0  0  0  0
 18 37  1  0  0  0  0
 19 20  1  0  0  0  0
 19 21  2  0  0  0  0
 19 22  1  0  0  0  0
 20 39  1  0  0  0  0
 21 23  1  0  0  0  0
 21 40  1  0  0  0  0
 22 25  2  0  0  0  0
 22 41  1  0  0  0  0
 23 24  2  0  0  0  0
 24 25  1  0  0  0  0
 25 42  1  0  0  0  0
 26 44  1  0  0  0  0
 26 45  1  0  0  0  0
 26 46  1  0  0  0  0
M  END
>  <PUBCHEM_COMPOUND_CID>
5969616

>  <PUBCHEM_COMPOUND_CANONICALIZED>
1

>  <PUBCHEM_CACTVS_COMPLEXITY>
498

>  <PUBCHEM_CACTVS_HBOND_ACCEPTOR>
4

>  <PUBCHEM_CACTVS_HBOND_DONOR>
4

>  <PUBCHEM_CACTVS_ROTATABLE_BOND>
6

>  <PUBCHEM_CACTVS_SUBSKEYS>
AAADceB7OAAAAAAAAAAAAAAAAAAAAWAAAAAwYAAAAAAAAFgB9AAAHgAQCAAADAzBngY+xvLJlgCoAzV3VACCiCAxIiAI2aA+7NgNJuLGsZuEcCtk1hHL+Yew0PIOoEABAAACQABAgAIAAASAAAAAAAAAAA==

>  <PUBCHEM_IUPAC_OPENEYE_NAME>
(E)-N-[2-(5-hydroxy-1H-indol-3-yl)ethyl]-3-(4-hydroxy-3-methoxy-phenyl)prop-2-enamide

>  <PUBCHEM_IUPAC_CAS_NAME>
(E)-N-[2-(5-hydroxy-1H-indol-3-yl)ethyl]-3-(4-hydroxy-3-methoxyphenyl)-2-propenamide

>  <PUBCHEM_IUPAC_NAME>
(E)-N-[2-(5-hydroxy-1H-indol-3-yl)ethyl]-3-(4-hydroxy-3-methoxyphenyl)prop-2-enamide

>  <PUBCHEM_IUPAC_SYSTEMATIC_NAME>
(E)-3-(3-methoxy-4-oxidanyl-phenyl)-N-[2-(5-oxidanyl-1H-indol-3-yl)ethyl]prop-2-enamide

>  <PUBCHEM_IUPAC_TRADITIONAL_NAME>
(E)-N-[2-(5-hydroxy-1H-indol-3-yl)ethyl]-3-(4-hydroxy-3-methoxy-phenyl)acrylamide

>  <PUBCHEM_IUPAC_INCHI>
InChI=1S/C20H20N2O4/c1-26-19-10-13(2-6-18(19)24)3-7-20(25)21-9-8-14-12-22-17-5-4-15(23)11-16(14)17/h2-7,10-12,22-24H,8-9H2,1H3,(H,21,25)/b7-3+

>  <PUBCHEM_IUPAC_INCHIKEY>
WGHKJYWENWLOMY-XVNBXDOJSA-N

>  <PUBCHEM_XLOGP3_AA>
3

>  <PUBCHEM_EXACT_MASS>
352.142

>  <PUBCHEM_MOLECULAR_FORMULA>
C20H20N2O4

>  <PUBCHEM_MOLECULAR_WEIGHT>
352.39

>  <PUBCHEM_OPENEYE_CAN_SMILES>
COC1=C(C=CC(=C1)C=CC(=O)NCCC2=CNC3=C2C=C(C=C3)O)O

>  <PUBCHEM_OPENEYE_ISO_SMILES>
COC1=C(C=CC(=C1)/C=C/C(=O)NCCC2=CNC3=C2C=C(C=C3)O)O

>  <PUBCHEM_CACTVS_TPSA>
94.6

>  <PUBCHEM_MONOISOTOPIC_WEIGHT>
352.142

>  <PUBCHEM_TOTAL_CHARGE>
0

>  <PUBCHEM_HEAVY_ATOM_COUNT>
26

>  <PUBCHEM_ATOM_DEF_STEREO_COUNT>
0

>  <PUBCHEM_ATOM_UDEF_STEREO_COUNT>
0

>  <PUBCHEM_BOND_DEF_STEREO_COUNT>
1

>  <PUBCHEM_BOND_UDEF_STEREO_COUNT>
0

>  <PUBCHEM_ISOTOPIC_ATOM_COUNT>
0

>  <PUBCHEM_COMPONENT_COUNT>
1

>  <PUBCHEM_CACTVS_TAUTO_COUNT>
81

>  <PUBCHEM_COORDINATE_TYPE>
1
5
255

>  <PUBCHEM_BONDANNOTATIONS>
10  14  8
13  15  8
14  16  8
15  16  8
19  21  8
19  22  8
21  23  8
22  25  8
23  24  8
24  25  8
5  10  8
5  11  8
7  11  8
7  8  8
8  10  8
8  13  8

$$$$
