599030
 OpenBabel06101807152D

 52 54  0  0  1  0  0  0  0  0999 V2000
    6.8671   -1.0950    0.0000 O   0  0  0  0  0  0  0  0  0  0  0  0
    6.0010    0.4050    0.0000 O   0  0  0  0  0  0  0  0  0  0  0  0
    7.7331    2.4050    0.0000 O   0  0  0  0  0  0  0  0  0  0  0  0
    5.1350   -1.0950    0.0000 O   0  0  0  0  0  0  0  0  0  0  0  0
    8.9900    2.6602    0.0000 O   0  0  0  0  0  0  0  0  0  0  0  0
    6.8671   -3.0950    0.0000 O   0  0  0  0  0  0  0  0  0  0  0  0
    5.1350   -4.0950    0.0000 O   0  0  0  0  0  0  0  0  0  0  0  0
    3.4030   -3.0950    0.0000 O   0  0  0  0  0  0  0  0  0  0  0  0
    6.0010    3.4050    0.0000 O   0  0  0  0  0  0  0  0  0  0  0  0
    7.7331    3.4050    0.0000 O   0  0  0  0  0  0  0  0  0  0  0  0
    2.5369   -1.5950    0.0000 O   0  0  0  0  0  0  0  0  0  0  0  0
    7.7331    0.4050    0.0000 C   0  0  3  0  0  0  0  0  0  0  0  0
    7.7331    1.4050    0.0000 C   0  0  3  0  0  0  0  0  0  0  0  0
    8.6793    0.1003    0.0000 C   0  0  3  0  0  0  0  0  0  0  0  0
    6.8671   -0.0950    0.0000 C   0  0  3  0  0  0  0  0  0  0  0  0
    9.2629    0.9050    0.0000 C   0  0  0  0  0  0  0  0  0  0  0  0
    8.6793    1.7097    0.0000 C   0  0  0  0  0  0  0  0  0  0  0  0
    6.8671    1.9050    0.0000 C   0  0  0  0  0  0  0  0  0  0  0  0
    8.9900   -0.8503    0.0000 C   0  0  0  0  0  0  0  0  0  0  0  0
    6.0010   -1.5950    0.0000 C   0  0  3  0  0  0  0  0  0  0  0  0
    6.0010   -2.5950    0.0000 C   0  0  3  0  0  0  0  0  0  0  0  0
    6.0010    1.4050    0.0000 C   0  0  0  0  0  0  0  0  0  0  0  0
    5.1350   -3.0950    0.0000 C   0  0  3  0  0  0  0  0  0  0  0  0
    4.2690   -2.5950    0.0000 C   0  0  3  0  0  0  0  0  0  0  0  0
    4.2690   -1.5950    0.0000 C   0  0  3  0  0  0  0  0  0  0  0  0
    6.8671    2.9050    0.0000 C   0  0  0  0  0  0  0  0  0  0  0  0
    3.4030   -1.0950    0.0000 C   0  0  0  0  0  0  0  0  0  0  0  0
    6.0010    4.4050    0.0000 C   0  0  0  0  0  0  0  0  0  0  0  0
    7.7987   -0.2115    0.0000 H   0  0  0  0  0  0  0  0  0  0  0  0
    8.2418   -0.3391    0.0000 H   0  0  0  0  0  0  0  0  0  0  0  0
    7.4040   -0.4050    0.0000 H   0  0  0  0  0  0  0  0  0  0  0  0
    9.7238    0.4903    0.0000 H   0  0  0  0  0  0  0  0  0  0  0  0
    9.7238    1.3197    0.0000 H   0  0  0  0  0  0  0  0  0  0  0  0
    8.4006   -1.0429    0.0000 H   0  0  0  0  0  0  0  0  0  0  0  0
    9.1826   -1.4396    0.0000 H   0  0  0  0  0  0  0  0  0  0  0  0
    9.5793   -0.6576    0.0000 H   0  0  0  0  0  0  0  0  0  0  0  0
    6.0010   -0.9750    0.0000 H   0  0  0  0  0  0  0  0  0  0  0  0
    6.0010   -3.2150    0.0000 H   0  0  0  0  0  0  0  0  0  0  0  0
    4.5981   -3.4050    0.0000 H   0  0  0  0  0  0  0  0  0  0  0  0
    5.4641    1.7150    0.0000 H   0  0  0  0  0  0  0  0  0  0  0  0
    8.2700    2.7150    0.0000 H   0  0  0  0  0  0  0  0  0  0  0  0
    3.7320   -2.2850    0.0000 H   0  0  0  0  0  0  0  0  0  0  0  0
    4.2690   -0.9750    0.0000 H   0  0  0  0  0  0  0  0  0  0  0  0
    3.8015   -0.6201    0.0000 H   0  0  0  0  0  0  0  0  0  0  0  0
    3.0044   -0.6201    0.0000 H   0  0  0  0  0  0  0  0  0  0  0  0
    6.8671   -3.7150    0.0000 H   0  0  0  0  0  0  0  0  0  0  0  0
    4.5981   -4.4050    0.0000 H   0  0  0  0  0  0  0  0  0  0  0  0
    3.4030   -3.7150    0.0000 H   0  0  0  0  0  0  0  0  0  0  0  0
    2.0000   -1.2850    0.0000 H   0  0  0  0  0  0  0  0  0  0  0  0
    6.6210    4.4050    0.0000 H   0  0  0  0  0  0  0  0  0  0  0  0
    6.0010    5.0250    0.0000 H   0  0  0  0  0  0  0  0  0  0  0  0
    5.3810    4.4050    0.0000 H   0  0  0  0  0  0  0  0  0  0  0  0
  1 15  1  0  0  0  0
  1 20  1  0  0  0  0
  2 15  1  0  0  0  0
  2 22  1  0  0  0  0
  3 13  1  0  0  0  0
  3 41  1  0  0  0  0
  4 20  1  0  0  0  0
  4 25  1  0  0  0  0
  5 17  2  0  0  0  0
  6 21  1  0  0  0  0
  6 46  1  0  0  0  0
  7 23  1  0  0  0  0
  7 47  1  0  0  0  0
  8 24  1  0  0  0  0
  8 48  1  0  0  0  0
  9 26  1  0  0  0  0
  9 28  1  0  0  0  0
 10 26  2  0  0  0  0
 11 27  1  0  0  0  0
 11 49  1  0  0  0  0
 12 13  1  0  0  0  0
 12 14  1  0  0  0  0
 12 15  1  0  0  0  0
 12 29  1  0  0  0  0
 13 17  1  0  0  0  0
 13 18  1  0  0  0  0
 14 16  1  0  0  0  0
 14 19  1  0  0  0  0
 14 30  1  0  0  0  0
 15 31  1  0  0  0  0
 16 17  1  0  0  0  0
 16 32  1  0  0  0  0
 16 33  1  0  0  0  0
 18 22  2  0  0  0  0
 18 26  1  0  0  0  0
 19 34  1  0  0  0  0
 19 35  1  0  0  0  0
 19 36  1  0  0  0  0
 20 21  1  0  0  0  0
 20 37  1  0  0  0  0
 21 23  1  0  0  0  0
 21 38  1  0  0  0  0
 22 40  1  0  0  0  0
 23 24  1  0  0  0  0
 23 39  1  0  0  0  0
 24 25  1  0  0  0  0
 24 42  1  0  0  0  0
 25 27  1  0  0  0  0
 25 43  1  0  0  0  0
 27 44  1  0  0  0  0
 27 45  1  0  0  0  0
 28 50  1  0  0  0  0
 28 51  1  0  0  0  0
 28 52  1  0  0  0  0
M  END
>  <PUBCHEM_COMPOUND_CID>
599030

>  <PUBCHEM_COMPOUND_CANONICALIZED>
1

>  <PUBCHEM_CACTVS_COMPLEXITY>
664

>  <PUBCHEM_CACTVS_HBOND_ACCEPTOR>
11

>  <PUBCHEM_CACTVS_HBOND_DONOR>
5

>  <PUBCHEM_CACTVS_ROTATABLE_BOND>
5

>  <PUBCHEM_CACTVS_SUBSKEYS>
AAADceB4PAAAAAAAAAAAAAAAAAAAAYAAAAAkQAAAAAAAAEAAAAAAGgAACAAADVSwgAMCCAAABgCIAoDSCAIACAAgIAAAAAFAAEgRFBYAIAAiQAAFoAAHMIHL7PzOgAAAAAAAAAAAAAAAAAAAAYAADAAAAA==

>  <PUBCHEM_IUPAC_OPENEYE_NAME>
methyl 4a-hydroxy-7-methyl-5-oxo-1-[3,4,5-trihydroxy-6-(hydroxymethyl)tetrahydropyran-2-yl]oxy-1,6,7,7a-tetrahydrocyclopenta[c]pyran-4-carboxylate

>  <PUBCHEM_IUPAC_CAS_NAME>
4a-hydroxy-7-methyl-5-oxo-1-[[3,4,5-trihydroxy-6-(hydroxymethyl)-2-oxanyl]oxy]-1,6,7,7a-tetrahydrocyclopenta[c]pyran-4-carboxylic acid methyl ester

>  <PUBCHEM_IUPAC_NAME>
methyl 4a-hydroxy-7-methyl-5-oxo-1-[3,4,5-trihydroxy-6-(hydroxymethyl)oxan-2-yl]oxy-1,6,7,7a-tetrahydrocyclopenta[c]pyran-4-carboxylate

>  <PUBCHEM_IUPAC_SYSTEMATIC_NAME>
methyl 1-[6-(hydroxymethyl)-3,4,5-tris(oxidanyl)oxan-2-yl]oxy-7-methyl-4a-oxidanyl-5-oxidanylidene-1,6,7,7a-tetrahydrocyclopenta[c]pyran-4-carboxylate

>  <PUBCHEM_IUPAC_TRADITIONAL_NAME>
4a-hydroxy-5-keto-7-methyl-1-(3,4,5-trihydroxy-6-methylol-tetrahydropyran-2-yl)oxy-1,6,7,7a-tetrahydrocyclopenta[c]pyran-4-carboxylic acid methyl ester

>  <PUBCHEM_IUPAC_INCHI>
InChI=1S/C17H24O11/c1-6-3-9(19)17(24)7(14(23)25-2)5-26-15(10(6)17)28-16-13(22)12(21)11(20)8(4-18)27-16/h5-6,8,10-13,15-16,18,20-22,24H,3-4H2,1-2H3

>  <PUBCHEM_IUPAC_INCHIKEY>
PRZVXHGUJJPSME-UHFFFAOYSA-N

>  <PUBCHEM_XLOGP3_AA>
-1.7

>  <PUBCHEM_EXACT_MASS>
404.132

>  <PUBCHEM_MOLECULAR_FORMULA>
C17H24O11

>  <PUBCHEM_MOLECULAR_WEIGHT>
404.368

>  <PUBCHEM_OPENEYE_CAN_SMILES>
CC1CC(=O)C2(C1C(OC=C2C(=O)OC)OC3C(C(C(C(O3)CO)O)O)O)O

>  <PUBCHEM_OPENEYE_ISO_SMILES>
CC1CC(=O)C2(C1C(OC=C2C(=O)OC)OC3C(C(C(C(O3)CO)O)O)O)O

>  <PUBCHEM_CACTVS_TPSA>
172

>  <PUBCHEM_MONOISOTOPIC_WEIGHT>
404.132

>  <PUBCHEM_TOTAL_CHARGE>
0

>  <PUBCHEM_HEAVY_ATOM_COUNT>
28

>  <PUBCHEM_ATOM_DEF_STEREO_COUNT>
0

>  <PUBCHEM_ATOM_UDEF_STEREO_COUNT>
9

>  <PUBCHEM_BOND_DEF_STEREO_COUNT>
0

>  <PUBCHEM_BOND_UDEF_STEREO_COUNT>
0

>  <PUBCHEM_ISOTOPIC_ATOM_COUNT>
0

>  <PUBCHEM_COMPONENT_COUNT>
1

>  <PUBCHEM_CACTVS_TAUTO_COUNT>
2

>  <PUBCHEM_COORDINATE_TYPE>
1
5
255

>  <PUBCHEM_BONDANNOTATIONS>
15  1  3
20  1  3
12  14  3
14  19  3
25  27  3
13  3  3
21  6  3
23  7  3
24  8  3

$$$$
