61126
 OpenBabel06101807152D

 27 28  0  0  1  0  0  0  0  0999 V2000
    3.2040   -1.7425    0.0000 O   0  0  0  0  0  0  0  0  0  0  0  0
    5.7890    0.1314    0.0000 C   0  0  0  0  0  0  0  0  0  0  0  0
    4.3901    0.1225    0.0000 C   0  0  3  0  0  0  0  0  0  0  0  0
    4.6489    1.0885    0.0000 C   0  0  3  0  0  0  0  0  0  0  0  0
    3.9123    2.0711    0.0000 C   0  0  0  0  0  0  0  0  0  0  0  0
    3.1691   -0.7431    0.0000 C   0  0  3  0  0  0  0  0  0  0  0  0
    2.6157    0.7773    0.0000 C   0  0  0  0  0  0  0  0  0  0  0  0
    6.2890   -0.7347    0.0000 C   0  0  0  0  0  0  0  0  0  0  0  0
    6.6550    0.6314    0.0000 C   0  0  0  0  0  0  0  0  0  0  0  0
    2.3400   -0.1839    0.0000 C   0  0  0  0  0  0  0  0  0  0  0  0
    2.0000    1.5653    0.0000 C   0  0  0  0  0  0  0  0  0  0  0  0
    4.5801   -0.4676    0.0000 H   0  0  0  0  0  0  0  0  0  0  0  0
    5.0992    1.5146    0.0000 H   0  0  0  0  0  0  0  0  0  0  0  0
    4.2301    2.6034    0.0000 H   0  0  0  0  0  0  0  0  0  0  0  0
    3.2992    2.1630    0.0000 H   0  0  0  0  0  0  0  0  0  0  0  0
    2.6268   -1.0437    0.0000 H   0  0  0  0  0  0  0  0  0  0  0  0
    5.7521   -1.0447    0.0000 H   0  0  0  0  0  0  0  0  0  0  0  0
    6.9650    0.0944    0.0000 H   0  0  0  0  0  0  0  0  0  0  0  0
    7.1920    0.9414    0.0000 H   0  0  0  0  0  0  0  0  0  0  0  0
    6.3450    1.1683    0.0000 H   0  0  0  0  0  0  0  0  0  0  0  0
    6.5990   -1.2716    0.0000 H   0  0  0  0  0  0  0  0  0  0  0  0
    6.8260   -0.4247    0.0000 H   0  0  0  0  0  0  0  0  0  0  0  0
    1.7574   -0.3960    0.0000 H   0  0  0  0  0  0  0  0  0  0  0  0
    2.4886    1.9470    0.0000 H   0  0  0  0  0  0  0  0  0  0  0  0
    1.6183    2.0539    0.0000 H   0  0  0  0  0  0  0  0  0  0  0  0
    1.5114    1.1836    0.0000 H   0  0  0  0  0  0  0  0  0  0  0  0
    2.6782   -2.0711    0.0000 H   0  0  0  0  0  0  0  0  0  0  0  0
  1  6  1  0  0  0  0
  1 27  1  0  0  0  0
  2  3  1  0  0  0  0
  2  4  1  0  0  0  0
  2  8  1  0  0  0  0
  2  9  1  0  0  0  0
  3  5  1  0  0  0  0
  3  6  1  0  0  0  0
  3 12  1  0  0  0  0
  4  5  1  0  0  0  0
  4  7  1  0  0  0  0
  4 13  1  0  0  0  0
  5 14  1  0  0  0  0
  5 15  1  0  0  0  0
  6 10  1  0  0  0  0
  6 16  1  0  0  0  0
  7 10  2  0  0  0  0
  7 11  1  0  0  0  0
  8 17  1  0  0  0  0
  8 21  1  0  0  0  0
  8 22  1  0  0  0  0
  9 18  1  0  0  0  0
  9 19  1  0  0  0  0
  9 20  1  0  0  0  0
 10 23  1  0  0  0  0
 11 24  1  0  0  0  0
 11 25  1  0  0  0  0
 11 26  1  0  0  0  0
M  END
>  <PUBCHEM_COMPOUND_CID>
61126

>  <PUBCHEM_COMPOUND_CANONICALIZED>
1

>  <PUBCHEM_CACTVS_COMPLEXITY>
215

>  <PUBCHEM_CACTVS_HBOND_ACCEPTOR>
1

>  <PUBCHEM_CACTVS_HBOND_DONOR>
1

>  <PUBCHEM_CACTVS_ROTATABLE_BOND>
0

>  <PUBCHEM_CACTVS_SUBSKEYS>
AAADceBwIAAAAAAAAAAAAAAAAABgAAAAAAAgQAAAAAAAAAAAAAAAGgAACAAADxSggAICAAAAAgCAAiBCAAAAAAAgAAAACAAAAAgAFAIAAQAAUAAEgAAIEAOAwFAPgAAAAAAAAAAAAAAAAAAAAAAAAAAAAA==

>  <PUBCHEM_IUPAC_OPENEYE_NAME>
4,6,6-trimethylbicyclo[3.1.1]hept-3-en-2-ol

>  <PUBCHEM_IUPAC_CAS_NAME>
4,6,6-trimethyl-2-bicyclo[3.1.1]hept-3-enol

>  <PUBCHEM_IUPAC_NAME>
4,6,6-trimethylbicyclo[3.1.1]hept-3-en-2-ol

>  <PUBCHEM_IUPAC_SYSTEMATIC_NAME>
4,6,6-trimethylbicyclo[3.1.1]hept-3-en-2-ol

>  <PUBCHEM_IUPAC_TRADITIONAL_NAME>
4,6,6-trimethylbicyclo[3.1.1]hept-3-en-2-ol

>  <PUBCHEM_IUPAC_INCHI>
InChI=1S/C10H16O/c1-6-4-9(11)8-5-7(6)10(8,2)3/h4,7-9,11H,5H2,1-3H3

>  <PUBCHEM_IUPAC_INCHIKEY>
WONIGEXYPVIKFS-UHFFFAOYSA-N

>  <PUBCHEM_XLOGP3_AA>
1.6

>  <PUBCHEM_EXACT_MASS>
152.12

>  <PUBCHEM_MOLECULAR_FORMULA>
C10H16O

>  <PUBCHEM_MOLECULAR_WEIGHT>
152.237

>  <PUBCHEM_OPENEYE_CAN_SMILES>
CC1=CC(C2CC1C2(C)C)O

>  <PUBCHEM_OPENEYE_ISO_SMILES>
CC1=CC(C2CC1C2(C)C)O

>  <PUBCHEM_CACTVS_TPSA>
20.2

>  <PUBCHEM_MONOISOTOPIC_WEIGHT>
152.12

>  <PUBCHEM_TOTAL_CHARGE>
0

>  <PUBCHEM_HEAVY_ATOM_COUNT>
11

>  <PUBCHEM_ATOM_DEF_STEREO_COUNT>
0

>  <PUBCHEM_ATOM_UDEF_STEREO_COUNT>
3

>  <PUBCHEM_BOND_DEF_STEREO_COUNT>
0

>  <PUBCHEM_BOND_UDEF_STEREO_COUNT>
0

>  <PUBCHEM_ISOTOPIC_ATOM_COUNT>
0

>  <PUBCHEM_COMPONENT_COUNT>
1

>  <PUBCHEM_CACTVS_TAUTO_COUNT>
1

>  <PUBCHEM_COORDINATE_TYPE>
1
5
255

>  <PUBCHEM_BONDANNOTATIONS>
6  1  3
3  2  3
4  2  3

$$$$
