6122885
 OpenBabel06101807152D

 45 45  0  0  1  0  0  0  0  0999 V2000
    6.0010   -0.5950    0.0000 S   0  0  0  0  0  0  0  0  0  0  0  0
    8.5991    0.9050    0.0000 S   0  0  0  0  0  0  0  0  0  0  0  0
    4.2690   -0.5950    0.0000 O   0  0  0  0  0  0  0  0  0  0  0  0
    4.2690   -3.5950    0.0000 O   0  0  0  0  0  0  0  0  0  0  0  0
    2.5369   -2.5950    0.0000 O   0  0  0  0  0  0  0  0  0  0  0  0
    6.0010   -2.5950    0.0000 O   0  0  0  0  0  0  0  0  0  0  0  0
    2.5369    0.4050    0.0000 O   0  0  0  0  0  0  0  0  0  0  0  0
    7.7331    0.4050    0.0000 O   0  0  0  0  0  0  0  0  0  0  0  0
    9.4651    1.4050    0.0000 O   0  0  0  0  0  0  0  0  0  0  0  0
    9.0991    0.0390    0.0000 O   0  0  0  0  0  0  0  0  0  0  0  0
    8.0991    1.7710    0.0000 O   0  0  0  0  0  0  0  0  0  0  0  0
    6.8671    0.9050    0.0000 N   0  0  0  0  0  0  0  0  0  0  0  0
    4.2690   -2.5950    0.0000 C   0  0  3  0  0  0  0  0  0  0  0  0
    3.4030   -2.0950    0.0000 C   0  0  3  0  0  0  0  0  0  0  0  0
    5.1350   -2.0950    0.0000 C   0  0  3  0  0  0  0  0  0  0  0  0
    3.4030   -1.0950    0.0000 C   0  0  3  0  0  0  0  0  0  0  0  0
    5.1350   -1.0950    0.0000 C   0  0  3  0  0  0  0  0  0  0  0  0
    2.5369   -0.5950    0.0000 C   0  0  0  0  0  0  0  0  0  0  0  0
    6.0010    0.4050    0.0000 C   0  0  0  0  0  0  0  0  0  0  0  0
    5.1350    0.9050    0.0000 C   0  0  0  0  0  0  0  0  0  0  0  0
    5.1350    1.9050    0.0000 C   0  0  0  0  0  0  0  0  0  0  0  0
    4.2690    2.4050    0.0000 C   0  0  0  0  0  0  0  0  0  0  0  0
    4.2690    3.4050    0.0000 C   0  0  0  0  0  0  0  0  0  0  0  0
    3.4030    3.9050    0.0000 C   0  0  0  0  0  0  0  0  0  0  0  0
    5.0051   -3.0200    0.0000 H   0  0  0  0  0  0  0  0  0  0  0  0
    3.4030   -2.9450    0.0000 H   0  0  0  0  0  0  0  0  0  0  0  0
    5.8711   -1.6700    0.0000 H   0  0  0  0  0  0  0  0  0  0  0  0
    3.4030   -0.2450    0.0000 H   0  0  0  0  0  0  0  0  0  0  0  0
    5.1350   -0.2450    0.0000 H   0  0  0  0  0  0  0  0  0  0  0  0
    1.9264   -0.4873    0.0000 H   0  0  0  0  0  0  0  0  0  0  0  0
    2.3249   -1.1776    0.0000 H   0  0  0  0  0  0  0  0  0  0  0  0
    3.7320   -3.9050    0.0000 H   0  0  0  0  0  0  0  0  0  0  0  0
    2.0000   -2.2850    0.0000 H   0  0  0  0  0  0  0  0  0  0  0  0
    6.5380   -2.2850    0.0000 H   0  0  0  0  0  0  0  0  0  0  0  0
    4.5244    1.0127    0.0000 H   0  0  0  0  0  0  0  0  0  0  0  0
    4.9230    0.3224    0.0000 H   0  0  0  0  0  0  0  0  0  0  0  0
    2.0000    0.7150    0.0000 H   0  0  0  0  0  0  0  0  0  0  0  0
    5.7456    1.7973    0.0000 H   0  0  0  0  0  0  0  0  0  0  0  0
    5.3471    2.4876    0.0000 H   0  0  0  0  0  0  0  0  0  0  0  0
    3.6584    2.5127    0.0000 H   0  0  0  0  0  0  0  0  0  0  0  0
    4.0569    1.8224    0.0000 H   0  0  0  0  0  0  0  0  0  0  0  0
    4.8059    3.7150    0.0000 H   0  0  0  0  0  0  0  0  0  0  0  0
    3.4030    4.5250    0.0000 H   0  0  0  0  0  0  0  0  0  0  0  0
    2.8660    3.5950    0.0000 H   0  0  0  0  0  0  0  0  0  0  0  0
   10.0021    1.0950    0.0000 H   0  0  0  0  0  0  0  0  0  0  0  0
  1 17  1  0  0  0  0
  1 19  1  0  0  0  0
  2  8  1  0  0  0  0
  2  9  1  0  0  0  0
  2 10  2  0  0  0  0
  2 11  2  0  0  0  0
  3 16  1  0  0  0  0
  3 17  1  0  0  0  0
  4 13  1  0  0  0  0
  4 32  1  0  0  0  0
  5 14  1  0  0  0  0
  5 33  1  0  0  0  0
  6 15  1  0  0  0  0
  6 34  1  0  0  0  0
  7 18  1  0  0  0  0
  7 37  1  0  0  0  0
  8 12  1  0  0  0  0
  9 45  1  0  0  0  0
 12 19  2  0  0  0  0
 13 14  1  0  0  0  0
 13 15  1  0  0  0  0
 13 25  1  0  0  0  0
 14 16  1  0  0  0  0
 14 26  1  0  0  0  0
 15 17  1  0  0  0  0
 15 27  1  0  0  0  0
 16 18  1  0  0  0  0
 16 28  1  0  0  0  0
 17 29  1  0  0  0  0
 18 30  1  0  0  0  0
 18 31  1  0  0  0  0
 19 20  1  0  0  0  0
 20 21  1  0  0  0  0
 20 35  1  0  0  0  0
 20 36  1  0  0  0  0
 21 22  1  0  0  0  0
 21 38  1  0  0  0  0
 21 39  1  0  0  0  0
 22 23  1  0  0  0  0
 22 40  1  0  0  0  0
 22 41  1  0  0  0  0
 23 24  2  0  0  0  0
 23 42  1  0  0  0  0
 24 43  1  0  0  0  0
 24 44  1  0  0  0  0
M  END
>  <PUBCHEM_COMPOUND_CID>
6122885

>  <PUBCHEM_COMPOUND_CANONICALIZED>
1

>  <PUBCHEM_CACTVS_COMPLEXITY>
533

>  <PUBCHEM_CACTVS_HBOND_ACCEPTOR>
11

>  <PUBCHEM_CACTVS_HBOND_DONOR>
5

>  <PUBCHEM_CACTVS_ROTATABLE_BOND>
9

>  <PUBCHEM_CACTVS_SUBSKEYS>
AAADceByPABgAAAAAAAAAAAAAAAAAAAAAAAkAAAAAAAAAAAAAAAAHgQECAAACBSlwAKAAAAQBoigACBiADAAAAAgABAIAAAwAAgBEAIgAQACQAAFgAAjAAHAYAQAAAAAAAAAAAAAAAAAAAAAAAAAAAAAAA==

>  <PUBCHEM_IUPAC_OPENEYE_NAME>
[3,4,5-trihydroxy-6-(hydroxymethyl)tetrahydropyran-2-yl] (1Z)-N-sulfooxyhex-5-enimidothioate

>  <PUBCHEM_IUPAC_CAS_NAME>
(1Z)-N-sulfooxy-5-hexenimidothioic acid [3,4,5-trihydroxy-6-(hydroxymethyl)-2-oxanyl] ester

>  <PUBCHEM_IUPAC_NAME>
[3,4,5-trihydroxy-6-(hydroxymethyl)oxan-2-yl] (1Z)-N-sulfooxyhex-5-enimidothioate

>  <PUBCHEM_IUPAC_SYSTEMATIC_NAME>
[6-(hydroxymethyl)-3,4,5-tris(oxidanyl)oxan-2-yl] (1Z)-N-sulfooxyhex-5-enimidothioate

>  <PUBCHEM_IUPAC_TRADITIONAL_NAME>
(1Z)-N-sulfoxyhex-5-enimidothioic acid (3,4,5-trihydroxy-6-methylol-tetrahydropyran-2-yl) ester

>  <PUBCHEM_IUPAC_INCHI>
InChI=1S/C12H21NO9S2/c1-2-3-4-5-8(13-22-24(18,19)20)23-12-11(17)10(16)9(15)7(6-14)21-12/h2,7,9-12,14-17H,1,3-6H2,(H,18,19,20)/b13-8-

>  <PUBCHEM_IUPAC_INCHIKEY>
XMJFVIGTHMOGNZ-JYRVWZFOSA-N

>  <PUBCHEM_XLOGP3_AA>
-0.4

>  <PUBCHEM_EXACT_MASS>
387.066

>  <PUBCHEM_MOLECULAR_FORMULA>
C12H21NO9S2

>  <PUBCHEM_MOLECULAR_WEIGHT>
387.418

>  <PUBCHEM_OPENEYE_CAN_SMILES>
C=CCCCC(=NOS(=O)(=O)O)SC1C(C(C(C(O1)CO)O)O)O

>  <PUBCHEM_OPENEYE_ISO_SMILES>
C=CCCC/C(=N/OS(=O)(=O)O)/SC1C(C(C(C(O1)CO)O)O)O

>  <PUBCHEM_CACTVS_TPSA>
200

>  <PUBCHEM_MONOISOTOPIC_WEIGHT>
387.066

>  <PUBCHEM_TOTAL_CHARGE>
0

>  <PUBCHEM_HEAVY_ATOM_COUNT>
24

>  <PUBCHEM_ATOM_DEF_STEREO_COUNT>
0

>  <PUBCHEM_ATOM_UDEF_STEREO_COUNT>
5

>  <PUBCHEM_BOND_DEF_STEREO_COUNT>
1

>  <PUBCHEM_BOND_UDEF_STEREO_COUNT>
0

>  <PUBCHEM_ISOTOPIC_ATOM_COUNT>
0

>  <PUBCHEM_COMPONENT_COUNT>
1

>  <PUBCHEM_CACTVS_TAUTO_COUNT>
1

>  <PUBCHEM_COORDINATE_TYPE>
1
5
255

>  <PUBCHEM_BONDANNOTATIONS>
13  25  3
14  26  3
15  27  3
16  28  3
17  29  3

$$$$
