6290103
 OpenBabel06101807152D

 70 74  0  0  1  0  0  0  0  0999 V2000
   11.1972   -1.6796    0.0000 O   0  0  0  0  0  0  0  0  0  0  0  0
   12.9292   -1.6796    0.0000 O   0  0  0  0  0  0  0  0  0  0  0  0
    9.4651   -3.6796    0.0000 O   0  0  0  0  0  0  0  0  0  0  0  0
   11.1972   -4.6796    0.0000 O   0  0  0  0  0  0  0  0  0  0  0  0
   12.9292   -3.6796    0.0000 O   0  0  0  0  0  0  0  0  0  0  0  0
    8.5991   -2.1796    0.0000 O   0  0  0  0  0  0  0  0  0  0  0  0
   14.6852    1.3829    0.0000 O   0  0  0  0  0  0  0  0  0  0  0  0
   11.1830    1.3996    0.0000 O   0  0  0  0  0  0  0  0  0  0  0  0
   12.0929    2.8930    0.0000 O   0  0  0  0  0  0  0  0  0  0  0  0
    7.7331   -0.6796    0.0000 O   0  0  0  0  0  0  0  0  0  0  0  0
   18.1608    4.3696    0.0000 O   0  0  0  0  0  0  0  0  0  0  0  0
    2.5369   -3.6796    0.0000 O   0  0  0  0  0  0  0  0  0  0  0  0
   10.3312   -3.1796    0.0000 C   0  0  3  0  0  0  0  0  0  0  0  0
   11.1972   -3.6796    0.0000 C   0  0  3  0  0  0  0  0  0  0  0  0
   10.3312   -2.1796    0.0000 C   0  0  3  0  0  0  0  0  0  0  0  0
   12.0632   -3.1796    0.0000 C   0  0  3  0  0  0  0  0  0  0  0  0
   12.0632   -2.1796    0.0000 C   0  0  3  0  0  0  0  0  0  0  0  0
    9.4651   -1.6796    0.0000 C   0  0  0  0  0  0  0  0  0  0  0  0
   12.9292   -0.6796    0.0000 C   0  0  0  0  0  0  0  0  0  0  0  0
   14.6891    2.3829    0.0000 C   0  0  3  0  0  0  0  0  0  0  0  0
   13.8173    0.8863    0.0000 C   0  0  0  0  0  0  0  0  0  0  0  0
   13.8293   -0.1553    0.0000 C   0  0  0  0  0  0  0  0  0  0  0  0
   12.9532    1.3896    0.0000 C   0  0  0  0  0  0  0  0  0  0  0  0
   13.8250    2.8863    0.0000 C   0  0  0  0  0  0  0  0  0  0  0  0
   12.0292   -0.1553    0.0000 C   0  0  0  0  0  0  0  0  0  0  0  0
   12.9570    2.3896    0.0000 C   0  0  0  0  0  0  0  0  0  0  0  0
   12.0412    0.8863    0.0000 C   0  0  0  0  0  0  0  0  0  0  0  0
   15.5570    2.8796    0.0000 C   0  0  0  0  0  0  0  0  0  0  0  0
    7.7331   -1.6796    0.0000 C   0  0  0  0  0  0  0  0  0  0  0  0
   16.4211    2.3763    0.0000 C   0  0  0  0  0  0  0  0  0  0  0  0
   15.5609    3.8796    0.0000 C   0  0  0  0  0  0  0  0  0  0  0  0
    6.8671   -2.1796    0.0000 C   0  0  0  0  0  0  0  0  0  0  0  0
   17.2890    2.8729    0.0000 C   0  0  0  0  0  0  0  0  0  0  0  0
   16.4288    4.3762    0.0000 C   0  0  0  0  0  0  0  0  0  0  0  0
   17.2929    3.8729    0.0000 C   0  0  0  0  0  0  0  0  0  0  0  0
    6.0010   -1.6796    0.0000 C   0  0  0  0  0  0  0  0  0  0  0  0
    5.1350   -2.1796    0.0000 C   0  0  0  0  0  0  0  0  0  0  0  0
    4.2690   -1.6796    0.0000 C   0  0  0  0  0  0  0  0  0  0  0  0
    5.1350   -3.1796    0.0000 C   0  0  0  0  0  0  0  0  0  0  0  0
    3.4030   -2.1796    0.0000 C   0  0  0  0  0  0  0  0  0  0  0  0
    4.2690   -3.6796    0.0000 C   0  0  0  0  0  0  0  0  0  0  0  0
    3.4030   -3.1796    0.0000 C   0  0  0  0  0  0  0  0  0  0  0  0
    9.7942   -2.8696    0.0000 H   0  0  0  0  0  0  0  0  0  0  0  0
   11.7341   -3.9896    0.0000 H   0  0  0  0  0  0  0  0  0  0  0  0
   10.3312   -1.5596    0.0000 H   0  0  0  0  0  0  0  0  0  0  0  0
   12.6002   -2.8696    0.0000 H   0  0  0  0  0  0  0  0  0  0  0  0
   12.0632   -1.5596    0.0000 H   0  0  0  0  0  0  0  0  0  0  0  0
    9.8637   -1.2046    0.0000 H   0  0  0  0  0  0  0  0  0  0  0  0
    9.0666   -1.2046    0.0000 H   0  0  0  0  0  0  0  0  0  0  0  0
    9.4651   -4.2996    0.0000 H   0  0  0  0  0  0  0  0  0  0  0  0
   10.6603   -4.9896    0.0000 H   0  0  0  0  0  0  0  0  0  0  0  0
   12.9292   -4.2996    0.0000 H   0  0  0  0  0  0  0  0  0  0  0  0
   14.6915    3.0029    0.0000 H   0  0  0  0  0  0  0  0  0  0  0  0
   14.3686   -0.4611    0.0000 H   0  0  0  0  0  0  0  0  0  0  0  0
   14.2253    3.3597    0.0000 H   0  0  0  0  0  0  0  0  0  0  0  0
   13.4283    3.3628    0.0000 H   0  0  0  0  0  0  0  0  0  0  0  0
   11.4899   -0.4611    0.0000 H   0  0  0  0  0  0  0  0  0  0  0  0
   16.4187    1.7563    0.0000 H   0  0  0  0  0  0  0  0  0  0  0  0
   15.0251    4.1916    0.0000 H   0  0  0  0  0  0  0  0  0  0  0  0
   10.6414    1.0979    0.0000 H   0  0  0  0  0  0  0  0  0  0  0  0
    6.8671   -2.7996    0.0000 H   0  0  0  0  0  0  0  0  0  0  0  0
   17.8248    2.5608    0.0000 H   0  0  0  0  0  0  0  0  0  0  0  0
   16.4312    4.9962    0.0000 H   0  0  0  0  0  0  0  0  0  0  0  0
    6.0010   -1.0596    0.0000 H   0  0  0  0  0  0  0  0  0  0  0  0
   18.1632    4.9896    0.0000 H   0  0  0  0  0  0  0  0  0  0  0  0
    4.2690   -1.0596    0.0000 H   0  0  0  0  0  0  0  0  0  0  0  0
    5.6720   -3.4896    0.0000 H   0  0  0  0  0  0  0  0  0  0  0  0
    2.8660   -1.8696    0.0000 H   0  0  0  0  0  0  0  0  0  0  0  0
    4.2690   -4.2996    0.0000 H   0  0  0  0  0  0  0  0  0  0  0  0
    2.0000   -3.3696    0.0000 H   0  0  0  0  0  0  0  0  0  0  0  0
  1 15  1  0  0  0  0
  1 17  1  0  0  0  0
  2 17  1  0  0  0  0
  2 19  1  0  0  0  0
  3 13  1  0  0  0  0
  3 50  1  0  0  0  0
  4 14  1  0  0  0  0
  4 51  1  0  0  0  0
  5 16  1  0  0  0  0
  5 52  1  0  0  0  0
  6 18  1  0  0  0  0
  6 29  1  0  0  0  0
  7 20  1  0  0  0  0
  7 21  1  0  0  0  0
  8 27  1  0  0  0  0
  8 60  1  0  0  0  0
  9 26  2  0  0  0  0
 10 29  2  0  0  0  0
 11 35  1  0  0  0  0
 11 65  1  0  0  0  0
 12 42  1  0  0  0  0
 12 70  1  0  0  0  0
 13 14  1  0  0  0  0
 13 15  1  0  0  0  0
 13 43  1  0  0  0  0
 14 16  1  0  0  0  0
 14 44  1  0  0  0  0
 15 18  1  0  0  0  0
 15 45  1  0  0  0  0
 16 17  1  0  0  0  0
 16 46  1  0  0  0  0
 17 47  1  0  0  0  0
 18 48  1  0  0  0  0
 18 49  1  0  0  0  0
 19 22  1  0  0  0  0
 19 25  2  0  0  0  0
 20 24  1  0  0  0  0
 20 28  1  0  0  0  0
 20 53  1  0  0  0  0
 21 22  2  0  0  0  0
 21 23  1  0  0  0  0
 22 54  1  0  0  0  0
 23 26  1  0  0  0  0
 23 27  2  0  0  0  0
 24 26  1  0  0  0  0
 24 55  1  0  0  0  0
 24 56  1  0  0  0  0
 25 27  1  0  0  0  0
 25 57  1  0  0  0  0
 28 30  2  0  0  0  0
 28 31  1  0  0  0  0
 29 32  1  0  0  0  0
 30 33  1  0  0  0  0
 30 58  1  0  0  0  0
 31 34  2  0  0  0  0
 31 59  1  0  0  0  0
 32 36  2  0  0  0  0
 32 61  1  0  0  0  0
 33 35  2  0  0  0  0
 33 62  1  0  0  0  0
 34 35  1  0  0  0  0
 34 63  1  0  0  0  0
 36 37  1  0  0  0  0
 36 64  1  0  0  0  0
 37 38  2  0  0  0  0
 37 39  1  0  0  0  0
 38 40  1  0  0  0  0
 38 66  1  0  0  0  0
 39 41  2  0  0  0  0
 39 67  1  0  0  0  0
 40 42  2  0  0  0  0
 40 68  1  0  0  0  0
 41 42  1  0  0  0  0
 41 69  1  0  0  0  0
M  END
>  <PUBCHEM_COMPOUND_CID>
6290103

>  <PUBCHEM_COMPOUND_CANONICALIZED>
1

>  <PUBCHEM_CACTVS_COMPLEXITY>
943

>  <PUBCHEM_CACTVS_HBOND_ACCEPTOR>
12

>  <PUBCHEM_CACTVS_HBOND_DONOR>
6

>  <PUBCHEM_CACTVS_ROTATABLE_BOND>
8

>  <PUBCHEM_CACTVS_SUBSKEYS>
AAADceB4PAAAAAAAAAAAAAAAAAAAAAAAAAA0aMECAAAAAACRUAAAGgAACAAADBSwmAMwDoAABgCIAqDSCAACCAAkIAAIiAEGCMgdNzaGNRqieWCl4BUPuYfI7OzOIAAACAAIAABAAAAQABAAAAAAAAAAAA==

>  <PUBCHEM_IUPAC_OPENEYE_NAME>
[3,4,5-trihydroxy-6-[5-hydroxy-2-(4-hydroxyphenyl)-4-oxo-chroman-7-yl]oxy-tetrahydropyran-2-yl]methyl (E)-3-(4-hydroxyphenyl)prop-2-enoate

>  <PUBCHEM_IUPAC_CAS_NAME>
(E)-3-(4-hydroxyphenyl)-2-propenoic acid [3,4,5-trihydroxy-6-[[5-hydroxy-2-(4-hydroxyphenyl)-4-oxo-3,4-dihydro-2H-1-benzopyran-7-yl]oxy]-2-oxanyl]methyl ester

>  <PUBCHEM_IUPAC_NAME>
[3,4,5-trihydroxy-6-[[5-hydroxy-2-(4-hydroxyphenyl)-4-oxo-2,3-dihydrochromen-7-yl]oxy]oxan-2-yl]methyl (E)-3-(4-hydroxyphenyl)prop-2-enoate

>  <PUBCHEM_IUPAC_SYSTEMATIC_NAME>
[6-[[2-(4-hydroxyphenyl)-5-oxidanyl-4-oxidanylidene-2,3-dihydrochromen-7-yl]oxy]-3,4,5-tris(oxidanyl)oxan-2-yl]methyl (E)-3-(4-hydroxyphenyl)prop-2-enoate

>  <PUBCHEM_IUPAC_TRADITIONAL_NAME>
(E)-3-(4-hydroxyphenyl)acrylic acid [3,4,5-trihydroxy-6-[5-hydroxy-2-(4-hydroxyphenyl)-4-keto-chroman-7-yl]oxy-tetrahydropyran-2-yl]methyl ester

>  <PUBCHEM_IUPAC_INCHI>
InChI=1S/C30H28O12/c31-17-6-1-15(2-7-17)3-10-25(35)39-14-24-27(36)28(37)29(38)30(42-24)40-19-11-20(33)26-21(34)13-22(41-23(26)12-19)16-4-8-18(32)9-5-16/h1-12,22,24,27-33,36-38H,13-14H2/b10-3+

>  <PUBCHEM_IUPAC_INCHIKEY>
PLORCKNHUZJPKH-XCVCLJGOSA-N

>  <PUBCHEM_XLOGP3_AA>
2.3

>  <PUBCHEM_EXACT_MASS>
580.158

>  <PUBCHEM_MOLECULAR_FORMULA>
C30H28O12

>  <PUBCHEM_MOLECULAR_WEIGHT>
580.542

>  <PUBCHEM_OPENEYE_CAN_SMILES>
C1C(OC2=CC(=CC(=C2C1=O)O)OC3C(C(C(C(O3)COC(=O)C=CC4=CC=C(C=C4)O)O)O)O)C5=CC=C(C=C5)O

>  <PUBCHEM_OPENEYE_ISO_SMILES>
C1C(OC2=CC(=CC(=C2C1=O)O)OC3C(C(C(C(O3)COC(=O)/C=C/C4=CC=C(C=C4)O)O)O)O)C5=CC=C(C=C5)O

>  <PUBCHEM_CACTVS_TPSA>
192

>  <PUBCHEM_MONOISOTOPIC_WEIGHT>
580.158

>  <PUBCHEM_TOTAL_CHARGE>
0

>  <PUBCHEM_HEAVY_ATOM_COUNT>
42

>  <PUBCHEM_ATOM_DEF_STEREO_COUNT>
0

>  <PUBCHEM_ATOM_UDEF_STEREO_COUNT>
6

>  <PUBCHEM_BOND_DEF_STEREO_COUNT>
1

>  <PUBCHEM_BOND_UDEF_STEREO_COUNT>
0

>  <PUBCHEM_ISOTOPIC_ATOM_COUNT>
0

>  <PUBCHEM_COMPONENT_COUNT>
1

>  <PUBCHEM_CACTVS_TAUTO_COUNT>
72

>  <PUBCHEM_COORDINATE_TYPE>
1
5
255

>  <PUBCHEM_BONDANNOTATIONS>
15  18  3
19  22  8
19  25  8
17  2  3
20  28  3
21  22  8
21  23  8
23  27  8
25  27  8
28  30  8
28  31  8
13  3  3
30  33  8
31  34  8
33  35  8
34  35  8
37  38  8
37  39  8
38  40  8
39  41  8
14  4  3
40  42  8
41  42  8
16  5  3

$$$$
