629096
 OpenBabel06101807152D

 44 48  0  0  1  0  0  0  0  0999 V2000
    8.7788   -0.6718    0.0000 O   0  0  0  0  0  0  0  0  0  0  0  0
    8.5696    2.3000    0.0000 O   0  0  0  0  0  0  0  0  0  0  0  0
   10.3016    1.3000    0.0000 O   0  0  0  0  0  0  0  0  0  0  0  0
    4.9179    2.1383    0.0000 O   0  0  0  0  0  0  0  0  0  0  0  0
    2.3100    1.3000    0.0000 O   0  0  0  0  0  0  0  0  0  0  0  0
   11.9770   -2.3347    0.0000 O   0  0  0  0  0  0  0  0  0  0  0  0
    9.4356    0.8000    0.0000 C   0  0  3  0  0  0  0  0  0  0  0  0
    8.5696    0.3000    0.0000 C   0  0  3  0  0  0  0  0  0  0  0  0
   10.1726    0.1330    0.0000 C   0  0  0  0  0  0  0  0  0  0  0  0
    7.7035    0.8000    0.0000 C   0  0  0  0  0  0  0  0  0  0  0  0
    9.4356    1.8000    0.0000 C   0  0  0  0  0  0  0  0  0  0  0  0
    9.7675   -0.7748    0.0000 C   0  0  0  0  0  0  0  0  0  0  0  0
    7.7035    1.8000    0.0000 C   0  0  0  0  0  0  0  0  0  0  0  0
    6.8096    0.2654    0.0000 C   0  0  0  0  0  0  0  0  0  0  0  0
    5.9035    0.7792    0.0000 C   0  0  0  0  0  0  0  0  0  0  0  0
   11.2007    0.2562    0.0000 C   0  0  0  0  0  0  0  0  0  0  0  0
    6.8096    2.3347    0.0000 C   0  0  0  0  0  0  0  0  0  0  0  0
    5.9035    1.8209    0.0000 C   0  0  0  0  0  0  0  0  0  0  0  0
   10.3624   -1.6223    0.0000 C   0  0  0  0  0  0  0  0  0  0  0  0
    4.3100    1.3000    0.0000 C   0  0  0  0  0  0  0  0  0  0  0  0
    4.9179    0.4618    0.0000 C   0  0  0  0  0  0  0  0  0  0  0  0
    3.3100    1.3000    0.0000 C   0  0  0  0  0  0  0  0  0  0  0  0
   11.8150   -0.5773    0.0000 C   0  0  0  0  0  0  0  0  0  0  0  0
   11.3931   -1.5229    0.0000 C   0  0  0  0  0  0  0  0  0  0  0  0
    3.3100    2.3000    0.0000 C   0  0  0  0  0  0  0  0  0  0  0  0
    3.3100    0.3000    0.0000 C   0  0  0  0  0  0  0  0  0  0  0  0
    7.8825   -0.2005    0.0000 H   0  0  0  0  0  0  0  0  0  0  0  0
   10.0462    1.6924    0.0000 H   0  0  0  0  0  0  0  0  0  0  0  0
    9.6476    2.3827    0.0000 H   0  0  0  0  0  0  0  0  0  0  0  0
    6.8168   -0.3546    0.0000 H   0  0  0  0  0  0  0  0  0  0  0  0
   10.3016    1.9200    0.0000 H   0  0  0  0  0  0  0  0  0  0  0  0
   11.4468    0.8252    0.0000 H   0  0  0  0  0  0  0  0  0  0  0  0
    6.8168    2.9547    0.0000 H   0  0  0  0  0  0  0  0  0  0  0  0
   10.1032   -2.1856    0.0000 H   0  0  0  0  0  0  0  0  0  0  0  0
    4.7253   -0.1275    0.0000 H   0  0  0  0  0  0  0  0  0  0  0  0
   12.4315   -0.5107    0.0000 H   0  0  0  0  0  0  0  0  0  0  0  0
    2.6900    0.3000    0.0000 H   0  0  0  0  0  0  0  0  0  0  0  0
    3.3100   -0.3200    0.0000 H   0  0  0  0  0  0  0  0  0  0  0  0
    3.9300    0.3000    0.0000 H   0  0  0  0  0  0  0  0  0  0  0  0
    3.9300    2.3000    0.0000 H   0  0  0  0  0  0  0  0  0  0  0  0
    3.3100    2.9200    0.0000 H   0  0  0  0  0  0  0  0  0  0  0  0
    2.6900    2.3000    0.0000 H   0  0  0  0  0  0  0  0  0  0  0  0
    2.0000    1.8370    0.0000 H   0  0  0  0  0  0  0  0  0  0  0  0
   12.5939   -2.2728    0.0000 H   0  0  0  0  0  0  0  0  0  0  0  0
  1  8  1  0  0  0  0
  1 12  1  0  0  0  0
  2 11  1  0  0  0  0
  2 13  1  0  0  0  0
  3  7  1  0  0  0  0
  3 31  1  0  0  0  0
  4 18  1  0  0  0  0
  4 20  1  0  0  0  0
  5 22  1  0  0  0  0
  5 43  1  0  0  0  0
  6 24  1  0  0  0  0
  6 44  1  0  0  0  0
  7  8  1  0  0  0  0
  7  9  1  0  0  0  0
  7 11  1  0  0  0  0
  8 10  1  0  0  0  0
  8 27  1  0  0  0  0
  9 12  2  0  0  0  0
  9 16  1  0  0  0  0
 10 13  2  0  0  0  0
 10 14  1  0  0  0  0
 11 28  1  0  0  0  0
 11 29  1  0  0  0  0
 12 19  1  0  0  0  0
 13 17  1  0  0  0  0
 14 15  2  0  0  0  0
 14 30  1  0  0  0  0
 15 18  1  0  0  0  0
 15 21  1  0  0  0  0
 16 23  2  0  0  0  0
 16 32  1  0  0  0  0
 17 18  2  0  0  0  0
 17 33  1  0  0  0  0
 19 24  2  0  0  0  0
 19 34  1  0  0  0  0
 20 21  2  0  0  0  0
 20 22  1  0  0  0  0
 21 35  1  0  0  0  0
 22 25  1  0  0  0  0
 22 26  1  0  0  0  0
 23 24  1  0  0  0  0
 23 36  1  0  0  0  0
 25 40  1  0  0  0  0
 25 41  1  0  0  0  0
 25 42  1  0  0  0  0
 26 37  1  0  0  0  0
 26 38  1  0  0  0  0
 26 39  1  0  0  0  0
M  END
>  <PUBCHEM_COMPOUND_CID>
629096

>  <PUBCHEM_COMPOUND_CANONICALIZED>
1

>  <PUBCHEM_CACTVS_COMPLEXITY>
567

>  <PUBCHEM_CACTVS_HBOND_ACCEPTOR>
6

>  <PUBCHEM_CACTVS_HBOND_DONOR>
3

>  <PUBCHEM_CACTVS_ROTATABLE_BOND>
1

>  <PUBCHEM_CACTVS_SUBSKEYS>
AAADceB4OAAAAAAAAAAAAAAAAAAAASJAAAA0YIAAAAAAAEiR9AAAGgAACAAADFSgmAIyBsAABkCIAqBSAAICCAAkIAAIiAFGCMgNJzaGNRqCeWCl4BULuYfI7PzOoAACCAAIAABAAAQQABAAAAAAAAAAAA==

>  <PUBCHEM_IUPAC_INCHI>
InChI=1S/C20H18O6/c1-19(2,22)17-6-10-5-12-15(8-14(10)25-17)24-9-20(23)13-4-3-11(21)7-16(13)26-18(12)20/h3-8,18,21-23H,9H2,1-2H3

>  <PUBCHEM_IUPAC_INCHIKEY>
FLURXOFTUKXKQN-UHFFFAOYSA-N

>  <PUBCHEM_XLOGP3_AA>
1.7

>  <PUBCHEM_EXACT_MASS>
354.11

>  <PUBCHEM_MOLECULAR_FORMULA>
C20H18O6

>  <PUBCHEM_MOLECULAR_WEIGHT>
354.358

>  <PUBCHEM_OPENEYE_CAN_SMILES>
CC(C)(C1=CC2=CC3=C(C=C2O1)OCC4(C3OC5=C4C=CC(=C5)O)O)O

>  <PUBCHEM_OPENEYE_ISO_SMILES>
CC(C)(C1=CC2=CC3=C(C=C2O1)OCC4(C3OC5=C4C=CC(=C5)O)O)O

>  <PUBCHEM_CACTVS_TPSA>
92.3

>  <PUBCHEM_MONOISOTOPIC_WEIGHT>
354.11

>  <PUBCHEM_TOTAL_CHARGE>
0

>  <PUBCHEM_HEAVY_ATOM_COUNT>
26

>  <PUBCHEM_ATOM_DEF_STEREO_COUNT>
0

>  <PUBCHEM_ATOM_UDEF_STEREO_COUNT>
2

>  <PUBCHEM_BOND_DEF_STEREO_COUNT>
0

>  <PUBCHEM_BOND_UDEF_STEREO_COUNT>
0

>  <PUBCHEM_ISOTOPIC_ATOM_COUNT>
0

>  <PUBCHEM_COMPONENT_COUNT>
1

>  <PUBCHEM_CACTVS_TAUTO_COUNT>
3

>  <PUBCHEM_COORDINATE_TYPE>
1
5
255

>  <PUBCHEM_BONDANNOTATIONS>
10  13  8
10  14  8
12  19  8
13  17  8
14  15  8
15  18  8
15  21  8
16  23  8
17  18  8
19  24  8
20  21  8
23  24  8
7  3  3
4  18  8
4  20  8
8  27  3
9  12  8
9  16  8

$$$$
