6328935
 OpenBabel06101807152D

 14 13  0  0  0  0  0  0  0  0999 V2000
    3.4030    0.2500    0.0000 O   0  0  0  0  0  0  0  0  0  0  0  0
    6.0010   -0.2500    0.0000 O   0  0  0  0  0  0  0  0  0  0  0  0
    4.2690   -1.2500    0.0000 O   0  0  0  0  0  0  0  0  0  0  0  0
    5.1350    1.2500    0.0000 O   0  0  0  0  0  0  0  0  0  0  0  0
    2.5369   -0.2500    0.0000 N   0  3  0  0  0  0  0  0  0  0  0  0
    6.8671    0.2500    0.0000 N   0  3  0  0  0  0  0  0  0  0  0  0
    4.2690   -0.2500    0.0000 C   0  0  0  0  0  0  0  0  0  0  0  0
    5.1350    0.2500    0.0000 C   0  0  0  0  0  0  0  0  0  0  0  0
    2.0000   -0.5600    0.0000 H   0  0  0  0  0  0  0  0  0  0  0  0
    2.2269    0.2869    0.0000 H   0  0  0  0  0  0  0  0  0  0  0  0
    2.8469   -0.7869    0.0000 H   0  0  0  0  0  0  0  0  0  0  0  0
    7.4040    0.5600    0.0000 H   0  0  0  0  0  0  0  0  0  0  0  0
    7.1771   -0.2869    0.0000 H   0  0  0  0  0  0  0  0  0  0  0  0
    6.5571    0.7869    0.0000 H   0  0  0  0  0  0  0  0  0  0  0  0
  1  5  1  0  0  0  0
  1  7  1  0  0  0  0
  2  6  1  0  0  0  0
  2  8  1  0  0  0  0
  3  7  2  0  0  0  0
  4  8  2  0  0  0  0
  5  9  1  0  0  0  0
  5 10  1  0  0  0  0
  5 11  1  0  0  0  0
  6 12  1  0  0  0  0
  6 13  1  0  0  0  0
  6 14  1  0  0  0  0
  7  8  1  0  0  0  0
M  CHG  2   5   1   6   1
M  END
>  <PUBCHEM_COMPOUND_CID>
6328935

>  <PUBCHEM_COMPOUND_CANONICALIZED>
1

>  <PUBCHEM_CACTVS_COMPLEXITY>
96.6

>  <PUBCHEM_CACTVS_HBOND_ACCEPTOR>
4

>  <PUBCHEM_CACTVS_HBOND_DONOR>
2

>  <PUBCHEM_CACTVS_ROTATABLE_BOND>
3

>  <PUBCHEM_CACTVS_SUBSKEYS>
AAADcYBDOAAAAAAAAAAAAAAAAAAAAAAAAAAAAAAAAAAAAAAAAAAACgAUAAAAAAAAgAAACAAAAAAIAACQCAIAAAAAAAAAAABAAAABAAAAAAAAAAAAAAAAAAAAAAAAAAAAAAAAAAAAAAAAAAAAAAAAAAAAAA==

>  <PUBCHEM_IUPAC_OPENEYE_NAME>
(2-azaniumyloxy-2-oxo-acetyl)oxyammonium

>  <PUBCHEM_IUPAC_CAS_NAME>
(2-ammoniooxy-1,2-dioxoethoxy)ammonium

>  <PUBCHEM_IUPAC_NAME>
(2-azaniumyloxy-2-oxoacetyl)oxyazanium

>  <PUBCHEM_IUPAC_SYSTEMATIC_NAME>
(2-azaniumyloxy-2-oxidanylidene-ethanoyl)oxyazanium

>  <PUBCHEM_IUPAC_TRADITIONAL_NAME>
(2-ammoniooxy-2-keto-acetyl)oxyammonium

>  <PUBCHEM_IUPAC_INCHI>
InChI=1S/C2H6N2O4/c3-7-1(5)2(6)8-4/h3-4H3/q+2

>  <PUBCHEM_IUPAC_INCHIKEY>
VQVRXZJXTLRRKU-UHFFFAOYSA-N

>  <PUBCHEM_XLOGP3_AA>
-1.1

>  <PUBCHEM_EXACT_MASS>
122.033

>  <PUBCHEM_MOLECULAR_FORMULA>
C2H6N2O4+2

>  <PUBCHEM_MOLECULAR_WEIGHT>
122.08

>  <PUBCHEM_OPENEYE_CAN_SMILES>
C(=O)(C(=O)O[NH3+])O[NH3+]

>  <PUBCHEM_OPENEYE_ISO_SMILES>
C(=O)(C(=O)O[NH3+])O[NH3+]

>  <PUBCHEM_CACTVS_TPSA>
108

>  <PUBCHEM_MONOISOTOPIC_WEIGHT>
122.033

>  <PUBCHEM_TOTAL_CHARGE>
2

>  <PUBCHEM_HEAVY_ATOM_COUNT>
8

>  <PUBCHEM_ATOM_DEF_STEREO_COUNT>
0

>  <PUBCHEM_ATOM_UDEF_STEREO_COUNT>
0

>  <PUBCHEM_BOND_DEF_STEREO_COUNT>
0

>  <PUBCHEM_BOND_UDEF_STEREO_COUNT>
0

>  <PUBCHEM_ISOTOPIC_ATOM_COUNT>
0

>  <PUBCHEM_COMPONENT_COUNT>
1

>  <PUBCHEM_CACTVS_TAUTO_COUNT>
1

>  <PUBCHEM_COORDINATE_TYPE>
1
5
255

$$$$
