633024
 OpenBabel06101807152D

 42 45  0  0  0  0  0  0  0  0999 V2000
    5.5301    3.5000    0.0000 O   0  0  0  0  0  0  0  0  0  0  0  0
    5.5301   -3.5000    0.0000 O   0  0  0  0  0  0  0  0  0  0  0  0
    7.2785   -0.5346    0.0000 O   0  0  0  0  0  0  0  0  0  0  0  0
    3.7817    0.5346    0.0000 O   0  0  0  0  0  0  0  0  0  0  0  0
    7.2785    3.5346    0.0000 O   0  0  0  0  0  0  0  0  0  0  0  0
    3.7817   -3.5346    0.0000 O   0  0  0  0  0  0  0  0  0  0  0  0
    5.5301    0.5000    0.0000 C   0  0  0  0  0  0  0  0  0  0  0  0
    5.5301   -0.5000    0.0000 C   0  0  0  0  0  0  0  0  0  0  0  0
    6.3961    1.0000    0.0000 C   0  0  0  0  0  0  0  0  0  0  0  0
    4.6641   -1.0000    0.0000 C   0  0  0  0  0  0  0  0  0  0  0  0
    4.6641   -2.0000    0.0000 C   0  0  0  0  0  0  0  0  0  0  0  0
    6.3961    2.0000    0.0000 C   0  0  0  0  0  0  0  0  0  0  0  0
    4.6641    1.0000    0.0000 C   0  0  0  0  0  0  0  0  0  0  0  0
    6.3961   -1.0000    0.0000 C   0  0  0  0  0  0  0  0  0  0  0  0
    7.2901    0.4653    0.0000 C   0  0  0  0  0  0  0  0  0  0  0  0
    3.7702   -0.4653    0.0000 C   0  0  0  0  0  0  0  0  0  0  0  0
    5.5301    2.5000    0.0000 C   0  0  0  0  0  0  0  0  0  0  0  0
    5.5301   -2.5000    0.0000 C   0  0  0  0  0  0  0  0  0  0  0  0
    8.1962    0.9792    0.0000 C   0  0  0  0  0  0  0  0  0  0  0  0
    2.8641   -0.9792    0.0000 C   0  0  0  0  0  0  0  0  0  0  0  0
    7.2901    2.5347    0.0000 C   0  0  0  0  0  0  0  0  0  0  0  0
    3.7702   -2.5347    0.0000 C   0  0  0  0  0  0  0  0  0  0  0  0
    4.6641    2.0000    0.0000 C   0  0  0  0  0  0  0  0  0  0  0  0
    6.3961   -2.0000    0.0000 C   0  0  0  0  0  0  0  0  0  0  0  0
    8.1962    2.0208    0.0000 C   0  0  0  0  0  0  0  0  0  0  0  0
    2.8641   -2.0208    0.0000 C   0  0  0  0  0  0  0  0  0  0  0  0
    2.0000   -0.4758    0.0000 C   0  0  0  0  0  0  0  0  0  0  0  0
    9.0602    0.4758    0.0000 C   0  0  0  0  0  0  0  0  0  0  0  0
    6.9331   -0.6900    0.0000 H   0  0  0  0  0  0  0  0  0  0  0  0
    4.1272    0.6900    0.0000 H   0  0  0  0  0  0  0  0  0  0  0  0
    6.9331   -2.3100    0.0000 H   0  0  0  0  0  0  0  0  0  0  0  0
    4.1272    2.3100    0.0000 H   0  0  0  0  0  0  0  0  0  0  0  0
    2.3284   -2.3329    0.0000 H   0  0  0  0  0  0  0  0  0  0  0  0
    8.7319    2.3329    0.0000 H   0  0  0  0  0  0  0  0  0  0  0  0
    2.3121    0.0599    0.0000 H   0  0  0  0  0  0  0  0  0  0  0  0
    8.7482   -0.0599    0.0000 H   0  0  0  0  0  0  0  0  0  0  0  0
    9.5960    0.1638    0.0000 H   0  0  0  0  0  0  0  0  0  0  0  0
    9.3723    1.0116    0.0000 H   0  0  0  0  0  0  0  0  0  0  0  0
    1.4643   -0.1638    0.0000 H   0  0  0  0  0  0  0  0  0  0  0  0
    1.6879   -1.0116    0.0000 H   0  0  0  0  0  0  0  0  0  0  0  0
    4.9932    3.8100    0.0000 H   0  0  0  0  0  0  0  0  0  0  0  0
    6.0671   -3.8100    0.0000 H   0  0  0  0  0  0  0  0  0  0  0  0
  1 17  1  0  0  0  0
  1 41  1  0  0  0  0
  2 18  1  0  0  0  0
  2 42  1  0  0  0  0
  3 15  2  0  0  0  0
  4 16  2  0  0  0  0
  5 21  2  0  0  0  0
  6 22  2  0  0  0  0
  7  8  1  0  0  0  0
  7  9  2  0  0  0  0
  7 13  1  0  0  0  0
  8 10  2  0  0  0  0
  8 14  1  0  0  0  0
  9 12  1  0  0  0  0
  9 15  1  0  0  0  0
 10 11  1  0  0  0  0
 10 16  1  0  0  0  0
 11 18  2  0  0  0  0
 11 22  1  0  0  0  0
 12 17  2  0  0  0  0
 12 21  1  0  0  0  0
 13 23  2  0  0  0  0
 13 30  1  0  0  0  0
 14 24  2  0  0  0  0
 14 29  1  0  0  0  0
 15 19  1  0  0  0  0
 16 20  1  0  0  0  0
 17 23  1  0  0  0  0
 18 24  1  0  0  0  0
 19 25  2  0  0  0  0
 19 28  1  0  0  0  0
 20 26  2  0  0  0  0
 20 27  1  0  0  0  0
 21 25  1  0  0  0  0
 22 26  1  0  0  0  0
 23 32  1  0  0  0  0
 24 31  1  0  0  0  0
 25 34  1  0  0  0  0
 26 33  1  0  0  0  0
 27 35  1  0  0  0  0
 27 39  1  0  0  0  0
 27 40  1  0  0  0  0
 28 36  1  0  0  0  0
 28 37  1  0  0  0  0
 28 38  1  0  0  0  0
M  END
>  <PUBCHEM_COMPOUND_CID>
633024

>  <PUBCHEM_COMPOUND_CANONICALIZED>
1

>  <PUBCHEM_CACTVS_COMPLEXITY>
753

>  <PUBCHEM_CACTVS_HBOND_ACCEPTOR>
6

>  <PUBCHEM_CACTVS_HBOND_DONOR>
2

>  <PUBCHEM_CACTVS_ROTATABLE_BOND>
1

>  <PUBCHEM_CACTVS_SUBSKEYS>
AAADccB4OAAAAAAAAAAAAAAAAAAAAAAAAAAwYIEAAAAAAACBQAAAGgAACAAADASAmAAyBoAAAgCIAqBSAAACAAAkIAAIiAEGCMgIJjaCFRKAcUAk4BEImYeLyPCOoAADAAAYAABAAAYAADAAAAAAAAAAAA==

>  <PUBCHEM_IUPAC_OPENEYE_NAME>
5-hydroxy-8-(4-hydroxy-7-methyl-5,8-dioxo-1-naphthyl)-2-methyl-naphthalene-1,4-dione

>  <PUBCHEM_IUPAC_CAS_NAME>
5-hydroxy-8-(4-hydroxy-7-methyl-5,8-dioxo-1-naphthalenyl)-2-methylnaphthalene-1,4-dione

>  <PUBCHEM_IUPAC_NAME>
5-hydroxy-8-(4-hydroxy-7-methyl-5,8-dioxonaphthalen-1-yl)-2-methylnaphthalene-1,4-dione

>  <PUBCHEM_IUPAC_SYSTEMATIC_NAME>
2-methyl-8-[7-methyl-4-oxidanyl-5,8-bis(oxidanylidene)naphthalen-1-yl]-5-oxidanyl-naphthalene-1,4-dione

>  <PUBCHEM_IUPAC_TRADITIONAL_NAME>
5-hydroxy-8-(4-hydroxy-5,8-diketo-7-methyl-1-naphthyl)-2-methyl-1,4-naphthoquinone

>  <PUBCHEM_IUPAC_INCHI>
InChI=1S/C22H14O6/c1-9-7-15(25)19-13(23)5-3-11(17(19)21(9)27)12-4-6-14(24)20-16(26)8-10(2)22(28)18(12)20/h3-8,23-24H,1-2H3

>  <PUBCHEM_IUPAC_INCHIKEY>
XCRMWTKECYDCOD-UHFFFAOYSA-N

>  <PUBCHEM_XLOGP3_AA>
3.7

>  <PUBCHEM_EXACT_MASS>
374.079

>  <PUBCHEM_MOLECULAR_FORMULA>
C22H14O6

>  <PUBCHEM_MOLECULAR_WEIGHT>
374.348

>  <PUBCHEM_OPENEYE_CAN_SMILES>
CC1=CC(=O)C2=C(C=CC(=C2C1=O)C3=C4C(=C(C=C3)O)C(=O)C=C(C4=O)C)O

>  <PUBCHEM_OPENEYE_ISO_SMILES>
CC1=CC(=O)C2=C(C=CC(=C2C1=O)C3=C4C(=C(C=C3)O)C(=O)C=C(C4=O)C)O

>  <PUBCHEM_CACTVS_TPSA>
109

>  <PUBCHEM_MONOISOTOPIC_WEIGHT>
374.079

>  <PUBCHEM_TOTAL_CHARGE>
0

>  <PUBCHEM_HEAVY_ATOM_COUNT>
28

>  <PUBCHEM_ATOM_DEF_STEREO_COUNT>
0

>  <PUBCHEM_ATOM_UDEF_STEREO_COUNT>
0

>  <PUBCHEM_BOND_DEF_STEREO_COUNT>
0

>  <PUBCHEM_BOND_UDEF_STEREO_COUNT>
0

>  <PUBCHEM_ISOTOPIC_ATOM_COUNT>
0

>  <PUBCHEM_COMPONENT_COUNT>
1

>  <PUBCHEM_CACTVS_TAUTO_COUNT>
180

>  <PUBCHEM_COORDINATE_TYPE>
1
5
255

>  <PUBCHEM_BONDANNOTATIONS>
10  11  8
11  18  8
12  17  8
13  23  8
14  24  8
17  23  8
18  24  8
7  13  8
7  9  8
8  10  8
8  14  8
9  12  8

$$$$
