633621
 OpenBabel06101807152D

 47 50  0  0  0  0  0  0  0  0999 V2000
    6.3580   -0.9259    0.0000 O   0  0  0  0  0  0  0  0  0  0  0  0
   10.8076   -0.6210    0.0000 O   0  0  0  0  0  0  0  0  0  0  0  0
    8.1282    1.1329    0.0000 O   0  0  0  0  0  0  0  0  0  0  0  0
   10.8014   -2.2305    0.0000 O   0  0  0  0  0  0  0  0  0  0  0  0
    4.5981   -1.8913    0.0000 O   0  0  0  0  0  0  0  0  0  0  0  0
    2.8660   -0.8913    0.0000 O   0  0  0  0  0  0  0  0  0  0  0  0
    2.8660    1.1087    0.0000 O   0  0  0  0  0  0  0  0  0  0  0  0
    4.5981    2.1087    0.0000 O   0  0  0  0  0  0  0  0  0  0  0  0
    6.3465    2.1433    0.0000 O   0  0  0  0  0  0  0  0  0  0  0  0
    5.4641    0.6087    0.0000 C   0  0  0  0  0  0  0  0  0  0  0  0
    5.4641   -0.3913    0.0000 C   0  0  0  0  0  0  0  0  0  0  0  0
    7.2641   -0.4121    0.0000 C   0  0  0  0  0  0  0  0  0  0  0  0
    8.1282   -0.9154    0.0000 C   0  0  0  0  0  0  0  0  0  0  0  0
    7.2641    0.6296    0.0000 C   0  0  0  0  0  0  0  0  0  0  0  0
    4.5981   -0.8913    0.0000 C   0  0  0  0  0  0  0  0  0  0  0  0
    6.3580    1.1434    0.0000 C   0  0  0  0  0  0  0  0  0  0  0  0
    4.5981    1.1087    0.0000 C   0  0  0  0  0  0  0  0  0  0  0  0
    3.7320   -0.3913    0.0000 C   0  0  0  0  0  0  0  0  0  0  0  0
    3.7320    0.6087    0.0000 C   0  0  0  0  0  0  0  0  0  0  0  0
    8.9962   -0.4188    0.0000 C   0  0  0  0  0  0  0  0  0  0  0  0
    9.8602   -0.9221    0.0000 C   0  0  0  0  0  0  0  0  0  0  0  0
    8.1244   -1.9154    0.0000 C   0  0  0  0  0  0  0  0  0  0  0  0
    9.8564   -1.9221    0.0000 C   0  0  0  0  0  0  0  0  0  0  0  0
    8.9884   -2.4187    0.0000 C   0  0  0  0  0  0  0  0  0  0  0  0
   11.3881   -1.4280    0.0000 C   0  0  0  0  0  0  0  0  0  0  0  0
    8.1244    2.1329    0.0000 C   0  0  0  0  0  0  0  0  0  0  0  0
    3.7320   -2.3913    0.0000 C   0  0  0  0  0  0  0  0  0  0  0  0
    2.0000   -0.3913    0.0000 C   0  0  0  0  0  0  0  0  0  0  0  0
    2.0000    0.6087    0.0000 C   0  0  0  0  0  0  0  0  0  0  0  0
    8.9985    0.2012    0.0000 H   0  0  0  0  0  0  0  0  0  0  0  0
    7.5862   -2.2233    0.0000 H   0  0  0  0  0  0  0  0  0  0  0  0
    8.9860   -3.0387    0.0000 H   0  0  0  0  0  0  0  0  0  0  0  0
   11.8474   -1.8445    0.0000 H   0  0  0  0  0  0  0  0  0  0  0  0
   11.8506   -1.0150    0.0000 H   0  0  0  0  0  0  0  0  0  0  0  0
    4.0611    2.4187    0.0000 H   0  0  0  0  0  0  0  0  0  0  0  0
    8.7443    2.1353    0.0000 H   0  0  0  0  0  0  0  0  0  0  0  0
    8.1220    2.7529    0.0000 H   0  0  0  0  0  0  0  0  0  0  0  0
    7.5044    2.1305    0.0000 H   0  0  0  0  0  0  0  0  0  0  0  0
    3.4220   -1.8543    0.0000 H   0  0  0  0  0  0  0  0  0  0  0  0
    3.1951   -2.7013    0.0000 H   0  0  0  0  0  0  0  0  0  0  0  0
    4.0420   -2.9282    0.0000 H   0  0  0  0  0  0  0  0  0  0  0  0
    2.3100    0.1457    0.0000 H   0  0  0  0  0  0  0  0  0  0  0  0
    1.4631   -0.0813    0.0000 H   0  0  0  0  0  0  0  0  0  0  0  0
    1.6900   -0.9282    0.0000 H   0  0  0  0  0  0  0  0  0  0  0  0
    1.6900    1.1457    0.0000 H   0  0  0  0  0  0  0  0  0  0  0  0
    1.4631    0.2987    0.0000 H   0  0  0  0  0  0  0  0  0  0  0  0
    2.3100    0.0718    0.0000 H   0  0  0  0  0  0  0  0  0  0  0  0
  1 11  1  0  0  0  0
  1 12  1  0  0  0  0
  2 21  1  0  0  0  0
  2 25  1  0  0  0  0
  3 14  1  0  0  0  0
  3 26  1  0  0  0  0
  4 23  1  0  0  0  0
  4 25  1  0  0  0  0
  5 15  1  0  0  0  0
  5 27  1  0  0  0  0
  6 18  1  0  0  0  0
  6 28  1  0  0  0  0
  7 19  1  0  0  0  0
  7 29  1  0  0  0  0
  8 17  1  0  0  0  0
  8 35  1  0  0  0  0
  9 16  2  0  0  0  0
 10 11  1  0  0  0  0
 10 16  1  0  0  0  0
 10 17  2  0  0  0  0
 11 15  2  0  0  0  0
 12 13  1  0  0  0  0
 12 14  2  0  0  0  0
 13 20  2  0  0  0  0
 13 22  1  0  0  0  0
 14 16  1  0  0  0  0
 15 18  1  0  0  0  0
 17 19  1  0  0  0  0
 18 19  2  0  0  0  0
 20 21  1  0  0  0  0
 20 30  1  0  0  0  0
 21 23  2  0  0  0  0
 22 24  2  0  0  0  0
 22 31  1  0  0  0  0
 23 24  1  0  0  0  0
 24 32  1  0  0  0  0
 25 33  1  0  0  0  0
 25 34  1  0  0  0  0
 26 36  1  0  0  0  0
 26 37  1  0  0  0  0
 26 38  1  0  0  0  0
 27 39  1  0  0  0  0
 27 40  1  0  0  0  0
 27 41  1  0  0  0  0
 28 42  1  0  0  0  0
 28 43  1  0  0  0  0
 28 44  1  0  0  0  0
 29 45  1  0  0  0  0
 29 46  1  0  0  0  0
 29 47  1  0  0  0  0
M  END
>  <PUBCHEM_COMPOUND_CID>
633621

>  <PUBCHEM_COMPOUND_CANONICALIZED>
1

>  <PUBCHEM_CACTVS_COMPLEXITY>
650

>  <PUBCHEM_CACTVS_HBOND_ACCEPTOR>
9

>  <PUBCHEM_CACTVS_HBOND_DONOR>
1

>  <PUBCHEM_CACTVS_ROTATABLE_BOND>
5

>  <PUBCHEM_CACTVS_SUBSKEYS>
AAADceB4PAAAAAAAAAAAAAAAAAAAASAAAAAwYIAAAAAAAEiBQAAAGgAACAAADASAmAMyDoAABgCIAqBSAAICCAAkIAAIiAFGiMgdJzaGNR6ieWOl4BUPuQfK7LzOIQABCAAIQABCAAIQABCAAAAAAAAAAA==

>  <PUBCHEM_IUPAC_OPENEYE_NAME>
2-(1,3-benzodioxol-5-yl)-5-hydroxy-3,6,7,8-tetramethoxy-chromen-4-one

>  <PUBCHEM_IUPAC_CAS_NAME>
2-(1,3-benzodioxol-5-yl)-5-hydroxy-3,6,7,8-tetramethoxy-1-benzopyran-4-one

>  <PUBCHEM_IUPAC_NAME>
2-(1,3-benzodioxol-5-yl)-5-hydroxy-3,6,7,8-tetramethoxychromen-4-one

>  <PUBCHEM_IUPAC_SYSTEMATIC_NAME>
2-(1,3-benzodioxol-5-yl)-3,6,7,8-tetramethoxy-5-oxidanyl-chromen-4-one

>  <PUBCHEM_IUPAC_TRADITIONAL_NAME>
2-(1,3-benzodioxol-5-yl)-5-hydroxy-3,6,7,8-tetramethoxy-chromone

>  <PUBCHEM_IUPAC_INCHI>
InChI=1S/C20H18O9/c1-23-17-13(21)12-14(22)18(24-2)20(26-4)19(25-3)16(12)29-15(17)9-5-6-10-11(7-9)28-8-27-10/h5-7,22H,8H2,1-4H3

>  <PUBCHEM_IUPAC_INCHIKEY>
PRTCFQOQYWNVJL-UHFFFAOYSA-N

>  <PUBCHEM_XLOGP3_AA>
3.3

>  <PUBCHEM_EXACT_MASS>
402.095

>  <PUBCHEM_MOLECULAR_FORMULA>
C20H18O9

>  <PUBCHEM_MOLECULAR_WEIGHT>
402.355

>  <PUBCHEM_OPENEYE_CAN_SMILES>
COC1=C(C2=C(C(=C1OC)OC)OC(=C(C2=O)OC)C3=CC4=C(C=C3)OCO4)O

>  <PUBCHEM_OPENEYE_ISO_SMILES>
COC1=C(C2=C(C(=C1OC)OC)OC(=C(C2=O)OC)C3=CC4=C(C=C3)OCO4)O

>  <PUBCHEM_CACTVS_TPSA>
102

>  <PUBCHEM_MONOISOTOPIC_WEIGHT>
402.095

>  <PUBCHEM_TOTAL_CHARGE>
0

>  <PUBCHEM_HEAVY_ATOM_COUNT>
29

>  <PUBCHEM_ATOM_DEF_STEREO_COUNT>
0

>  <PUBCHEM_ATOM_UDEF_STEREO_COUNT>
0

>  <PUBCHEM_BOND_DEF_STEREO_COUNT>
0

>  <PUBCHEM_BOND_UDEF_STEREO_COUNT>
0

>  <PUBCHEM_ISOTOPIC_ATOM_COUNT>
0

>  <PUBCHEM_COMPONENT_COUNT>
1

>  <PUBCHEM_CACTVS_TAUTO_COUNT>
4

>  <PUBCHEM_COORDINATE_TYPE>
1
5
255

>  <PUBCHEM_BONDANNOTATIONS>
1  11  8
1  12  8
10  11  8
10  16  8
10  17  8
11  15  8
12  14  8
13  20  8
13  22  8
14  16  8
15  18  8
17  19  8
18  19  8
20  21  8
21  23  8
22  24  8
23  24  8

$$$$
