634867
 OpenBabel06101807152D

 60 63  0  0  1  0  0  0  0  0999 V2000
    7.4260   -3.1074    0.0000 O   0  0  0  0  0  0  0  0  0  0  0  0
    3.9061   -3.1074    0.0000 O   0  0  0  0  0  0  0  0  0  0  0  0
    7.4144   -0.0381    0.0000 O   0  0  0  0  0  0  0  0  0  0  0  0
    5.6660   -0.0727    0.0000 O   0  0  0  0  0  0  0  0  0  0  0  0
   10.0680   -2.5452    0.0000 O   0  0  0  0  0  0  0  0  0  0  0  0
   11.7884    0.4615    0.0000 O   0  0  0  0  0  0  0  0  0  0  0  0
    8.3321   -1.5519    0.0000 C   0  0  3  0  0  0  0  0  0  0  0  0
    8.3321   -2.5935    0.0000 C   0  0  0  0  0  0  0  0  0  0  0  0
    6.5320   -1.5727    0.0000 C   0  0  0  0  0  0  0  0  0  0  0  0
    7.4260   -1.0380    0.0000 C   0  0  0  0  0  0  0  0  0  0  0  0
    9.1962   -1.0485    0.0000 C   0  0  0  0  0  0  0  0  0  0  0  0
    3.0000   -2.5935    0.0000 C   0  0  0  0  0  0  0  0  0  0  0  0
    6.5320   -2.5727    0.0000 C   0  0  0  0  0  0  0  0  0  0  0  0
    4.8000   -1.5727    0.0000 C   0  0  0  0  0  0  0  0  0  0  0  0
    4.8000   -2.5727    0.0000 C   0  0  0  0  0  0  0  0  0  0  0  0
    5.6660   -1.0727    0.0000 C   0  0  0  0  0  0  0  0  0  0  0  0
    5.6660   -3.0727    0.0000 C   0  0  0  0  0  0  0  0  0  0  0  0
    3.0000   -1.5519    0.0000 C   0  0  0  0  0  0  0  0  0  0  0  0
    9.1923   -0.0485    0.0000 C   0  0  0  0  0  0  0  0  0  0  0  0
    3.9061   -1.0380    0.0000 C   0  0  0  0  0  0  0  0  0  0  0  0
   10.0641   -1.5452    0.0000 C   0  0  0  0  0  0  0  0  0  0  0  0
   10.0564    0.4548    0.0000 C   0  0  0  0  0  0  0  0  0  0  0  0
    2.0000   -2.5974    0.0000 C   0  0  0  0  0  0  0  0  0  0  0  0
    2.5033   -3.4614    0.0000 C   0  0  0  0  0  0  0  0  0  0  0  0
   10.9282   -1.0419    0.0000 C   0  0  0  0  0  0  0  0  0  0  0  0
   10.9243   -0.0419    0.0000 C   0  0  0  0  0  0  0  0  0  0  0  0
   10.0525    1.4548    0.0000 C   0  0  0  0  0  0  0  0  0  0  0  0
   10.9166    1.9581    0.0000 C   0  0  0  0  0  0  0  0  0  0  0  0
   10.9128    2.9581    0.0000 C   0  0  0  0  0  0  0  0  0  0  0  0
   10.9359   -3.0418    0.0000 C   0  0  0  0  0  0  0  0  0  0  0  0
   11.7769    3.4614    0.0000 C   0  0  0  0  0  0  0  0  0  0  0  0
   10.0448    3.4548    0.0000 C   0  0  0  0  0  0  0  0  0  0  0  0
    8.3285   -0.9319    0.0000 H   0  0  0  0  0  0  0  0  0  0  0  0
    8.5411   -3.1772    0.0000 H   0  0  0  0  0  0  0  0  0  0  0  0
    8.9429   -2.4874    0.0000 H   0  0  0  0  0  0  0  0  0  0  0  0
    5.6660   -3.6927    0.0000 H   0  0  0  0  0  0  0  0  0  0  0  0
    2.4643   -1.2398    0.0000 H   0  0  0  0  0  0  0  0  0  0  0  0
    8.6542    0.2594    0.0000 H   0  0  0  0  0  0  0  0  0  0  0  0
    3.9132   -0.4181    0.0000 H   0  0  0  0  0  0  0  0  0  0  0  0
    1.9976   -1.9774    0.0000 H   0  0  0  0  0  0  0  0  0  0  0  0
    1.3800   -2.5997    0.0000 H   0  0  0  0  0  0  0  0  0  0  0  0
    2.0024   -3.2174    0.0000 H   0  0  0  0  0  0  0  0  0  0  0  0
    1.9652   -3.1535    0.0000 H   0  0  0  0  0  0  0  0  0  0  0  0
    2.1954   -3.9996    0.0000 H   0  0  0  0  0  0  0  0  0  0  0  0
    3.0415   -3.7694    0.0000 H   0  0  0  0  0  0  0  0  0  0  0  0
   11.4663   -1.3498    0.0000 H   0  0  0  0  0  0  0  0  0  0  0  0
    9.8382    2.0366    0.0000 H   0  0  0  0  0  0  0  0  0  0  0  0
    9.4424    1.3448    0.0000 H   0  0  0  0  0  0  0  0  0  0  0  0
    5.1291    0.2373    0.0000 H   0  0  0  0  0  0  0  0  0  0  0  0
   11.4548    1.6502    0.0000 H   0  0  0  0  0  0  0  0  0  0  0  0
   12.3266    0.1535    0.0000 H   0  0  0  0  0  0  0  0  0  0  0  0
   10.6280   -3.5800    0.0000 H   0  0  0  0  0  0  0  0  0  0  0  0
   11.4740   -3.3498    0.0000 H   0  0  0  0  0  0  0  0  0  0  0  0
   11.2438   -2.5037    0.0000 H   0  0  0  0  0  0  0  0  0  0  0  0
   12.0889    2.9257    0.0000 H   0  0  0  0  0  0  0  0  0  0  0  0
   10.3528    3.9929    0.0000 H   0  0  0  0  0  0  0  0  0  0  0  0
    9.5067    3.7627    0.0000 H   0  0  0  0  0  0  0  0  0  0  0  0
    9.7369    2.9166    0.0000 H   0  0  0  0  0  0  0  0  0  0  0  0
   12.3126    3.7735    0.0000 H   0  0  0  0  0  0  0  0  0  0  0  0
   11.4648    3.9972    0.0000 H   0  0  0  0  0  0  0  0  0  0  0  0
  1  8  1  0  0  0  0
  1 13  1  0  0  0  0
  2 12  1  0  0  0  0
  2 15  1  0  0  0  0
  3 10  2  0  0  0  0
  4 16  1  0  0  0  0
  4 49  1  0  0  0  0
  5 21  1  0  0  0  0
  5 30  1  0  0  0  0
  6 26  1  0  0  0  0
  6 51  1  0  0  0  0
  7  8  1  0  0  0  0
  7 10  1  0  0  0  0
  7 11  1  0  0  0  0
  7 33  1  0  0  0  0
  8 34  1  0  0  0  0
  8 35  1  0  0  0  0
  9 10  1  0  0  0  0
  9 13  2  0  0  0  0
  9 16  1  0  0  0  0
 11 19  1  0  0  0  0
 11 21  2  0  0  0  0
 12 18  1  0  0  0  0
 12 23  1  0  0  0  0
 12 24  1  0  0  0  0
 13 17  1  0  0  0  0
 14 15  1  0  0  0  0
 14 16  2  0  0  0  0
 14 20  1  0  0  0  0
 15 17  2  0  0  0  0
 17 36  1  0  0  0  0
 18 20  2  0  0  0  0
 18 37  1  0  0  0  0
 19 22  2  0  0  0  0
 19 38  1  0  0  0  0
 20 39  1  0  0  0  0
 21 25  1  0  0  0  0
 22 26  1  0  0  0  0
 22 27  1  0  0  0  0
 23 40  1  0  0  0  0
 23 41  1  0  0  0  0
 23 42  1  0  0  0  0
 24 43  1  0  0  0  0
 24 44  1  0  0  0  0
 24 45  1  0  0  0  0
 25 26  2  0  0  0  0
 25 46  1  0  0  0  0
 27 28  1  0  0  0  0
 27 47  1  0  0  0  0
 27 48  1  0  0  0  0
 28 29  2  0  0  0  0
 28 50  1  0  0  0  0
 29 31  1  0  0  0  0
 29 32  1  0  0  0  0
 30 52  1  0  0  0  0
 30 53  1  0  0  0  0
 30 54  1  0  0  0  0
 31 55  1  0  0  0  0
 31 59  1  0  0  0  0
 31 60  1  0  0  0  0
 32 56  1  0  0  0  0
 32 57  1  0  0  0  0
 32 58  1  0  0  0  0
M  END
>  <PUBCHEM_COMPOUND_CID>
634867

>  <PUBCHEM_COMPOUND_CANONICALIZED>
1

>  <PUBCHEM_CACTVS_COMPLEXITY>
753

>  <PUBCHEM_CACTVS_HBOND_ACCEPTOR>
6

>  <PUBCHEM_CACTVS_HBOND_DONOR>
2

>  <PUBCHEM_CACTVS_ROTATABLE_BOND>
4

>  <PUBCHEM_CACTVS_SUBSKEYS>
AAADceB4OAAAAAAAAAAAAAAAAAAAAAAAAAA0YIEAAAAAAACRQAAAGgAACAAADUSgmAIyBoAABgCIAqBSAAACCAAkIAAIiAEGCMgMJzaGNRqCeWCl4BUIuQfK7PzOoAACCAAIAABAAAQQABAAAAAAAAAAAA==

>  <PUBCHEM_IUPAC_OPENEYE_NAME>
5-hydroxy-7-[4-hydroxy-2-methoxy-5-(3-methylbut-2-enyl)phenyl]-2,2-dimethyl-7,8-dihydropyrano[3,2-g]chromen-6-one

>  <PUBCHEM_IUPAC_CAS_NAME>
5-hydroxy-7-[4-hydroxy-2-methoxy-5-(3-methylbut-2-enyl)phenyl]-2,2-dimethyl-7,8-dihydropyrano[3,2-g][1]benzopyran-6-one

>  <PUBCHEM_IUPAC_NAME>
5-hydroxy-7-[4-hydroxy-2-methoxy-5-(3-methylbut-2-enyl)phenyl]-2,2-dimethyl-7,8-dihydropyrano[3,2-g]chromen-6-one

>  <PUBCHEM_IUPAC_SYSTEMATIC_NAME>
7-[2-methoxy-5-(3-methylbut-2-enyl)-4-oxidanyl-phenyl]-2,2-dimethyl-5-oxidanyl-7,8-dihydropyrano[3,2-g]chromen-6-one

>  <PUBCHEM_IUPAC_TRADITIONAL_NAME>
5-hydroxy-7-[4-hydroxy-2-methoxy-5-(3-methylbut-2-enyl)phenyl]-2,2-dimethyl-7,8-dihydropyrano[3,2-g]chromen-6-one

>  <PUBCHEM_IUPAC_INCHI>
InChI=1S/C26H28O6/c1-14(2)6-7-15-10-17(20(30-5)11-19(15)27)18-13-31-22-12-21-16(8-9-26(3,4)32-21)24(28)23(22)25(18)29/h6,8-12,18,27-28H,7,13H2,1-5H3

>  <PUBCHEM_IUPAC_INCHIKEY>
REBVXJPVOISSEO-UHFFFAOYSA-N

>  <PUBCHEM_XLOGP3_AA>
5.7

>  <PUBCHEM_EXACT_MASS>
436.189

>  <PUBCHEM_MOLECULAR_FORMULA>
C26H28O6

>  <PUBCHEM_MOLECULAR_WEIGHT>
436.504

>  <PUBCHEM_OPENEYE_CAN_SMILES>
CC(=CCC1=C(C=C(C(=C1)C2COC3=C(C2=O)C(=C4C=CC(OC4=C3)(C)C)O)OC)O)C

>  <PUBCHEM_OPENEYE_ISO_SMILES>
CC(=CCC1=C(C=C(C(=C1)C2COC3=C(C2=O)C(=C4C=CC(OC4=C3)(C)C)O)OC)O)C

>  <PUBCHEM_CACTVS_TPSA>
85.2

>  <PUBCHEM_MONOISOTOPIC_WEIGHT>
436.189

>  <PUBCHEM_TOTAL_CHARGE>
0

>  <PUBCHEM_HEAVY_ATOM_COUNT>
32

>  <PUBCHEM_ATOM_DEF_STEREO_COUNT>
0

>  <PUBCHEM_ATOM_UDEF_STEREO_COUNT>
1

>  <PUBCHEM_BOND_DEF_STEREO_COUNT>
0

>  <PUBCHEM_BOND_UDEF_STEREO_COUNT>
0

>  <PUBCHEM_ISOTOPIC_ATOM_COUNT>
0

>  <PUBCHEM_COMPONENT_COUNT>
1

>  <PUBCHEM_CACTVS_TAUTO_COUNT>
37

>  <PUBCHEM_COORDINATE_TYPE>
1
5
255

>  <PUBCHEM_BONDANNOTATIONS>
11  19  8
11  21  8
13  17  8
14  15  8
14  16  8
15  17  8
19  22  8
21  25  8
22  26  8
25  26  8
7  11  3
9  13  8
9  16  8

$$$$
