636439
 OpenBabel06101807152D

 27 26  0  0  1  0  0  0  0  0999 V2000
    6.0010   -0.0950    0.0000 S   0  0  3  0  0  0  0  0  0  0  0  0
    6.0010   -1.0950    0.0000 O   0  0  0  0  0  0  0  0  0  0  0  0
    2.5369   -0.0950    0.0000 O   0  0  0  0  0  0  0  0  0  0  0  0
    3.4030    1.4050    0.0000 O   0  0  0  0  0  0  0  0  0  0  0  0
    4.2690   -1.0950    0.0000 N   0  0  0  0  0  0  0  0  0  0  0  0
    6.8671    0.4050    0.0000 C   0  0  0  0  0  0  0  0  0  0  0  0
    7.7331   -0.0950    0.0000 C   0  0  0  0  0  0  0  0  0  0  0  0
    5.1350    0.4050    0.0000 C   0  0  0  0  0  0  0  0  0  0  0  0
    4.2690   -0.0950    0.0000 C   0  0  1  0  0  0  0  0  0  0  0  0
    8.5991    0.4050    0.0000 C   0  0  0  0  0  0  0  0  0  0  0  0
    9.4651   -0.0950    0.0000 C   0  0  0  0  0  0  0  0  0  0  0  0
    3.4030    0.4050    0.0000 C   0  0  0  0  0  0  0  0  0  0  0  0
    7.2656    0.8799    0.0000 H   0  0  0  0  0  0  0  0  0  0  0  0
    6.4685    0.8799    0.0000 H   0  0  0  0  0  0  0  0  0  0  0  0
    7.3346   -0.5699    0.0000 H   0  0  0  0  0  0  0  0  0  0  0  0
    8.1316   -0.5699    0.0000 H   0  0  0  0  0  0  0  0  0  0  0  0
    5.5335    0.8799    0.0000 H   0  0  0  0  0  0  0  0  0  0  0  0
    4.7365    0.8799    0.0000 H   0  0  0  0  0  0  0  0  0  0  0  0
    4.8059   -0.4050    0.0000 H   0  0  0  0  0  0  0  0  0  0  0  0
    8.9976    0.8799    0.0000 H   0  0  0  0  0  0  0  0  0  0  0  0
    8.2006    0.8799    0.0000 H   0  0  0  0  0  0  0  0  0  0  0  0
    9.1551   -0.6319    0.0000 H   0  0  0  0  0  0  0  0  0  0  0  0
   10.0021   -0.4050    0.0000 H   0  0  0  0  0  0  0  0  0  0  0  0
    9.7751    0.4419    0.0000 H   0  0  0  0  0  0  0  0  0  0  0  0
    4.8059   -1.4050    0.0000 H   0  0  0  0  0  0  0  0  0  0  0  0
    3.7320   -1.4050    0.0000 H   0  0  0  0  0  0  0  0  0  0  0  0
    2.0000    0.2150    0.0000 H   0  0  0  0  0  0  0  0  0  0  0  0
  1  2  2  0  0  0  0
  1  6  1  0  0  0  0
  1  8  1  0  0  0  0
  3 12  1  0  0  0  0
  3 27  1  0  0  0  0
  4 12  2  0  0  0  0
  5 25  1  0  0  0  0
  5 26  1  0  0  0  0
  6  7  1  0  0  0  0
  6 13  1  0  0  0  0
  6 14  1  0  0  0  0
  7 10  1  0  0  0  0
  7 15  1  0  0  0  0
  7 16  1  0  0  0  0
  8  9  1  0  0  0  0
  8 17  1  0  0  0  0
  8 18  1  0  0  0  0
  9  5  1  0  0  0  0
  9 12  1  0  0  0  0
  9 19  1  1  0  0  0
 10 11  1  0  0  0  0
 10 20  1  0  0  0  0
 10 21  1  0  0  0  0
 11 22  1  0  0  0  0
 11 23  1  0  0  0  0
 11 24  1  0  0  0  0
M  END
>  <PUBCHEM_COMPOUND_CID>
636439

>  <PUBCHEM_COMPOUND_CANONICALIZED>
1

>  <PUBCHEM_CACTVS_COMPLEXITY>
172

>  <PUBCHEM_CACTVS_HBOND_ACCEPTOR>
5

>  <PUBCHEM_CACTVS_HBOND_DONOR>
2

>  <PUBCHEM_CACTVS_ROTATABLE_BOND>
6

>  <PUBCHEM_CACTVS_SUBSKEYS>
AAADccBiMABAAAAAAAAAAAAAAAAAAAAAAAAAAAAAAAAAAAAAAAAAHgQQCAAACCjFwASCCABAAgoIAACQCEBAAAAAABAAAIGAAAACAAAgAAAAQAAAEAAgAAAAAAAAAAAAAAAAAAAAAAAAAAAAAAAAAAAAAA==

>  <PUBCHEM_IUPAC_OPENEYE_NAME>
(2R)-2-amino-3-butylsulfinyl-propanoic acid

>  <PUBCHEM_IUPAC_CAS_NAME>
(2R)-2-amino-3-butylsulfinylpropanoic acid

>  <PUBCHEM_IUPAC_NAME>
(2R)-2-amino-3-butylsulfinylpropanoic acid

>  <PUBCHEM_IUPAC_SYSTEMATIC_NAME>
(2R)-2-azanyl-3-butylsulfinyl-propanoic acid

>  <PUBCHEM_IUPAC_TRADITIONAL_NAME>
(2R)-2-amino-3-butylsulfinyl-propionic acid

>  <PUBCHEM_IUPAC_INCHI>
InChI=1S/C7H15NO3S/c1-2-3-4-12(11)5-6(8)7(9)10/h6H,2-5,8H2,1H3,(H,9,10)/t6-,12?/m0/s1

>  <PUBCHEM_IUPAC_INCHIKEY>
CBFHOPPJBYHALQ-RLWMBFFFSA-N

>  <PUBCHEM_XLOGP3_AA>
-3.1

>  <PUBCHEM_EXACT_MASS>
193.077

>  <PUBCHEM_MOLECULAR_FORMULA>
C7H15NO3S

>  <PUBCHEM_MOLECULAR_WEIGHT>
193.261

>  <PUBCHEM_OPENEYE_CAN_SMILES>
CCCCS(=O)CC(C(=O)O)N

>  <PUBCHEM_OPENEYE_ISO_SMILES>
CCCCS(=O)C[C@@H](C(=O)O)N

>  <PUBCHEM_CACTVS_TPSA>
99.6

>  <PUBCHEM_MONOISOTOPIC_WEIGHT>
193.077

>  <PUBCHEM_TOTAL_CHARGE>
0

>  <PUBCHEM_HEAVY_ATOM_COUNT>
12

>  <PUBCHEM_ATOM_DEF_STEREO_COUNT>
1

>  <PUBCHEM_ATOM_UDEF_STEREO_COUNT>
1

>  <PUBCHEM_BOND_DEF_STEREO_COUNT>
0

>  <PUBCHEM_BOND_UDEF_STEREO_COUNT>
0

>  <PUBCHEM_ISOTOPIC_ATOM_COUNT>
0

>  <PUBCHEM_COMPONENT_COUNT>
1

>  <PUBCHEM_CACTVS_TAUTO_COUNT>
1

>  <PUBCHEM_COORDINATE_TYPE>
1
5
255

>  <PUBCHEM_BONDANNOTATIONS>
1  8  3
9  5  6

$$$$
