636825
 OpenBabel06101807152D

 33 34  0  0  0  0  0  0  0  0999 V2000
    2.5896    3.0835    0.0000 O   0  0  0  0  0  0  0  0  0  0  0  0
    7.5961    3.0835    0.0000 O   0  0  0  0  0  0  0  0  0  0  0  0
    4.2268   -3.3644    0.0000 O   0  0  0  0  0  0  0  0  0  0  0  0
    5.0929    2.1356    0.0000 N   0  0  0  0  0  0  0  0  0  0  0  0
    5.0929    1.1356    0.0000 C   0  0  0  0  0  0  0  0  0  0  0  0
    4.2268    0.6356    0.0000 C   0  0  0  0  0  0  0  0  0  0  0  0
    4.2839    2.7234    0.0000 C   0  0  0  0  0  0  0  0  0  0  0  0
    5.9019    2.7234    0.0000 C   0  0  0  0  0  0  0  0  0  0  0  0
    4.2268   -0.3644    0.0000 C   0  0  0  0  0  0  0  0  0  0  0  0
    4.5929    3.6744    0.0000 C   0  0  0  0  0  0  0  0  0  0  0  0
    5.5929    3.6744    0.0000 C   0  0  0  0  0  0  0  0  0  0  0  0
    3.3328    2.4144    0.0000 C   0  0  0  0  0  0  0  0  0  0  0  0
    3.3608   -0.8644    0.0000 C   0  0  0  0  0  0  0  0  0  0  0  0
    5.0929   -0.8644    0.0000 C   0  0  0  0  0  0  0  0  0  0  0  0
    6.8530    2.4144    0.0000 C   0  0  0  0  0  0  0  0  0  0  0  0
    3.3608   -1.8644    0.0000 C   0  0  0  0  0  0  0  0  0  0  0  0
    5.0929   -1.8644    0.0000 C   0  0  0  0  0  0  0  0  0  0  0  0
    4.2268   -2.3644    0.0000 C   0  0  0  0  0  0  0  0  0  0  0  0
    5.3049    0.5530    0.0000 H   0  0  0  0  0  0  0  0  0  0  0  0
    5.7034    1.2432    0.0000 H   0  0  0  0  0  0  0  0  0  0  0  0
    4.0148    1.2182    0.0000 H   0  0  0  0  0  0  0  0  0  0  0  0
    3.6163    0.5279    0.0000 H   0  0  0  0  0  0  0  0  0  0  0  0
    4.2284    4.1760    0.0000 H   0  0  0  0  0  0  0  0  0  0  0  0
    5.9573    4.1760    0.0000 H   0  0  0  0  0  0  0  0  0  0  0  0
    2.8442    2.0326    0.0000 H   0  0  0  0  0  0  0  0  0  0  0  0
    3.6239    1.8669    0.0000 H   0  0  0  0  0  0  0  0  0  0  0  0
    2.8239   -0.5544    0.0000 H   0  0  0  0  0  0  0  0  0  0  0  0
    5.6298   -0.5544    0.0000 H   0  0  0  0  0  0  0  0  0  0  0  0
    6.9818    1.8079    0.0000 H   0  0  0  0  0  0  0  0  0  0  0  0
    2.8239   -2.1744    0.0000 H   0  0  0  0  0  0  0  0  0  0  0  0
    5.6298   -2.1744    0.0000 H   0  0  0  0  0  0  0  0  0  0  0  0
    2.0000    2.8919    0.0000 H   0  0  0  0  0  0  0  0  0  0  0  0
    3.6899   -3.6744    0.0000 H   0  0  0  0  0  0  0  0  0  0  0  0
  1 12  1  0  0  0  0
  1 32  1  0  0  0  0
  2 15  2  0  0  0  0
  3 18  1  0  0  0  0
  3 33  1  0  0  0  0
  4  5  1  0  0  0  0
  4  7  1  0  0  0  0
  4  8  1  0  0  0  0
  5  6  1  0  0  0  0
  5 19  1  0  0  0  0
  5 20  1  0  0  0  0
  6  9  1  0  0  0  0
  6 21  1  0  0  0  0
  6 22  1  0  0  0  0
  7 10  2  0  0  0  0
  7 12  1  0  0  0  0
  8 11  2  0  0  0  0
  8 15  1  0  0  0  0
  9 13  2  0  0  0  0
  9 14  1  0  0  0  0
 10 11  1  0  0  0  0
 10 23  1  0  0  0  0
 11 24  1  0  0  0  0
 12 25  1  0  0  0  0
 12 26  1  0  0  0  0
 13 16  1  0  0  0  0
 13 27  1  0  0  0  0
 14 17  2  0  0  0  0
 14 28  1  0  0  0  0
 15 29  1  0  0  0  0
 16 18  2  0  0  0  0
 16 30  1  0  0  0  0
 17 18  1  0  0  0  0
 17 31  1  0  0  0  0
M  END
>  <PUBCHEM_COMPOUND_CID>
636825

>  <PUBCHEM_COMPOUND_CANONICALIZED>
1

>  <PUBCHEM_CACTVS_COMPLEXITY>
264

>  <PUBCHEM_CACTVS_HBOND_ACCEPTOR>
3

>  <PUBCHEM_CACTVS_HBOND_DONOR>
2

>  <PUBCHEM_CACTVS_ROTATABLE_BOND>
5

>  <PUBCHEM_CACTVS_SUBSKEYS>
AAADccByMAAAAAAAAAAAAAAAAAAAAWAAAAAwAAAAAAAAAAABwAAAHgAACAAADAzhngYwhpMMEgCoAyxyxASCgCAnIiAI2CG+bNgKNvLClbOEcQhkwBHY2YeY2YMeIAAAAAAAAABAAAAAAAAAAAAAAAAAAA==

>  <PUBCHEM_IUPAC_OPENEYE_NAME>
5-(hydroxymethyl)-1-[2-(4-hydroxyphenyl)ethyl]pyrrole-2-carbaldehyde

>  <PUBCHEM_IUPAC_CAS_NAME>
5-(hydroxymethyl)-1-[2-(4-hydroxyphenyl)ethyl]-2-pyrrolecarboxaldehyde

>  <PUBCHEM_IUPAC_NAME>
5-(hydroxymethyl)-1-[2-(4-hydroxyphenyl)ethyl]pyrrole-2-carbaldehyde

>  <PUBCHEM_IUPAC_SYSTEMATIC_NAME>
5-(hydroxymethyl)-1-[2-(4-hydroxyphenyl)ethyl]pyrrole-2-carbaldehyde

>  <PUBCHEM_IUPAC_TRADITIONAL_NAME>
1-[2-(4-hydroxyphenyl)ethyl]-5-methylol-pyrrole-2-carbaldehyde

>  <PUBCHEM_IUPAC_INCHI>
InChI=1S/C14H15NO3/c16-9-12-3-4-13(10-17)15(12)8-7-11-1-5-14(18)6-2-11/h1-6,9,17-18H,7-8,10H2

>  <PUBCHEM_IUPAC_INCHIKEY>
KPSZYAMCIRWUTK-UHFFFAOYSA-N

>  <PUBCHEM_XLOGP3_AA>
1.1

>  <PUBCHEM_EXACT_MASS>
245.105

>  <PUBCHEM_MOLECULAR_FORMULA>
C14H15NO3

>  <PUBCHEM_MOLECULAR_WEIGHT>
245.278

>  <PUBCHEM_OPENEYE_CAN_SMILES>
C1=CC(=CC=C1CCN2C(=CC=C2C=O)CO)O

>  <PUBCHEM_OPENEYE_ISO_SMILES>
C1=CC(=CC=C1CCN2C(=CC=C2C=O)CO)O

>  <PUBCHEM_CACTVS_TPSA>
62.5

>  <PUBCHEM_MONOISOTOPIC_WEIGHT>
245.105

>  <PUBCHEM_TOTAL_CHARGE>
0

>  <PUBCHEM_HEAVY_ATOM_COUNT>
18

>  <PUBCHEM_ATOM_DEF_STEREO_COUNT>
0

>  <PUBCHEM_ATOM_UDEF_STEREO_COUNT>
0

>  <PUBCHEM_BOND_DEF_STEREO_COUNT>
0

>  <PUBCHEM_BOND_UDEF_STEREO_COUNT>
0

>  <PUBCHEM_ISOTOPIC_ATOM_COUNT>
0

>  <PUBCHEM_COMPONENT_COUNT>
1

>  <PUBCHEM_CACTVS_TAUTO_COUNT>
2

>  <PUBCHEM_COORDINATE_TYPE>
1
5
255

>  <PUBCHEM_BONDANNOTATIONS>
10  11  8
13  16  8
14  17  8
16  18  8
17  18  8
4  7  8
4  8  8
7  10  8
8  11  8
9  13  8
9  14  8

$$$$
