638667
 OpenBabel06101807152D

 26 28  0  0  0  0  0  0  0  0999 V2000
    5.9721    1.8290    0.0000 O   0  0  0  0  0  0  0  0  0  0  0  0
    4.5274    0.4946    0.0000 N   0  0  0  0  0  0  0  0  0  0  0  0
    7.0547   -0.6296    0.0000 N   0  0  0  0  0  0  0  0  0  0  0  0
    5.0274   -1.0442    0.0000 C   0  0  0  0  0  0  0  0  0  0  0  0
    4.0274   -1.0442    0.0000 C   0  0  0  0  0  0  0  0  0  0  0  0
    5.3364   -0.0932    0.0000 C   0  0  0  0  0  0  0  0  0  0  0  0
    3.7183   -0.0932    0.0000 C   0  0  0  0  0  0  0  0  0  0  0  0
    6.3518    0.1391    0.0000 C   0  0  0  0  0  0  0  0  0  0  0  0
    5.7123   -1.8290    0.0000 C   0  0  0  0  0  0  0  0  0  0  0  0
    3.3424   -1.8290    0.0000 C   0  0  0  0  0  0  0  0  0  0  0  0
    2.7029    0.1391    0.0000 C   0  0  0  0  0  0  0  0  0  0  0  0
    2.3219   -1.6203    0.0000 C   0  0  0  0  0  0  0  0  0  0  0  0
    2.0000   -0.6296    0.0000 C   0  0  0  0  0  0  0  0  0  0  0  0
    6.7328   -1.6203    0.0000 C   0  0  0  0  0  0  0  0  0  0  0  0
    6.6498    1.0936    0.0000 C   0  0  0  0  0  0  0  0  0  0  0  0
    7.6255    1.3128    0.0000 C   0  0  0  0  0  0  0  0  0  0  0  0
    4.5274    1.1146    0.0000 H   0  0  0  0  0  0  0  0  0  0  0  0
    5.5139   -2.4164    0.0000 H   0  0  0  0  0  0  0  0  0  0  0  0
    3.5408   -2.4164    0.0000 H   0  0  0  0  0  0  0  0  0  0  0  0
    2.5182    0.7309    0.0000 H   0  0  0  0  0  0  0  0  0  0  0  0
    1.9088   -2.0826    0.0000 H   0  0  0  0  0  0  0  0  0  0  0  0
    7.1459   -2.0826    0.0000 H   0  0  0  0  0  0  0  0  0  0  0  0
    1.3940   -0.4984    0.0000 H   0  0  0  0  0  0  0  0  0  0  0  0
    7.7614    0.7079    0.0000 H   0  0  0  0  0  0  0  0  0  0  0  0
    8.2304    1.4487    0.0000 H   0  0  0  0  0  0  0  0  0  0  0  0
    7.4896    1.9178    0.0000 H   0  0  0  0  0  0  0  0  0  0  0  0
  1 15  2  0  0  0  0
  2  6  1  0  0  0  0
  2  7  1  0  0  0  0
  2 17  1  0  0  0  0
  3  8  2  0  0  0  0
  3 14  1  0  0  0  0
  4  5  1  0  0  0  0
  4  6  2  0  0  0  0
  4  9  1  0  0  0  0
  5  7  1  0  0  0  0
  5 10  2  0  0  0  0
  6  8  1  0  0  0  0
  7 11  2  0  0  0  0
  8 15  1  0  0  0  0
  9 14  2  0  0  0  0
  9 18  1  0  0  0  0
 10 12  1  0  0  0  0
 10 19  1  0  0  0  0
 11 13  1  0  0  0  0
 11 20  1  0  0  0  0
 12 13  2  0  0  0  0
 12 21  1  0  0  0  0
 13 23  1  0  0  0  0
 14 22  1  0  0  0  0
 15 16  1  0  0  0  0
 16 24  1  0  0  0  0
 16 25  1  0  0  0  0
 16 26  1  0  0  0  0
M  END
>  <PUBCHEM_COMPOUND_CID>
638667

>  <PUBCHEM_COMPOUND_CANONICALIZED>
1

>  <PUBCHEM_CACTVS_COMPLEXITY>
292

>  <PUBCHEM_CACTVS_HBOND_ACCEPTOR>
2

>  <PUBCHEM_CACTVS_HBOND_DONOR>
1

>  <PUBCHEM_CACTVS_ROTATABLE_BOND>
1

>  <PUBCHEM_CACTVS_SUBSKEYS>
AAADccBzIAAAAAAAAAAAAAAAAAAAAWAAAAA8QAAAAAAAAFgB/gAAHgAQAAAADAzBngQ+wPLJkACoA7R3RACCgCQ3EiAI2SG4dNgIYPrAlbGUIYhgkADIyUcYiMCOgAAAAAACAAAAAAAAAAQAAAAAAAAAAA==

>  <PUBCHEM_IUPAC_OPENEYE_NAME>
1-(9H-pyrido[3,4-b]indol-1-yl)ethanone

>  <PUBCHEM_IUPAC_CAS_NAME>
1-(9H-pyrido[3,4-b]indol-1-yl)ethanone

>  <PUBCHEM_IUPAC_NAME>
1-(9H-pyrido[3,4-b]indol-1-yl)ethanone

>  <PUBCHEM_IUPAC_SYSTEMATIC_NAME>
1-(9H-pyrido[3,4-b]indol-1-yl)ethanone

>  <PUBCHEM_IUPAC_TRADITIONAL_NAME>
1-(9H-$b-carbolin-1-yl)ethanone

>  <PUBCHEM_IUPAC_INCHI>
InChI=1S/C13H10N2O/c1-8(16)12-13-10(6-7-14-12)9-4-2-3-5-11(9)15-13/h2-7,15H,1H3

>  <PUBCHEM_IUPAC_INCHIKEY>
NXZSUJKPVSDFNF-UHFFFAOYSA-N

>  <PUBCHEM_XLOGP3_AA>
2.3

>  <PUBCHEM_EXACT_MASS>
210.079

>  <PUBCHEM_MOLECULAR_FORMULA>
C13H10N2O

>  <PUBCHEM_MOLECULAR_WEIGHT>
210.236

>  <PUBCHEM_OPENEYE_CAN_SMILES>
CC(=O)C1=NC=CC2=C1NC3=CC=CC=C23

>  <PUBCHEM_OPENEYE_ISO_SMILES>
CC(=O)C1=NC=CC2=C1NC3=CC=CC=C23

>  <PUBCHEM_CACTVS_TPSA>
45.8

>  <PUBCHEM_MONOISOTOPIC_WEIGHT>
210.079

>  <PUBCHEM_TOTAL_CHARGE>
0

>  <PUBCHEM_HEAVY_ATOM_COUNT>
16

>  <PUBCHEM_ATOM_DEF_STEREO_COUNT>
0

>  <PUBCHEM_ATOM_UDEF_STEREO_COUNT>
0

>  <PUBCHEM_BOND_DEF_STEREO_COUNT>
0

>  <PUBCHEM_BOND_UDEF_STEREO_COUNT>
0

>  <PUBCHEM_ISOTOPIC_ATOM_COUNT>
0

>  <PUBCHEM_COMPONENT_COUNT>
1

>  <PUBCHEM_CACTVS_TAUTO_COUNT>
9

>  <PUBCHEM_COORDINATE_TYPE>
1
5
255

>  <PUBCHEM_BONDANNOTATIONS>
10  12  8
11  13  8
12  13  8
2  6  8
2  7  8
3  14  8
3  8  8
4  5  8
4  6  8
4  9  8
5  10  8
5  7  8
6  8  8
7  11  8
9  14  8

$$$$
