6391814
 OpenBabel06101807152D

 47 50  0  0  1  0  0  0  0  0999 V2000
    4.8694   -1.9365    0.0000 O   0  0  0  0  0  0  0  0  0  0  0  0
    3.6948    2.2791    0.0000 O   0  0  0  0  0  0  0  0  0  0  0  0
    6.4513   -2.7446    0.0000 O   0  0  0  0  0  0  0  0  0  0  0  0
    7.3327    0.2947    0.0000 O   0  0  0  0  0  0  0  0  0  0  0  0
    8.5950    1.5526    0.0000 O   0  0  0  0  0  0  0  0  0  0  0  0
   10.1841    2.3588    0.0000 O   0  0  0  0  0  0  0  0  0  0  0  0
    2.7354   -0.6363    0.0000 C   0  0  0  0  0  0  0  0  0  0  0  0
    3.7508   -0.4041    0.0000 C   0  0  0  0  0  0  0  0  0  0  0  0
    4.5598   -0.9919    0.0000 C   0  0  3  0  0  0  0  0  0  0  0  0
    5.3688   -0.4041    0.0000 C   0  0  3  0  0  0  0  0  0  0  0  0
    4.0598    0.5470    0.0000 C   0  0  0  0  0  0  0  0  0  0  0  0
    5.0598    0.5470    0.0000 C   0  0  0  0  0  0  0  0  0  0  0  0
    2.0324    0.1324    0.0000 C   0  0  0  0  0  0  0  0  0  0  0  0
    3.3748    1.3317    0.0000 C   0  0  3  0  0  0  0  0  0  0  0  0
    2.3543    1.1230    0.0000 C   0  0  0  0  0  0  0  0  0  0  0  0
    6.1715   -0.9905    0.0000 C   0  0  0  0  0  0  0  0  0  0  0  0
    2.0000   -1.3140    0.0000 C   0  0  0  0  0  0  0  0  0  0  0  0
    2.9546   -1.6120    0.0000 C   0  0  0  0  0  0  0  0  0  0  0  0
    5.8635   -1.9356    0.0000 C   0  0  0  0  0  0  0  0  0  0  0  0
    7.1231   -0.6831    0.0000 C   0  0  0  0  0  0  0  0  0  0  0  0
    8.2843    0.6021    0.0000 C   0  0  3  0  0  0  0  0  0  0  0  0
    9.0923    0.0129    0.0000 C   0  0  0  0  0  0  0  0  0  0  0  0
    9.9023    0.5993    0.0000 C   0  0  0  0  0  0  0  0  0  0  0  0
    9.5950    1.5508    0.0000 C   0  0  0  0  0  0  0  0  0  0  0  0
   10.8528    0.2886    0.0000 C   0  0  0  0  0  0  0  0  0  0  0  0
    4.0587   -1.3569    0.0000 H   0  0  0  0  0  0  0  0  0  0  0  0
    5.8709   -0.0403    0.0000 H   0  0  0  0  0  0  0  0  0  0  0  0
    5.6662    0.6759    0.0000 H   0  0  0  0  0  0  0  0  0  0  0  0
    4.9950    1.1636    0.0000 H   0  0  0  0  0  0  0  0  0  0  0  0
    1.4842    0.4220    0.0000 H   0  0  0  0  0  0  0  0  0  0  0  0
    1.6532   -0.3582    0.0000 H   0  0  0  0  0  0  0  0  0  0  0  0
    2.9644    1.7964    0.0000 H   0  0  0  0  0  0  0  0  0  0  0  0
    2.3359    1.7427    0.0000 H   0  0  0  0  0  0  0  0  0  0  0  0
    1.7406    1.2109    0.0000 H   0  0  0  0  0  0  0  0  0  0  0  0
    1.5798   -0.8581    0.0000 H   0  0  0  0  0  0  0  0  0  0  0  0
    1.5441   -1.7342    0.0000 H   0  0  0  0  0  0  0  0  0  0  0  0
    2.4202   -1.7699    0.0000 H   0  0  0  0  0  0  0  0  0  0  0  0
    2.3496   -1.7479    0.0000 H   0  0  0  0  0  0  0  0  0  0  0  0
    3.0905   -2.2169    0.0000 H   0  0  0  0  0  0  0  0  0  0  0  0
    3.5595   -1.4761    0.0000 H   0  0  0  0  0  0  0  0  0  0  0  0
    3.2853    2.7446    0.0000 H   0  0  0  0  0  0  0  0  0  0  0  0
    7.5831   -1.0988    0.0000 H   0  0  0  0  0  0  0  0  0  0  0  0
    8.1862   -0.0101    0.0000 H   0  0  0  0  0  0  0  0  0  0  0  0
    9.0912   -0.6071    0.0000 H   0  0  0  0  0  0  0  0  0  0  0  0
   10.6602   -0.3007    0.0000 H   0  0  0  0  0  0  0  0  0  0  0  0
   11.4422    0.0960    0.0000 H   0  0  0  0  0  0  0  0  0  0  0  0
   11.0455    0.8779    0.0000 H   0  0  0  0  0  0  0  0  0  0  0  0
  1  9  1  0  0  0  0
  1 19  1  0  0  0  0
  2 14  1  0  0  0  0
  2 41  1  0  0  0  0
  3 19  2  0  0  0  0
  4 20  1  0  0  0  0
  4 21  1  0  0  0  0
  5 21  1  0  0  0  0
  5 24  1  0  0  0  0
  6 24  2  0  0  0  0
  7  8  1  0  0  0  0
  7 13  1  0  0  0  0
  7 17  1  0  0  0  0
  7 18  1  0  0  0  0
  8  9  1  0  0  0  0
  8 11  2  0  0  0  0
  9 10  1  0  0  0  0
  9 26  1  0  0  0  0
 10 12  1  0  0  0  0
 10 16  1  0  0  0  0
 10 27  1  0  0  0  0
 11 12  1  0  0  0  0
 11 14  1  0  0  0  0
 12 28  1  0  0  0  0
 12 29  1  0  0  0  0
 13 15  1  0  0  0  0
 13 30  1  0  0  0  0
 13 31  1  0  0  0  0
 14 15  1  0  0  0  0
 14 32  1  0  0  0  0
 15 33  1  0  0  0  0
 15 34  1  0  0  0  0
 16 19  1  0  0  0  0
 16 20  2  0  0  0  0
 17 35  1  0  0  0  0
 17 36  1  0  0  0  0
 17 37  1  0  0  0  0
 18 38  1  0  0  0  0
 18 39  1  0  0  0  0
 18 40  1  0  0  0  0
 20 42  1  0  0  0  0
 21 22  1  0  0  0  0
 21 43  1  0  0  0  0
 22 23  2  0  0  0  0
 22 44  1  0  0  0  0
 23 24  1  0  0  0  0
 23 25  1  0  0  0  0
 25 45  1  0  0  0  0
 25 46  1  0  0  0  0
 25 47  1  0  0  0  0
M  END
>  <PUBCHEM_COMPOUND_CID>
6391814

>  <PUBCHEM_COMPOUND_CANONICALIZED>
1

>  <PUBCHEM_CACTVS_COMPLEXITY>
741

>  <PUBCHEM_CACTVS_HBOND_ACCEPTOR>
6

>  <PUBCHEM_CACTVS_HBOND_DONOR>
1

>  <PUBCHEM_CACTVS_ROTATABLE_BOND>
2

>  <PUBCHEM_CACTVS_SUBSKEYS>
AAADceB4OAAAAAAAAAAAAAAAAAAAASIEAAAgAAAAAAAQAGAAAAAAGgAACAAADxSwgAMCCAAABgCIAiDSCAAACAAgIAAACAEAAEgQFBIAIQAiUAAEwAAMMYOK6OyPAAAAAAAAAAAAAAAAAAAAAAAAAAAAAA==

>  <PUBCHEM_IUPAC_OPENEYE_NAME>
(3E)-5-hydroxy-8,8-dimethyl-3-[(4-methyl-5-oxo-2H-furan-2-yl)oxymethylene]-3a,4,5,6,7,8b-hexahydroindeno[1,2-b]furan-2-one

>  <PUBCHEM_IUPAC_CAS_NAME>
(3E)-5-hydroxy-8,8-dimethyl-3-[(4-methyl-5-oxo-2H-furan-2-yl)oxymethylidene]-3a,4,5,6,7,8b-hexahydroindeno[1,2-b]furan-2-one

>  <PUBCHEM_IUPAC_NAME>
(3E)-5-hydroxy-8,8-dimethyl-3-[(4-methyl-5-oxo-2H-furan-2-yl)oxymethylidene]-3a,4,5,6,7,8b-hexahydroindeno[1,2-b]furan-2-one

>  <PUBCHEM_IUPAC_SYSTEMATIC_NAME>
(3E)-8,8-dimethyl-3-[(4-methyl-5-oxidanylidene-2H-furan-2-yl)oxymethylidene]-5-oxidanyl-3a,4,5,6,7,8b-hexahydroindeno[1,2-b]furan-2-one

>  <PUBCHEM_IUPAC_TRADITIONAL_NAME>
(3E)-5-hydroxy-3-[(5-keto-4-methyl-2H-furan-2-yl)oxymethylene]-8,8-dimethyl-3a,4,5,6,7,8b-hexahydroindeno[1,2-b]furan-2-one

>  <PUBCHEM_IUPAC_INCHI>
InChI=1S/C19H22O6/c1-9-6-14(24-17(9)21)23-8-12-10-7-11-13(20)4-5-19(2,3)15(11)16(10)25-18(12)22/h6,8,10,13-14,16,20H,4-5,7H2,1-3H3/b12-8+

>  <PUBCHEM_IUPAC_INCHIKEY>
VOFXXOPWCBSPAA-XYOKQWHBSA-N

>  <PUBCHEM_XLOGP3_AA>
1.3

>  <PUBCHEM_EXACT_MASS>
346.142

>  <PUBCHEM_MOLECULAR_FORMULA>
C19H22O6

>  <PUBCHEM_MOLECULAR_WEIGHT>
346.379

>  <PUBCHEM_OPENEYE_CAN_SMILES>
CC1=CC(OC1=O)OC=C2C3CC4=C(C3OC2=O)C(CCC4O)(C)C

>  <PUBCHEM_OPENEYE_ISO_SMILES>
CC1=CC(OC1=O)O/C=C/2\C3CC4=C(C3OC2=O)C(CCC4O)(C)C

>  <PUBCHEM_CACTVS_TPSA>
82.1

>  <PUBCHEM_MONOISOTOPIC_WEIGHT>
346.142

>  <PUBCHEM_TOTAL_CHARGE>
0

>  <PUBCHEM_HEAVY_ATOM_COUNT>
25

>  <PUBCHEM_ATOM_DEF_STEREO_COUNT>
0

>  <PUBCHEM_ATOM_UDEF_STEREO_COUNT>
0

>  <PUBCHEM_BOND_DEF_STEREO_COUNT>
1

>  <PUBCHEM_BOND_UDEF_STEREO_COUNT>
0

>  <PUBCHEM_ISOTOPIC_ATOM_COUNT>
0

>  <PUBCHEM_COMPONENT_COUNT>
1

>  <PUBCHEM_CACTVS_TAUTO_COUNT>
1

>  <PUBCHEM_COORDINATE_TYPE>
1
5
255

$$$$
