6398538
 OpenBabel06101807152D

149154  0  0  1  0  0  0  0  0999 V2000
    8.0622   -5.8892    0.0000 S   0  0  3  0  0  0  0  0  0  0  0  0
   14.9904    0.1108    0.0000 S   0  0  3  0  0  0  0  0  0  0  0  0
    8.0622   -1.8892    0.0000 O   0  0  0  0  0  0  0  0  0  0  0  0
    7.1962   -1.3892    0.0000 O   0  0  0  0  0  0  0  0  0  0  0  0
   10.6603   -4.3892    0.0000 O   0  0  0  0  0  0  0  0  0  0  0  0
    7.1962   -0.3892    0.0000 O   0  0  0  0  0  0  0  0  0  0  0  0
    8.9282   -6.3892    0.0000 O   0  0  0  0  0  0  0  0  0  0  0  0
   13.2583   -1.8892    0.0000 O   0  0  0  0  0  0  0  0  0  0  0  0
    8.0622    0.1108    0.0000 O   0  0  0  0  0  0  0  0  0  0  0  0
   12.3923    1.6108    0.0000 O   0  0  0  0  0  0  0  0  0  0  0  0
   10.2942    3.9768    0.0000 O   0  0  0  0  0  0  0  0  0  0  0  0
   14.9904    1.1108    0.0000 O   0  0  0  0  0  0  0  0  0  0  0  0
    7.1962   -3.3892    0.0000 N   0  0  0  0  0  0  0  0  0  0  0  0
    5.4641   -1.3892    0.0000 N   0  0  0  0  0  0  0  0  0  0  0  0
    9.7942   -2.8892    0.0000 N   0  0  0  0  0  0  0  0  0  0  0  0
   11.5263   -1.8892    0.0000 N   0  0  0  0  0  0  0  0  0  0  0  0
    6.3301    1.1108    0.0000 N   0  0  0  0  0  0  0  0  0  0  0  0
   11.5263    0.1108    0.0000 N   0  0  0  0  0  0  0  0  0  0  0  0
   10.6603    2.6108    0.0000 N   0  0  0  0  0  0  0  0  0  0  0  0
    8.9282    1.6108    0.0000 N   0  0  0  0  0  0  0  0  0  0  0  0
    7.5622    5.6406    0.0000 N   0  0  0  0  0  0  0  0  0  0  0  0
    6.3301   -2.8892    0.0000 C   0  0  1  0  0  0  0  0  0  0  0  0
    5.5931   -3.5563    0.0000 C   0  0  0  0  0  0  0  0  0  0  0  0
    5.9982   -4.4641    0.0000 C   0  0  0  0  0  0  0  0  0  0  0  0
    6.9870   -4.3610    0.0000 C   0  0  0  0  0  0  0  0  0  0  0  0
    8.0622   -2.8892    0.0000 C   0  0  0  0  0  0  0  0  0  0  0  0
    8.9282   -3.3892    0.0000 C   0  0  2  0  0  0  0  0  0  0  0  0
    6.3301   -1.8892    0.0000 C   0  0  0  0  0  0  0  0  0  0  0  0
    8.9282   -4.3892    0.0000 C   0  0  0  0  0  0  0  0  0  0  0  0
    5.4641   -0.3892    0.0000 C   0  0  1  0  0  0  0  0  0  0  0  0
   11.5263   -2.8892    0.0000 C   0  0  2  0  0  0  0  0  0  0  0  0
    8.0622   -4.8892    0.0000 C   0  0  0  0  0  0  0  0  0  0  0  0
   10.6603   -3.3892    0.0000 C   0  0  0  0  0  0  0  0  0  0  0  0
   12.3923   -3.3892    0.0000 C   0  0  0  0  0  0  0  0  0  0  0  0
    4.5981    0.1108    0.0000 C   0  0  0  0  0  0  0  0  0  0  0  0
   12.3923   -4.3892    0.0000 C   0  0  0  0  0  0  0  0  0  0  0  0
    6.3301    0.1108    0.0000 C   0  0  0  0  0  0  0  0  0  0  0  0
   12.3923   -0.3892    0.0000 C   0  0  2  0  0  0  0  0  0  0  0  0
    7.1962    1.6108    0.0000 C   0  0  1  0  0  0  0  0  0  0  0  0
    3.7320   -0.3892    0.0000 C   0  0  0  0  0  0  0  0  0  0  0  0
   12.3923   -1.3892    0.0000 C   0  0  0  0  0  0  0  0  0  0  0  0
   10.6603    1.6108    0.0000 C   0  0  1  0  0  0  0  0  0  0  0  0
   13.2583   -4.8892    0.0000 C   0  0  0  0  0  0  0  0  0  0  0  0
   11.5263   -4.8892    0.0000 C   0  0  0  0  0  0  0  0  0  0  0  0
    8.9282    2.6108    0.0000 C   0  0  1  0  0  0  0  0  0  0  0  0
   13.2583    0.1108    0.0000 C   0  0  0  0  0  0  0  0  0  0  0  0
   10.0174    0.8448    0.0000 C   0  0  0  0  0  0  0  0  0  0  0  0
    7.1962    2.6108    0.0000 C   0  0  0  0  0  0  0  0  0  0  0  0
    8.0622    1.1108    0.0000 C   0  0  0  0  0  0  0  0  0  0  0  0
   11.5263    1.1108    0.0000 C   0  0  0  0  0  0  0  0  0  0  0  0
    8.0622    3.1108    0.0000 C   0  0  0  0  0  0  0  0  0  0  0  0
    7.1962   -6.3892    0.0000 C   0  0  0  0  0  0  0  0  0  0  0  0
    9.7942    3.1108    0.0000 C   0  0  0  0  0  0  0  0  0  0  0  0
    2.8660    0.1108    0.0000 C   0  0  0  0  0  0  0  0  0  0  0  0
    3.7320   -1.3892    0.0000 C   0  0  0  0  0  0  0  0  0  0  0  0
   14.1244   -0.3892    0.0000 C   0  0  0  0  0  0  0  0  0  0  0  0
    8.0622    4.1108    0.0000 C   0  0  0  0  0  0  0  0  0  0  0  0
   10.3595   -0.0950    0.0000 C   0  0  0  0  0  0  0  0  0  0  0  0
    9.0777    0.5028    0.0000 C   0  0  0  0  0  0  0  0  0  0  0  0
    6.3301    3.1108    0.0000 C   0  0  0  0  0  0  0  0  0  0  0  0
    8.8669    4.6944    0.0000 C   0  0  0  0  0  0  0  0  0  0  0  0
    2.0000   -0.3892    0.0000 C   0  0  0  0  0  0  0  0  0  0  0  0
    2.8660   -1.8892    0.0000 C   0  0  0  0  0  0  0  0  0  0  0  0
    7.2574    4.6944    0.0000 C   0  0  0  0  0  0  0  0  0  0  0  0
    8.5562    5.6449    0.0000 C   0  0  0  0  0  0  0  0  0  0  0  0
    2.0000   -1.3892    0.0000 C   0  0  0  0  0  0  0  0  0  0  0  0
    6.3301    4.1108    0.0000 C   0  0  0  0  0  0  0  0  0  0  0  0
    5.4641    2.6108    0.0000 C   0  0  0  0  0  0  0  0  0  0  0  0
    9.8454    4.4882    0.0000 C   0  0  0  0  0  0  0  0  0  0  0  0
    9.2241    6.3892    0.0000 C   0  0  0  0  0  0  0  0  0  0  0  0
   15.8564   -0.3892    0.0000 C   0  0  0  0  0  0  0  0  0  0  0  0
    5.4641    4.6108    0.0000 C   0  0  0  0  0  0  0  0  0  0  0  0
    4.5981    3.1108    0.0000 C   0  0  0  0  0  0  0  0  0  0  0  0
   10.5133    5.2325    0.0000 C   0  0  0  0  0  0  0  0  0  0  0  0
   10.2026    6.1830    0.0000 C   0  0  0  0  0  0  0  0  0  0  0  0
    4.5981    4.1108    0.0000 C   0  0  0  0  0  0  0  0  0  0  0  0
    5.5532   -2.5445    0.0000 H   0  0  0  0  0  0  0  0  0  0  0  0
    5.2277   -3.0554    0.0000 H   0  0  0  0  0  0  0  0  0  0  0  0
    5.0566   -3.8671    0.0000 H   0  0  0  0  0  0  0  0  0  0  0  0
    5.4086   -4.6558    0.0000 H   0  0  0  0  0  0  0  0  0  0  0  0
    6.1270   -5.0706    0.0000 H   0  0  0  0  0  0  0  0  0  0  0  0
    6.9860   -4.9810    0.0000 H   0  0  0  0  0  0  0  0  0  0  0  0
    7.6034   -4.4271    0.0000 H   0  0  0  0  0  0  0  0  0  0  0  0
    9.4651   -3.6992    0.0000 H   0  0  0  0  0  0  0  0  0  0  0  0
    9.1403   -4.9718    0.0000 H   0  0  0  0  0  0  0  0  0  0  0  0
    9.5388   -4.2816    0.0000 H   0  0  0  0  0  0  0  0  0  0  0  0
    4.9272   -1.6992    0.0000 H   0  0  0  0  0  0  0  0  0  0  0  0
    9.7942   -2.2692    0.0000 H   0  0  0  0  0  0  0  0  0  0  0  0
    4.9272   -0.6992    0.0000 H   0  0  0  0  0  0  0  0  0  0  0  0
   12.0632   -2.5792    0.0000 H   0  0  0  0  0  0  0  0  0  0  0  0
    7.8501   -4.3066    0.0000 H   0  0  0  0  0  0  0  0  0  0  0  0
    7.4516   -4.9969    0.0000 H   0  0  0  0  0  0  0  0  0  0  0  0
   13.0029   -3.4969    0.0000 H   0  0  0  0  0  0  0  0  0  0  0  0
   12.6044   -2.8066    0.0000 H   0  0  0  0  0  0  0  0  0  0  0  0
    4.9966    0.5857    0.0000 H   0  0  0  0  0  0  0  0  0  0  0  0
    4.1996    0.5857    0.0000 H   0  0  0  0  0  0  0  0  0  0  0  0
   11.8554   -4.0792    0.0000 H   0  0  0  0  0  0  0  0  0  0  0  0
   10.9893   -1.5792    0.0000 H   0  0  0  0  0  0  0  0  0  0  0  0
   12.3923    0.2308    0.0000 H   0  0  0  0  0  0  0  0  0  0  0  0
    6.6592    1.9208    0.0000 H   0  0  0  0  0  0  0  0  0  0  0  0
    5.7932    1.4208    0.0000 H   0  0  0  0  0  0  0  0  0  0  0  0
   10.0776    1.8228    0.0000 H   0  0  0  0  0  0  0  0  0  0  0  0
   12.9483   -5.4262    0.0000 H   0  0  0  0  0  0  0  0  0  0  0  0
   13.7953   -5.1992    0.0000 H   0  0  0  0  0  0  0  0  0  0  0  0
   13.5683   -4.3523    0.0000 H   0  0  0  0  0  0  0  0  0  0  0  0
   11.2163   -4.3523    0.0000 H   0  0  0  0  0  0  0  0  0  0  0  0
   10.9893   -5.1992    0.0000 H   0  0  0  0  0  0  0  0  0  0  0  0
   11.8363   -5.4262    0.0000 H   0  0  0  0  0  0  0  0  0  0  0  0
    8.3913    2.3008    0.0000 H   0  0  0  0  0  0  0  0  0  0  0  0
    9.6618    1.3527    0.0000 H   0  0  0  0  0  0  0  0  0  0  0  0
   13.6569    0.5857    0.0000 H   0  0  0  0  0  0  0  0  0  0  0  0
   12.8598    0.5857    0.0000 H   0  0  0  0  0  0  0  0  0  0  0  0
    7.8067    2.5031    0.0000 H   0  0  0  0  0  0  0  0  0  0  0  0
    7.4082    3.1934    0.0000 H   0  0  0  0  0  0  0  0  0  0  0  0
   10.9893   -0.1992    0.0000 H   0  0  0  0  0  0  0  0  0  0  0  0
    7.4516    3.2184    0.0000 H   0  0  0  0  0  0  0  0  0  0  0  0
    7.8501    2.5282    0.0000 H   0  0  0  0  0  0  0  0  0  0  0  0
    6.8862   -5.8523    0.0000 H   0  0  0  0  0  0  0  0  0  0  0  0
    6.6592   -6.6992    0.0000 H   0  0  0  0  0  0  0  0  0  0  0  0
    7.5062   -6.9262    0.0000 H   0  0  0  0  0  0  0  0  0  0  0  0
   11.1972    2.9208    0.0000 H   0  0  0  0  0  0  0  0  0  0  0  0
    9.4651    1.3008    0.0000 H   0  0  0  0  0  0  0  0  0  0  0  0
    2.8660    0.7308    0.0000 H   0  0  0  0  0  0  0  0  0  0  0  0
    4.2690   -1.6992    0.0000 H   0  0  0  0  0  0  0  0  0  0  0  0
   13.7258   -0.8642    0.0000 H   0  0  0  0  0  0  0  0  0  0  0  0
   14.5229   -0.8642    0.0000 H   0  0  0  0  0  0  0  0  0  0  0  0
    9.7769   -0.3070    0.0000 H   0  0  0  0  0  0  0  0  0  0  0  0
   10.5716   -0.6776    0.0000 H   0  0  0  0  0  0  0  0  0  0  0  0
   10.9421    0.1171    0.0000 H   0  0  0  0  0  0  0  0  0  0  0  0
    8.8657    1.0854    0.0000 H   0  0  0  0  0  0  0  0  0  0  0  0
    8.4951    0.2908    0.0000 H   0  0  0  0  0  0  0  0  0  0  0  0
    9.2897   -0.0798    0.0000 H   0  0  0  0  0  0  0  0  0  0  0  0
    1.4631   -0.0792    0.0000 H   0  0  0  0  0  0  0  0  0  0  0  0
    2.8660   -2.5092    0.0000 H   0  0  0  0  0  0  0  0  0  0  0  0
    6.6681    4.5018    0.0000 H   0  0  0  0  0  0  0  0  0  0  0  0
    1.4631   -1.6992    0.0000 H   0  0  0  0  0  0  0  0  0  0  0  0
    7.1960    6.1409    0.0000 H   0  0  0  0  0  0  0  0  0  0  0  0
    6.8671    4.4208    0.0000 H   0  0  0  0  0  0  0  0  0  0  0  0
    5.4641    1.9908    0.0000 H   0  0  0  0  0  0  0  0  0  0  0  0
   10.0380    3.8988    0.0000 H   0  0  0  0  0  0  0  0  0  0  0  0
    9.0315    6.9785    0.0000 H   0  0  0  0  0  0  0  0  0  0  0  0
   15.5464   -0.9262    0.0000 H   0  0  0  0  0  0  0  0  0  0  0  0
   16.3933   -0.6992    0.0000 H   0  0  0  0  0  0  0  0  0  0  0  0
   16.1664    0.1477    0.0000 H   0  0  0  0  0  0  0  0  0  0  0  0
    5.4641    5.2308    0.0000 H   0  0  0  0  0  0  0  0  0  0  0  0
    4.0611    2.8008    0.0000 H   0  0  0  0  0  0  0  0  0  0  0  0
   11.1199    5.1046    0.0000 H   0  0  0  0  0  0  0  0  0  0  0  0
   10.6167    6.6445    0.0000 H   0  0  0  0  0  0  0  0  0  0  0  0
    4.0611    4.4208    0.0000 H   0  0  0  0  0  0  0  0  0  0  0  0
  1  7  2  0  0  0  0
  1 32  1  0  0  0  0
  1 52  1  0  0  0  0
  2 12  2  0  0  0  0
  2 56  1  0  0  0  0
  2 71  1  0  0  0  0
  3 26  2  0  0  0  0
  4 28  2  0  0  0  0
  5 33  2  0  0  0  0
  6 37  2  0  0  0  0
  8 41  2  0  0  0  0
  9 49  2  0  0  0  0
 10 50  2  0  0  0  0
 11 53  2  0  0  0  0
 13 22  1  0  0  0  0
 13 25  1  0  0  0  0
 13 26  1  0  0  0  0
 14 28  1  0  0  0  0
 14 30  1  0  0  0  0
 14 87  1  0  0  0  0
 15 27  1  0  0  0  0
 15 33  1  0  0  0  0
 15 88  1  0  0  0  0
 16 31  1  0  0  0  0
 16 41  1  0  0  0  0
 16 98  1  0  0  0  0
 17 37  1  0  0  0  0
 17 39  1  0  0  0  0
 17101  1  0  0  0  0
 18 38  1  0  0  0  0
 18 50  1  0  0  0  0
 18115  1  0  0  0  0
 19 42  1  0  0  0  0
 19 53  1  0  0  0  0
 19121  1  0  0  0  0
 20 45  1  0  0  0  0
 20 49  1  0  0  0  0
 20122  1  0  0  0  0
 21 64  1  0  0  0  0
 21 65  1  0  0  0  0
 21137  1  0  0  0  0
 22 23  1  0  0  0  0
 22 28  1  0  0  0  0
 22 77  1  6  0  0  0
 23 24  1  0  0  0  0
 23 78  1  0  0  0  0
 23 79  1  0  0  0  0
 24 25  1  0  0  0  0
 24 80  1  0  0  0  0
 24 81  1  0  0  0  0
 25 82  1  0  0  0  0
 25 83  1  0  0  0  0
 26 27  1  0  0  0  0
 27 29  1  0  0  0  0
 27 84  1  6  0  0  0
 29 32  1  0  0  0  0
 29 85  1  0  0  0  0
 29 86  1  0  0  0  0
 30 35  1  0  0  0  0
 30 37  1  0  0  0  0
 30 89  1  6  0  0  0
 31 33  1  0  0  0  0
 31 34  1  0  0  0  0
 31 90  1  6  0  0  0
 32 91  1  0  0  0  0
 32 92  1  0  0  0  0
 34 36  1  0  0  0  0
 34 93  1  0  0  0  0
 34 94  1  0  0  0  0
 35 40  1  0  0  0  0
 35 95  1  0  0  0  0
 35 96  1  0  0  0  0
 36 43  1  0  0  0  0
 36 44  1  0  0  0  0
 36 97  1  0  0  0  0
 38 41  1  0  0  0  0
 38 46  1  0  0  0  0
 38 99  1  6  0  0  0
 39 48  1  0  0  0  0
 39 49  1  0  0  0  0
 39100  1  6  0  0  0
 40 54  2  0  0  0  0
 40 55  1  0  0  0  0
 42 47  1  0  0  0  0
 42 50  1  0  0  0  0
 42102  1  1  0  0  0
 43103  1  0  0  0  0
 43104  1  0  0  0  0
 43105  1  0  0  0  0
 44106  1  0  0  0  0
 44107  1  0  0  0  0
 44108  1  0  0  0  0
 45 51  1  0  0  0  0
 45 53  1  0  0  0  0
 45109  1  6  0  0  0
 46 56  1  0  0  0  0
 46111  1  0  0  0  0
 46112  1  0  0  0  0
 47 58  1  0  0  0  0
 47 59  1  0  0  0  0
 47110  1  0  0  0  0
 48 60  1  0  0  0  0
 48113  1  0  0  0  0
 48114  1  0  0  0  0
 51 57  1  0  0  0  0
 51116  1  0  0  0  0
 51117  1  0  0  0  0
 52118  1  0  0  0  0
 52119  1  0  0  0  0
 52120  1  0  0  0  0
 54 62  1  0  0  0  0
 54123  1  0  0  0  0
 55 63  2  0  0  0  0
 55124  1  0  0  0  0
 56125  1  0  0  0  0
 56126  1  0  0  0  0
 57 61  1  0  0  0  0
 57 64  2  0  0  0  0
 58127  1  0  0  0  0
 58128  1  0  0  0  0
 58129  1  0  0  0  0
 59130  1  0  0  0  0
 59131  1  0  0  0  0
 59132  1  0  0  0  0
 60 67  2  0  0  0  0
 60 68  1  0  0  0  0
 61 65  1  0  0  0  0
 61 69  2  0  0  0  0
 62 66  2  0  0  0  0
 62133  1  0  0  0  0
 63 66  1  0  0  0  0
 63134  1  0  0  0  0
 64135  1  0  0  0  0
 65 70  2  0  0  0  0
 66136  1  0  0  0  0
 67 72  1  0  0  0  0
 67138  1  0  0  0  0
 68 73  2  0  0  0  0
 68139  1  0  0  0  0
 69 74  1  0  0  0  0
 69140  1  0  0  0  0
 70 75  1  0  0  0  0
 70141  1  0  0  0  0
 71142  1  0  0  0  0
 71143  1  0  0  0  0
 71144  1  0  0  0  0
 72 76  2  0  0  0  0
 72145  1  0  0  0  0
 73 76  1  0  0  0  0
 73146  1  0  0  0  0
 74 75  2  0  0  0  0
 74147  1  0  0  0  0
 75148  1  0  0  0  0
 76149  1  0  0  0  0
M  END
>  <PUBCHEM_COMPOUND_CID>
6398538

>  <PUBCHEM_COMPOUND_CANONICALIZED>
1

>  <PUBCHEM_CACTVS_COMPLEXITY>
2070

>  <PUBCHEM_CACTVS_HBOND_ACCEPTOR>
12

>  <PUBCHEM_CACTVS_HBOND_DONOR>
8

>  <PUBCHEM_CACTVS_ROTATABLE_BOND>
15

>  <PUBCHEM_CACTVS_SUBSKEYS>
AAADcfB//ABgAAAAAAAAAAAAAAAAAWLAAAAwYMAAAAAAAFgB9AAAHgQQAAAADSjF3gS+wPPJkAqoAzV3VEDCgCAxAjAI2aG4ZJgIYPLgkbGUIAhglgDIyAcYicCOgAAAAAACAAAAAAAAAAQAAAAAAAAAAA==

>  <PUBCHEM_IUPAC_OPENEYE_NAME>
(3S,6S,9S,12S,15S,18S,21S,24S)-18,21-dibenzyl-15-(1H-indol-3-ylmethyl)-6-isobutyl-12-isopropyl-3,9-bis(2-methylsulfinylethyl)-1,4,7,10,13,16,19,22-octazabicyclo[22.3.0]heptacosane-2,5,8,11,14,17,20,23-octone

>  <PUBCHEM_IUPAC_CAS_NAME>
(3S,6S,9S,12S,15S,18S,21S,24S)-15-(1H-indol-3-ylmethyl)-6-(2-methylpropyl)-3,9-bis(2-methylsulfinylethyl)-18,21-bis(phenylmethyl)-12-propan-2-yl-1,4,7,10,13,16,19,22-octazabicyclo[22.3.0]heptacosane-2,5,8,11,14,17,20,23-octone

>  <PUBCHEM_IUPAC_NAME>
(3S,6S,9S,12S,15S,18S,21S,24S)-18,21-dibenzyl-15-(1H-indol-3-ylmethyl)-6-(2-methylpropyl)-3,9-bis(2-methylsulfinylethyl)-12-propan-2-yl-1,4,7,10,13,16,19,22-octazabicyclo[22.3.0]heptacosane-2,5,8,11,14,17,20,23-octone

>  <PUBCHEM_IUPAC_SYSTEMATIC_NAME>
(3S,6S,9S,12S,15S,18S,21S,24S)-15-(1H-indol-3-ylmethyl)-6-(2-methylpropyl)-3,9-bis(2-methylsulfinylethyl)-18,21-bis(phenylmethyl)-12-propan-2-yl-1,4,7,10,13,16,19,22-octazabicyclo[22.3.0]heptacosane-2,5,8,11,14,17,20,23-octone

>  <PUBCHEM_IUPAC_TRADITIONAL_NAME>
(3S,6S,9S,12S,15S,18S,21S,24S)-18,21-dibenzyl-15-(1H-indol-3-ylmethyl)-6-isobutyl-12-isopropyl-3,9-bis(2-methylsulfinylethyl)-1,4,7,10,13,16,19,22-octazabicyclo[22.3.0]heptacosane-2,5,8,11,14,17,20,23-tetraquinone

>  <PUBCHEM_IUPAC_INCHI>
InChI=1S/C55H73N9O10S2/c1-33(2)28-42-49(66)58-41(24-27-76(6)74)55(72)64-25-15-22-46(64)53(70)62-44(30-36-18-11-8-12-19-36)51(68)60-43(29-35-16-9-7-10-17-35)50(67)61-45(31-37-32-56-39-21-14-13-20-38(37)39)52(69)63-47(34(3)4)54(71)57-40(48(65)59-42)23-26-75(5)73/h7-14,16-21,32-34,40-47,56H,15,22-31H2,1-6H3,(H,57,71)(H,58,66)(H,59,65)(H,60,68)(H,61,67)(H,62,70)(H,63,69)/t40-,41-,42-,43-,44-,45-,46-,47-,75?,76?/m0/s1

>  <PUBCHEM_IUPAC_INCHIKEY>
OPPHXUQOVAMNAS-AEEQZTKLSA-N

>  <PUBCHEM_XLOGP3_AA>
3.6

>  <PUBCHEM_EXACT_MASS>
1083.492

>  <PUBCHEM_MOLECULAR_FORMULA>
C55H73N9O10S2

>  <PUBCHEM_MOLECULAR_WEIGHT>
1084.362

>  <PUBCHEM_OPENEYE_CAN_SMILES>
CC(C)CC1C(=O)NC(C(=O)N2CCCC2C(=O)NC(C(=O)NC(C(=O)NC(C(=O)NC(C(=O)NC(C(=O)N1)CCS(=O)C)C(C)C)CC3=CNC4=CC=CC=C43)CC5=CC=CC=C5)CC6=CC=CC=C6)CCS(=O)C

>  <PUBCHEM_OPENEYE_ISO_SMILES>
CC(C)C[C@H]1C(=O)N[C@H](C(=O)N2CCC[C@H]2C(=O)N[C@H](C(=O)N[C@H](C(=O)N[C@H](C(=O)N[C@H](C(=O)N[C@H](C(=O)N1)CCS(=O)C)C(C)C)CC3=CNC4=CC=CC=C43)CC5=CC=CC=C5)CC6=CC=CC=C6)CCS(=O)C

>  <PUBCHEM_CACTVS_TPSA>
312

>  <PUBCHEM_MONOISOTOPIC_WEIGHT>
1083.492

>  <PUBCHEM_TOTAL_CHARGE>
0

>  <PUBCHEM_HEAVY_ATOM_COUNT>
76

>  <PUBCHEM_ATOM_DEF_STEREO_COUNT>
8

>  <PUBCHEM_ATOM_UDEF_STEREO_COUNT>
2

>  <PUBCHEM_BOND_DEF_STEREO_COUNT>
0

>  <PUBCHEM_BOND_UDEF_STEREO_COUNT>
0

>  <PUBCHEM_ISOTOPIC_ATOM_COUNT>
0

>  <PUBCHEM_COMPONENT_COUNT>
1

>  <PUBCHEM_CACTVS_TAUTO_COUNT>
1000

>  <PUBCHEM_COORDINATE_TYPE>
1
5
255

>  <PUBCHEM_BONDANNOTATIONS>
1  52  3
2  71  3
21  64  8
21  65  8
22  77  6
27  29  5
30  35  5
31  34  5
38  46  5
39  48  5
40  54  8
40  55  8
42  47  6
45  51  5
54  62  8
55  63  8
57  61  8
57  64  8
60  67  8
60  68  8
61  65  8
61  69  8
62  66  8
63  66  8
65  70  8
67  72  8
68  73  8
69  74  8
70  75  8
72  76  8
73  76  8
74  75  8

$$$$
