6398539
 OpenBabel06101807152D

152157  0  0  1  0  0  0  0  0999 V2000
    8.6405   -5.3659    0.0000 S   0  0  3  0  0  0  0  0  0  0  0  0
    8.7627   -2.6097    0.0000 S   0  0  3  0  0  0  0  0  0  0  0  0
    5.6735   -1.7380    0.0000 O   0  0  0  0  0  0  0  0  0  0  0  0
    4.0982   -2.3583    0.0000 O   0  0  0  0  0  0  0  0  0  0  0  0
    4.8476   -4.0526    0.0000 O   0  0  0  0  0  0  0  0  0  0  0  0
    2.0000    0.0078    0.0000 O   0  0  0  0  0  0  0  0  0  0  0  0
    9.4511   -4.7804    0.0000 O   0  0  0  0  0  0  0  0  0  0  0  0
    8.5208   -1.3547    0.0000 O   0  0  0  0  0  0  0  0  0  0  0  0
    8.9880    1.2332    0.0000 O   0  0  0  0  0  0  0  0  0  0  0  0
    6.0074    4.1729    0.0000 O   0  0  0  0  0  0  0  0  0  0  0  0
    2.7472    2.8342    0.0000 O   0  0  0  0  0  0  0  0  0  0  0  0
    8.8499   -3.6059    0.0000 O   0  0  0  0  0  0  0  0  0  0  0  0
    6.3301   -1.4922    0.0000 N   0  0  0  0  0  0  0  0  0  0  0  0
    3.7320   -0.9922    0.0000 N   0  0  0  0  0  0  0  0  0  0  0  0
    5.8478   -4.0527    0.0000 N   0  0  0  0  0  0  0  0  0  0  0  0
    6.8478   -2.3206    0.0000 N   0  0  0  0  0  0  0  0  0  0  0  0
    2.8660    1.5078    0.0000 N   0  0  0  0  0  0  0  0  0  0  0  0
    8.0032    0.0595    0.0000 N   0  0  0  0  0  0  0  0  0  0  0  0
    7.1371    2.5595    0.0000 N   0  0  0  0  0  0  0  0  0  0  0  0
    4.5981    3.5078    0.0000 N   0  0  0  0  0  0  0  0  0  0  0  0
    8.6208    4.0476    0.0000 N   0  0  0  0  0  0  0  0  0  0  0  0
    5.4641   -0.9922    0.0000 C   0  0  1  0  0  0  0  0  0  0  0  0
    4.2159   -1.8201    0.0000 C   0  0  0  0  0  0  0  0  0  0  0  0
    4.7572   -3.2167    0.0000 C   0  0  0  0  0  0  0  0  0  0  0  0
    6.2373   -2.9871    0.0000 C   0  0  0  0  0  0  0  0  0  0  0  0
    6.3301   -2.4922    0.0000 C   0  0  0  0  0  0  0  0  0  0  0  0
    6.7138   -3.5527    0.0000 C   0  0  2  0  0  0  0  0  0  0  0  0
    4.5981   -1.4922    0.0000 C   0  0  0  0  0  0  0  0  0  0  0  0
    7.6262   -3.9619    0.0000 C   0  0  0  0  0  0  0  0  0  0  0  0
    3.7320    0.0078    0.0000 C   0  0  1  0  0  0  0  0  0  0  0  0
    5.8478   -2.3206    0.0000 C   0  0  2  0  0  0  0  0  0  0  0  0
    7.7280   -4.9567    0.0000 C   0  0  0  0  0  0  0  0  0  0  0  0
    5.3478   -3.1867    0.0000 C   0  0  0  0  0  0  0  0  0  0  0  0
    4.8478   -2.3206    0.0000 C   0  0  0  0  0  0  0  0  0  0  0  0
    4.5981   -0.4922    0.0000 C   0  0  0  0  0  0  0  0  0  0  0  0
    4.0817   -2.9634    0.0000 C   0  0  0  0  0  0  0  0  0  0  0  0
    2.8660    0.5078    0.0000 C   0  0  0  0  0  0  0  0  0  0  0  0
    7.1371    1.5595    0.0000 C   0  0  1  0  0  0  0  0  0  0  0  0
    6.2711    1.0595    0.0000 C   0  0  3  0  0  0  0  0  0  0  0  0
    7.2960   -0.6476    0.0000 C   0  0  2  0  0  0  0  0  0  0  0  0
    3.7320    2.0078    0.0000 C   0  0  1  0  0  0  0  0  0  0  0  0
    7.5549   -1.6135    0.0000 C   0  0  0  0  0  0  0  0  0  0  0  0
    5.4641    0.0078    0.0000 C   0  0  0  0  0  0  0  0  0  0  0  0
    5.4641    3.0078    0.0000 C   0  0  2  0  0  0  0  0  0  0  0  0
    8.0032    1.0595    0.0000 C   0  0  0  0  0  0  0  0  0  0  0  0
    7.0372   -1.6135    0.0000 C   0  0  0  0  0  0  0  0  0  0  0  0
    5.5051    1.7023    0.0000 C   0  0  0  0  0  0  0  0  0  0  0  0
    3.1420   -2.6214    0.0000 C   0  0  0  0  0  0  0  0  0  0  0  0
    3.3157   -3.6062    0.0000 C   0  0  0  0  0  0  0  0  0  0  0  0
    4.2320    2.8738    0.0000 C   0  0  0  0  0  0  0  0  0  0  0  0
    6.4300    3.2666    0.0000 C   0  0  0  0  0  0  0  0  0  0  0  0
    6.4178    2.7072    0.0000 C   0  0  0  0  0  0  0  0  0  0  0  0
    6.4449    0.0747    0.0000 C   0  0  0  0  0  0  0  0  0  0  0  0
    3.7320    3.0078    0.0000 C   0  0  0  0  0  0  0  0  0  0  0  0
    8.7423   -6.3607    0.0000 C   0  0  0  0  0  0  0  0  0  0  0  0
    7.8564   -2.1871    0.0000 C   0  0  0  0  0  0  0  0  0  0  0  0
    5.4641    1.0078    0.0000 C   0  0  0  0  0  0  0  0  0  0  0  0
    6.3301   -0.4922    0.0000 C   0  0  0  0  0  0  0  0  0  0  0  0
    7.1551    3.3827    0.0000 C   0  0  0  0  0  0  0  0  0  0  0  0
    4.5654    1.3604    0.0000 C   0  0  0  0  0  0  0  0  0  0  0  0
    3.7320    3.7398    0.0000 C   0  0  0  0  0  0  0  0  0  0  0  0
    7.0417    4.3703    0.0000 C   0  0  0  0  0  0  0  0  0  0  0  0
    6.3301    1.5078    0.0000 C   0  0  0  0  0  0  0  0  0  0  0  0
    7.1962    0.0078    0.0000 C   0  0  0  0  0  0  0  0  0  0  0  0
    8.1290    3.1836    0.0000 C   0  0  0  0  0  0  0  0  0  0  0  0
    7.9524    4.7834    0.0000 C   0  0  0  0  0  0  0  0  0  0  0  0
    7.1962    1.0078    0.0000 C   0  0  0  0  0  0  0  0  0  0  0  0
    4.2320    4.6059    0.0000 C   0  0  0  0  0  0  0  0  0  0  0  0
    2.7320    3.7398    0.0000 C   0  0  0  0  0  0  0  0  0  0  0  0
    6.2286    4.9524    0.0000 C   0  0  0  0  0  0  0  0  0  0  0  0
    8.0500    5.7786    0.0000 C   0  0  0  0  0  0  0  0  0  0  0  0
    9.5818   -2.0362    0.0000 C   0  0  0  0  0  0  0  0  0  0  0  0
    6.3262    5.9476    0.0000 C   0  0  0  0  0  0  0  0  0  0  0  0
    3.7320    5.4719    0.0000 C   0  0  0  0  0  0  0  0  0  0  0  0
    2.2320    4.6059    0.0000 C   0  0  0  0  0  0  0  0  0  0  0  0
    7.2368    6.3607    0.0000 C   0  0  0  0  0  0  0  0  0  0  0  0
    2.7320    5.4719    0.0000 C   0  0  0  0  0  0  0  0  0  0  0  0
    5.4641   -0.1422    0.0000 H   0  0  0  0  0  0  0  0  0  0  0  0
    3.9112   -1.2801    0.0000 H   0  0  0  0  0  0  0  0  0  0  0  0
    3.6554   -2.0851    0.0000 H   0  0  0  0  0  0  0  0  0  0  0  0
    4.1645   -3.3986    0.0000 H   0  0  0  0  0  0  0  0  0  0  0  0
    4.8960   -3.8209    0.0000 H   0  0  0  0  0  0  0  0  0  0  0  0
    6.2880   -3.6050    0.0000 H   0  0  0  0  0  0  0  0  0  0  0  0
    6.8572   -2.9810    0.0000 H   0  0  0  0  0  0  0  0  0  0  0  0
    6.7454   -4.1719    0.0000 H   0  0  0  0  0  0  0  0  0  0  0  0
    8.2446   -4.0068    0.0000 H   0  0  0  0  0  0  0  0  0  0  0  0
    7.7778   -3.3607    0.0000 H   0  0  0  0  0  0  0  0  0  0  0  0
    3.1951   -1.3022    0.0000 H   0  0  0  0  0  0  0  0  0  0  0  0
    5.6873   -4.6516    0.0000 H   0  0  0  0  0  0  0  0  0  0  0  0
    4.0420   -0.5291    0.0000 H   0  0  0  0  0  0  0  0  0  0  0  0
    5.8478   -1.7006    0.0000 H   0  0  0  0  0  0  0  0  0  0  0  0
    7.1097   -4.9118    0.0000 H   0  0  0  0  0  0  0  0  0  0  0  0
    7.5764   -5.5579    0.0000 H   0  0  0  0  0  0  0  0  0  0  0  0
    5.0256   -1.7267    0.0000 H   0  0  0  0  0  0  0  0  0  0  0  0
    4.3298   -1.9799    0.0000 H   0  0  0  0  0  0  0  0  0  0  0  0
    4.1996   -0.9672    0.0000 H   0  0  0  0  0  0  0  0  0  0  0  0
    4.9966   -0.9672    0.0000 H   0  0  0  0  0  0  0  0  0  0  0  0
    4.4803   -3.4383    0.0000 H   0  0  0  0  0  0  0  0  0  0  0  0
    7.0850   -2.8934    0.0000 H   0  0  0  0  0  0  0  0  0  0  0  0
    6.6002    1.8695    0.0000 H   0  0  0  0  0  0  0  0  0  0  0  0
    5.7342    0.7495    0.0000 H   0  0  0  0  0  0  0  0  0  0  0  0
    6.7591   -0.3376    0.0000 H   0  0  0  0  0  0  0  0  0  0  0  0
    4.1705    1.5694    0.0000 H   0  0  0  0  0  0  0  0  0  0  0  0
    2.3291    1.8178    0.0000 H   0  0  0  0  0  0  0  0  0  0  0  0
    5.2144    2.4403    0.0000 H   0  0  0  0  0  0  0  0  0  0  0  0
    6.4610   -1.3846    0.0000 H   0  0  0  0  0  0  0  0  0  0  0  0
    6.7430   -2.1592    0.0000 H   0  0  0  0  0  0  0  0  0  0  0  0
    5.9800    2.1008    0.0000 H   0  0  0  0  0  0  0  0  0  0  0  0
    5.1951    2.2393    0.0000 H   0  0  0  0  0  0  0  0  0  0  0  0
    8.5760   -0.1778    0.0000 H   0  0  0  0  0  0  0  0  0  0  0  0
    3.3540   -2.0387    0.0000 H   0  0  0  0  0  0  0  0  0  0  0  0
    2.5594   -2.4093    0.0000 H   0  0  0  0  0  0  0  0  0  0  0  0
    2.9300   -3.2040    0.0000 H   0  0  0  0  0  0  0  0  0  0  0  0
    2.9172   -3.1313    0.0000 H   0  0  0  0  0  0  0  0  0  0  0  0
    2.8408   -4.0048    0.0000 H   0  0  0  0  0  0  0  0  0  0  0  0
    3.7143   -4.0811    0.0000 H   0  0  0  0  0  0  0  0  0  0  0  0
    7.7518    2.4786    0.0000 H   0  0  0  0  0  0  0  0  0  0  0  0
    4.7070    2.4753    0.0000 H   0  0  0  0  0  0  0  0  0  0  0  0
    4.7070    3.2724    0.0000 H   0  0  0  0  0  0  0  0  0  0  0  0
    6.1316    2.1572    0.0000 H   0  0  0  0  0  0  0  0  0  0  0  0
    6.9097    2.3297    0.0000 H   0  0  0  0  0  0  0  0  0  0  0  0
    5.8343   -0.0330    0.0000 H   0  0  0  0  0  0  0  0  0  0  0  0
    6.5526   -0.5359    0.0000 H   0  0  0  0  0  0  0  0  0  0  0  0
    7.0554    0.1824    0.0000 H   0  0  0  0  0  0  0  0  0  0  0  0
    4.5981    4.1278    0.0000 H   0  0  0  0  0  0  0  0  0  0  0  0
    8.1255   -6.4239    0.0000 H   0  0  0  0  0  0  0  0  0  0  0  0
    8.8054   -6.9775    0.0000 H   0  0  0  0  0  0  0  0  0  0  0  0
    9.3591   -6.2976    0.0000 H   0  0  0  0  0  0  0  0  0  0  0  0
    7.3107   -2.4814    0.0000 H   0  0  0  0  0  0  0  0  0  0  0  0
    8.1664   -1.6502    0.0000 H   0  0  0  0  0  0  0  0  0  0  0  0
    4.9272    1.3178    0.0000 H   0  0  0  0  0  0  0  0  0  0  0  0
    6.3301   -1.1122    0.0000 H   0  0  0  0  0  0  0  0  0  0  0  0
    4.3534    1.9430    0.0000 H   0  0  0  0  0  0  0  0  0  0  0  0
    3.9828    1.1484    0.0000 H   0  0  0  0  0  0  0  0  0  0  0  0
    4.7774    0.7777    0.0000 H   0  0  0  0  0  0  0  0  0  0  0  0
    8.3852    2.6190    0.0000 H   0  0  0  0  0  0  0  0  0  0  0  0
    6.3301    2.1278    0.0000 H   0  0  0  0  0  0  0  0  0  0  0  0
    7.7331   -0.3022    0.0000 H   0  0  0  0  0  0  0  0  0  0  0  0
    9.2370    4.1156    0.0000 H   0  0  0  0  0  0  0  0  0  0  0  0
    7.7331    1.3178    0.0000 H   0  0  0  0  0  0  0  0  0  0  0  0
    4.8520    4.6059    0.0000 H   0  0  0  0  0  0  0  0  0  0  0  0
    2.4220    3.2029    0.0000 H   0  0  0  0  0  0  0  0  0  0  0  0
    5.6640    4.6962    0.0000 H   0  0  0  0  0  0  0  0  0  0  0  0
    8.6146    6.0348    0.0000 H   0  0  0  0  0  0  0  0  0  0  0  0
    9.9375   -2.5440    0.0000 H   0  0  0  0  0  0  0  0  0  0  0  0
   10.0897   -1.6805    0.0000 H   0  0  0  0  0  0  0  0  0  0  0  0
    9.2262   -1.5283    0.0000 H   0  0  0  0  0  0  0  0  0  0  0  0
    5.8220    6.3085    0.0000 H   0  0  0  0  0  0  0  0  0  0  0  0
    4.0420    6.0088    0.0000 H   0  0  0  0  0  0  0  0  0  0  0  0
    1.6120    4.6059    0.0000 H   0  0  0  0  0  0  0  0  0  0  0  0
    7.2973    6.9778    0.0000 H   0  0  0  0  0  0  0  0  0  0  0  0
    2.4220    6.0088    0.0000 H   0  0  0  0  0  0  0  0  0  0  0  0
  1  7  2  0  0  0  0
  1 32  1  0  0  0  0
  1 55  1  0  0  0  0
  2 12  2  0  0  0  0
  2 56  1  0  0  0  0
  2 72  1  0  0  0  0
  3 26  2  0  0  0  0
  4 28  2  0  0  0  0
  5 33  2  0  0  0  0
  6 37  2  0  0  0  0
  8 42  2  0  0  0  0
  9 45  2  0  0  0  0
 10 51  2  0  0  0  0
 11 54  2  0  0  0  0
 13 22  1  0  0  0  0
 13 25  1  0  0  0  0
 13 26  1  0  0  0  0
 14 28  1  0  0  0  0
 14 30  1  0  0  0  0
 14 88  1  0  0  0  0
 15 27  1  0  0  0  0
 15 33  1  0  0  0  0
 15 89  1  0  0  0  0
 16 31  1  0  0  0  0
 16 42  1  0  0  0  0
 16 99  1  0  0  0  0
 17 37  1  0  0  0  0
 17 41  1  0  0  0  0
 17104  1  0  0  0  0
 18 40  1  0  0  0  0
 18 45  1  0  0  0  0
 18110  1  0  0  0  0
 19 38  1  0  0  0  0
 19 51  1  0  0  0  0
 19117  1  0  0  0  0
 20 44  1  0  0  0  0
 20 54  1  0  0  0  0
 20125  1  0  0  0  0
 21 65  1  0  0  0  0
 21 66  1  0  0  0  0
 21139  1  0  0  0  0
 22 23  1  0  0  0  0
 22 28  1  0  0  0  0
 22 78  1  6  0  0  0
 23 24  1  0  0  0  0
 23 79  1  0  0  0  0
 23 80  1  0  0  0  0
 24 25  1  0  0  0  0
 24 81  1  0  0  0  0
 24 82  1  0  0  0  0
 25 83  1  0  0  0  0
 25 84  1  0  0  0  0
 26 27  1  0  0  0  0
 27 29  1  0  0  0  0
 27 85  1  1  0  0  0
 29 32  1  0  0  0  0
 29 86  1  0  0  0  0
 29 87  1  0  0  0  0
 30 35  1  0  0  0  0
 30 37  1  0  0  0  0
 30 90  1  1  0  0  0
 31 33  1  0  0  0  0
 31 34  1  0  0  0  0
 31 91  1  1  0  0  0
 32 92  1  0  0  0  0
 32 93  1  0  0  0  0
 34 36  1  0  0  0  0
 34 94  1  0  0  0  0
 34 95  1  0  0  0  0
 35 43  1  0  0  0  0
 35 96  1  0  0  0  0
 35 97  1  0  0  0  0
 36 48  1  0  0  0  0
 36 49  1  0  0  0  0
 36 98  1  0  0  0  0
 38 39  1  0  0  0  0
 38 45  1  0  0  0  0
 38100  1  1  0  0  0
 39 47  1  0  0  0  0
 39 53  1  0  0  0  0
 39101  1  0  0  0  0
 40 42  1  0  0  0  0
 40 46  1  0  0  0  0
 40102  1  1  0  0  0
 41 50  1  0  0  0  0
 41 54  1  0  0  0  0
 41103  1  1  0  0  0
 43 57  2  0  0  0  0
 43 58  1  0  0  0  0
 44 51  1  0  0  0  0
 44 52  1  0  0  0  0
 44105  1  1  0  0  0
 46 56  1  0  0  0  0
 46106  1  0  0  0  0
 46107  1  0  0  0  0
 47 60  1  0  0  0  0
 47108  1  0  0  0  0
 47109  1  0  0  0  0
 48111  1  0  0  0  0
 48112  1  0  0  0  0
 48113  1  0  0  0  0
 49114  1  0  0  0  0
 49115  1  0  0  0  0
 49116  1  0  0  0  0
 50 61  1  0  0  0  0
 50118  1  0  0  0  0
 50119  1  0  0  0  0
 52 59  1  0  0  0  0
 52120  1  0  0  0  0
 52121  1  0  0  0  0
 53122  1  0  0  0  0
 53123  1  0  0  0  0
 53124  1  0  0  0  0
 55126  1  0  0  0  0
 55127  1  0  0  0  0
 55128  1  0  0  0  0
 56129  1  0  0  0  0
 56130  1  0  0  0  0
 57 63  1  0  0  0  0
 57131  1  0  0  0  0
 58 64  2  0  0  0  0
 58132  1  0  0  0  0
 59 62  1  0  0  0  0
 59 65  2  0  0  0  0
 60133  1  0  0  0  0
 60134  1  0  0  0  0
 60135  1  0  0  0  0
 61 68  2  0  0  0  0
 61 69  1  0  0  0  0
 62 66  1  0  0  0  0
 62 70  2  0  0  0  0
 63 67  2  0  0  0  0
 63137  1  0  0  0  0
 64 67  1  0  0  0  0
 64138  1  0  0  0  0
 65136  1  0  0  0  0
 66 71  2  0  0  0  0
 67140  1  0  0  0  0
 68 74  1  0  0  0  0
 68141  1  0  0  0  0
 69 75  2  0  0  0  0
 69142  1  0  0  0  0
 70 73  1  0  0  0  0
 70143  1  0  0  0  0
 71 76  1  0  0  0  0
 71144  1  0  0  0  0
 72145  1  0  0  0  0
 72146  1  0  0  0  0
 72147  1  0  0  0  0
 73 76  2  0  0  0  0
 73148  1  0  0  0  0
 74 77  2  0  0  0  0
 74149  1  0  0  0  0
 75 77  1  0  0  0  0
 75150  1  0  0  0  0
 76151  1  0  0  0  0
 77152  1  0  0  0  0
M  END
>  <PUBCHEM_COMPOUND_CID>
6398539

>  <PUBCHEM_COMPOUND_CANONICALIZED>
1

>  <PUBCHEM_CACTVS_COMPLEXITY>
2090

>  <PUBCHEM_CACTVS_HBOND_ACCEPTOR>
12

>  <PUBCHEM_CACTVS_HBOND_DONOR>
8

>  <PUBCHEM_CACTVS_ROTATABLE_BOND>
16

>  <PUBCHEM_CACTVS_SUBSKEYS>
AAADcfB//ABgAAAAAAAAAAAAAAAAAWLAAAAwYMAAAAAAAFgB9AAAHgQQAAAADSjF3gS+wPPJkAqoAzV3VEDCgCAxAjAI2aG4ZJgIYPLgkbGUIAhglgDIyAcYicCOgAAAAAACAAAAAAAAAAQAAAAAAAAAAA==

>  <PUBCHEM_IUPAC_OPENEYE_NAME>
(3S,6S,9S,12S,15S,18S,21S,24S)-18,21-dibenzyl-15-(1H-indol-3-ylmethyl)-6-isobutyl-3,9-bis(2-methylsulfinylethyl)-12-sec-butyl-1,4,7,10,13,16,19,22-octazabicyclo[22.3.0]heptacosane-2,5,8,11,14,17,20,23-octone

>  <PUBCHEM_IUPAC_CAS_NAME>
(3S,6S,9S,12S,15S,18S,21S,24S)-12-butan-2-yl-15-(1H-indol-3-ylmethyl)-6-(2-methylpropyl)-3,9-bis(2-methylsulfinylethyl)-18,21-bis(phenylmethyl)-1,4,7,10,13,16,19,22-octazabicyclo[22.3.0]heptacosane-2,5,8,11,14,17,20,23-octone

>  <PUBCHEM_IUPAC_NAME>
(3S,6S,9S,12S,15S,18S,21S,24S)-18,21-dibenzyl-12-butan-2-yl-15-(1H-indol-3-ylmethyl)-6-(2-methylpropyl)-3,9-bis(2-methylsulfinylethyl)-1,4,7,10,13,16,19,22-octazabicyclo[22.3.0]heptacosane-2,5,8,11,14,17,20,23-octone

>  <PUBCHEM_IUPAC_SYSTEMATIC_NAME>
(3S,6S,9S,12S,15S,18S,21S,24S)-12-butan-2-yl-15-(1H-indol-3-ylmethyl)-6-(2-methylpropyl)-3,9-bis(2-methylsulfinylethyl)-18,21-bis(phenylmethyl)-1,4,7,10,13,16,19,22-octazabicyclo[22.3.0]heptacosane-2,5,8,11,14,17,20,23-octone

>  <PUBCHEM_IUPAC_TRADITIONAL_NAME>
(3S,6S,9S,12S,15S,18S,21S,24S)-18,21-dibenzyl-15-(1H-indol-3-ylmethyl)-6-isobutyl-3,9-bis(2-methylsulfinylethyl)-12-sec-butyl-1,4,7,10,13,16,19,22-octazabicyclo[22.3.0]heptacosane-2,5,8,11,14,17,20,23-tetraquinone

>  <PUBCHEM_IUPAC_INCHI>
InChI=1S/C56H75N9O10S2/c1-7-35(4)48-55(72)58-41(24-27-76(5)74)49(66)60-43(29-34(2)3)50(67)59-42(25-28-77(6)75)56(73)65-26-16-23-47(65)54(71)63-45(31-37-19-12-9-13-20-37)52(69)61-44(30-36-17-10-8-11-18-36)51(68)62-46(53(70)64-48)32-38-33-57-40-22-15-14-21-39(38)40/h8-15,17-22,33-35,41-48,57H,7,16,23-32H2,1-6H3,(H,58,72)(H,59,67)(H,60,66)(H,61,69)(H,62,68)(H,63,71)(H,64,70)/t35?,41-,42-,43-,44-,45-,46-,47-,48-,76?,77?/m0/s1

>  <PUBCHEM_IUPAC_INCHIKEY>
MGTCVHJATWUGDT-VAFFMOIVSA-N

>  <PUBCHEM_XLOGP3_AA>
4

>  <PUBCHEM_EXACT_MASS>
1097.508

>  <PUBCHEM_MOLECULAR_FORMULA>
C56H75N9O10S2

>  <PUBCHEM_MOLECULAR_WEIGHT>
1098.389

>  <PUBCHEM_OPENEYE_CAN_SMILES>
CCC(C)C1C(=O)NC(C(=O)NC(C(=O)NC(C(=O)N2CCCC2C(=O)NC(C(=O)NC(C(=O)NC(C(=O)N1)CC3=CNC4=CC=CC=C43)CC5=CC=CC=C5)CC6=CC=CC=C6)CCS(=O)C)CC(C)C)CCS(=O)C

>  <PUBCHEM_OPENEYE_ISO_SMILES>
CCC(C)[C@H]1C(=O)N[C@H](C(=O)N[C@H](C(=O)N[C@H](C(=O)N2CCC[C@H]2C(=O)N[C@H](C(=O)N[C@H](C(=O)N[C@H](C(=O)N1)CC3=CNC4=CC=CC=C43)CC5=CC=CC=C5)CC6=CC=CC=C6)CCS(=O)C)CC(C)C)CCS(=O)C

>  <PUBCHEM_CACTVS_TPSA>
312

>  <PUBCHEM_MONOISOTOPIC_WEIGHT>
1097.508

>  <PUBCHEM_TOTAL_CHARGE>
0

>  <PUBCHEM_HEAVY_ATOM_COUNT>
77

>  <PUBCHEM_ATOM_DEF_STEREO_COUNT>
8

>  <PUBCHEM_ATOM_UDEF_STEREO_COUNT>
3

>  <PUBCHEM_BOND_DEF_STEREO_COUNT>
0

>  <PUBCHEM_BOND_UDEF_STEREO_COUNT>
0

>  <PUBCHEM_ISOTOPIC_ATOM_COUNT>
0

>  <PUBCHEM_COMPONENT_COUNT>
1

>  <PUBCHEM_CACTVS_TAUTO_COUNT>
1000

>  <PUBCHEM_COORDINATE_TYPE>
1
5
255

>  <PUBCHEM_BONDANNOTATIONS>
1  55  3
2  72  3
21  65  8
21  66  8
22  78  6
27  29  6
30  35  6
31  34  6
38  39  6
39  53  3
40  46  6
41  50  6
43  57  8
43  58  8
44  52  6
57  63  8
58  64  8
59  62  8
59  65  8
61  68  8
61  69  8
62  66  8
62  70  8
63  67  8
64  67  8
66  71  8
68  74  8
69  75  8
70  73  8
71  76  8
73  76  8
74  77  8
75  77  8

$$$$
