641293
 OpenBabel06101807152D

 42 44  0  0  0  0  0  0  0  0999 V2000
    8.1962   -1.0241    0.0000 Cl  0  0  0  0  0  0  0  0  0  0  0  0
    6.4144    2.0346    0.0000 O   0  0  0  0  0  0  0  0  0  0  0  0
    6.4144   -2.0346    0.0000 O   0  0  0  0  0  0  0  0  0  0  0  0
    4.6660    2.0000    0.0000 O   0  0  0  0  0  0  0  0  0  0  0  0
    4.6660   -2.0000    0.0000 O   0  0  0  0  0  0  0  0  0  0  0  0
    5.5321    0.5000    0.0000 C   0  0  0  0  0  0  0  0  0  0  0  0
    7.3321    0.5208    0.0000 C   0  0  0  0  0  0  0  0  0  0  0  0
    5.5321   -0.5000    0.0000 C   0  0  0  0  0  0  0  0  0  0  0  0
    8.1962    1.0241    0.0000 C   0  0  0  0  0  0  0  0  0  0  0  0
    6.4260    1.0347    0.0000 C   0  0  0  0  0  0  0  0  0  0  0  0
    3.8000    0.5000    0.0000 C   0  0  0  0  0  0  0  0  0  0  0  0
    6.4260   -1.0347    0.0000 C   0  0  0  0  0  0  0  0  0  0  0  0
    4.6660    1.0000    0.0000 C   0  0  0  0  0  0  0  0  0  0  0  0
    3.8000   -0.5000    0.0000 C   0  0  0  0  0  0  0  0  0  0  0  0
    7.3321   -0.5208    0.0000 C   0  0  0  0  0  0  0  0  0  0  0  0
    9.0641    0.5275    0.0000 C   0  0  0  0  0  0  0  0  0  0  0  0
    4.6660   -1.0000    0.0000 C   0  0  0  0  0  0  0  0  0  0  0  0
    9.9282    1.0308    0.0000 C   0  0  0  0  0  0  0  0  0  0  0  0
    2.9061    1.0347    0.0000 C   0  0  0  0  0  0  0  0  0  0  0  0
    2.9061   -1.0347    0.0000 C   0  0  0  0  0  0  0  0  0  0  0  0
   10.7961    0.5342    0.0000 C   0  0  0  0  0  0  0  0  0  0  0  0
    2.0000    0.5208    0.0000 C   0  0  0  0  0  0  0  0  0  0  0  0
    2.0000   -0.5208    0.0000 C   0  0  0  0  0  0  0  0  0  0  0  0
   11.6602    1.0375    0.0000 C   0  0  0  0  0  0  0  0  0  0  0  0
   10.8000   -0.4658    0.0000 C   0  0  0  0  0  0  0  0  0  0  0  0
    8.5929    1.5006    0.0000 H   0  0  0  0  0  0  0  0  0  0  0  0
    7.7958    1.4976    0.0000 H   0  0  0  0  0  0  0  0  0  0  0  0
    8.6674    0.0510    0.0000 H   0  0  0  0  0  0  0  0  0  0  0  0
    9.4645    0.0541    0.0000 H   0  0  0  0  0  0  0  0  0  0  0  0
    9.9258    1.6508    0.0000 H   0  0  0  0  0  0  0  0  0  0  0  0
    2.9132    1.6546    0.0000 H   0  0  0  0  0  0  0  0  0  0  0  0
    2.9132   -1.6546    0.0000 H   0  0  0  0  0  0  0  0  0  0  0  0
    1.4643    0.8329    0.0000 H   0  0  0  0  0  0  0  0  0  0  0  0
    1.4643   -0.8329    0.0000 H   0  0  0  0  0  0  0  0  0  0  0  0
    6.9478    2.3508    0.0000 H   0  0  0  0  0  0  0  0  0  0  0  0
    6.9478   -2.3508    0.0000 H   0  0  0  0  0  0  0  0  0  0  0  0
   11.9723    0.5018    0.0000 H   0  0  0  0  0  0  0  0  0  0  0  0
   12.1960    1.3496    0.0000 H   0  0  0  0  0  0  0  0  0  0  0  0
   10.1800   -0.4682    0.0000 H   0  0  0  0  0  0  0  0  0  0  0  0
   10.8024   -1.0858    0.0000 H   0  0  0  0  0  0  0  0  0  0  0  0
   11.4200   -0.4634    0.0000 H   0  0  0  0  0  0  0  0  0  0  0  0
   11.3482    1.5732    0.0000 H   0  0  0  0  0  0  0  0  0  0  0  0
  1 15  1  0  0  0  0
  2 10  1  0  0  0  0
  2 35  1  0  0  0  0
  3 12  1  0  0  0  0
  3 36  1  0  0  0  0
  4 13  2  0  0  0  0
  5 17  2  0  0  0  0
  6  8  2  0  0  0  0
  6 10  1  0  0  0  0
  6 13  1  0  0  0  0
  7  9  1  0  0  0  0
  7 10  2  0  0  0  0
  7 15  1  0  0  0  0
  8 12  1  0  0  0  0
  8 17  1  0  0  0  0
  9 16  1  0  0  0  0
  9 26  1  0  0  0  0
  9 27  1  0  0  0  0
 11 13  1  0  0  0  0
 11 14  1  0  0  0  0
 11 19  2  0  0  0  0
 12 15  2  0  0  0  0
 14 17  1  0  0  0  0
 14 20  2  0  0  0  0
 16 18  1  0  0  0  0
 16 28  1  0  0  0  0
 16 29  1  0  0  0  0
 18 21  2  0  0  0  0
 18 30  1  0  0  0  0
 19 22  1  0  0  0  0
 19 31  1  0  0  0  0
 20 23  1  0  0  0  0
 20 32  1  0  0  0  0
 21 24  1  0  0  0  0
 21 25  1  0  0  0  0
 22 23  2  0  0  0  0
 22 33  1  0  0  0  0
 23 34  1  0  0  0  0
 24 37  1  0  0  0  0
 24 38  1  0  0  0  0
 24 42  1  0  0  0  0
 25 39  1  0  0  0  0
 25 40  1  0  0  0  0
 25 41  1  0  0  0  0
M  END
>  <PUBCHEM_COMPOUND_CID>
641293

>  <PUBCHEM_COMPOUND_CANONICALIZED>
1

>  <PUBCHEM_CACTVS_COMPLEXITY>
568

>  <PUBCHEM_CACTVS_HBOND_ACCEPTOR>
4

>  <PUBCHEM_CACTVS_HBOND_DONOR>
2

>  <PUBCHEM_CACTVS_ROTATABLE_BOND>
3

>  <PUBCHEM_CACTVS_SUBSKEYS>
AAADceB4OAAEAAAAAAAAAAAAAAAAAAAAAAAwYMAAAAAAAADBQAAAGgIACAAADAaAmCAyBoAAAgCIAqBSAAACAAAkJEAIiAEEC8gIJjaDFxKAcUAk4BEImYfLyPCOxQADIQAZCACKAAZCADIQAAAAAAAAAA==

>  <PUBCHEM_IUPAC_OPENEYE_NAME>
2-chloro-1,4-dihydroxy-3-(4-methylpent-3-enyl)anthracene-9,10-dione

>  <PUBCHEM_IUPAC_CAS_NAME>
2-chloro-1,4-dihydroxy-3-(4-methylpent-3-enyl)anthracene-9,10-dione

>  <PUBCHEM_IUPAC_NAME>
2-chloro-1,4-dihydroxy-3-(4-methylpent-3-enyl)anthracene-9,10-dione

>  <PUBCHEM_IUPAC_SYSTEMATIC_NAME>
2-chloranyl-3-(4-methylpent-3-enyl)-1,4-bis(oxidanyl)anthracene-9,10-dione

>  <PUBCHEM_IUPAC_TRADITIONAL_NAME>
2-chloro-1,4-dihydroxy-3-(4-methylpent-3-enyl)-9,10-anthraquinone

>  <PUBCHEM_IUPAC_INCHI>
InChI=1S/C20H17ClO4/c1-10(2)6-5-9-13-16(21)20(25)15-14(19(13)24)17(22)11-7-3-4-8-12(11)18(15)23/h3-4,6-8,24-25H,5,9H2,1-2H3

>  <PUBCHEM_IUPAC_INCHIKEY>
OMNIOLUJTUKRAH-UHFFFAOYSA-N

>  <PUBCHEM_XLOGP3_AA>
6.1

>  <PUBCHEM_EXACT_MASS>
356.082

>  <PUBCHEM_MOLECULAR_FORMULA>
C20H17ClO4

>  <PUBCHEM_MOLECULAR_WEIGHT>
356.802

>  <PUBCHEM_OPENEYE_CAN_SMILES>
CC(=CCCC1=C(C2=C(C(=C1Cl)O)C(=O)C3=CC=CC=C3C2=O)O)C

>  <PUBCHEM_OPENEYE_ISO_SMILES>
CC(=CCCC1=C(C2=C(C(=C1Cl)O)C(=O)C3=CC=CC=C3C2=O)O)C

>  <PUBCHEM_CACTVS_TPSA>
74.6

>  <PUBCHEM_MONOISOTOPIC_WEIGHT>
356.082

>  <PUBCHEM_TOTAL_CHARGE>
0

>  <PUBCHEM_HEAVY_ATOM_COUNT>
25

>  <PUBCHEM_ATOM_DEF_STEREO_COUNT>
0

>  <PUBCHEM_ATOM_UDEF_STEREO_COUNT>
0

>  <PUBCHEM_BOND_DEF_STEREO_COUNT>
0

>  <PUBCHEM_BOND_UDEF_STEREO_COUNT>
0

>  <PUBCHEM_ISOTOPIC_ATOM_COUNT>
0

>  <PUBCHEM_COMPONENT_COUNT>
1

>  <PUBCHEM_CACTVS_TAUTO_COUNT>
94

>  <PUBCHEM_COORDINATE_TYPE>
1
5
255

>  <PUBCHEM_BONDANNOTATIONS>
11  14  8
11  19  8
12  15  8
14  20  8
19  22  8
20  23  8
22  23  8
6  10  8
6  8  8
7  10  8
7  15  8
8  12  8

$$$$
