641378
 OpenBabel06101807152D

 39 42  0  0  0  0  0  0  0  0999 V2000
    9.1869   -0.2247    0.0000 O   0  0  0  0  0  0  0  0  0  0  0  0
    5.5918   -1.1787    0.0000 O   0  0  0  0  0  0  0  0  0  0  0  0
    7.4269    2.8100    0.0000 O   0  0  0  0  0  0  0  0  0  0  0  0
    2.6200   -3.1200    0.0000 O   0  0  0  0  0  0  0  0  0  0  0  0
   10.0930    0.2892    0.0000 C   0  0  0  0  0  0  0  0  0  0  0  0
    8.2930    0.3100    0.0000 C   0  0  0  0  0  0  0  0  0  0  0  0
    8.2930    1.3100    0.0000 C   0  0  0  0  0  0  0  0  0  0  0  0
   10.0930    1.3308    0.0000 C   0  0  0  0  0  0  0  0  0  0  0  0
   11.0929    0.2853    0.0000 C   0  0  0  0  0  0  0  0  0  0  0  0
   10.5896   -0.5788    0.0000 C   0  0  0  0  0  0  0  0  0  0  0  0
    9.1869    1.8446    0.0000 C   0  0  0  0  0  0  0  0  0  0  0  0
    6.5609    0.3100    0.0000 C   0  0  0  0  0  0  0  0  0  0  0  0
    7.4269   -0.1900    0.0000 C   0  0  0  0  0  0  0  0  0  0  0  0
    7.4269    1.8100    0.0000 C   0  0  0  0  0  0  0  0  0  0  0  0
    5.6949   -0.1900    0.0000 C   0  0  0  0  0  0  0  0  0  0  0  0
    6.5609    1.3100    0.0000 C   0  0  0  0  0  0  0  0  0  0  0  0
    4.1200   -0.5219    0.0000 C   0  0  0  0  0  0  0  0  0  0  0  0
    4.7871    0.2151    0.0000 C   0  0  0  0  0  0  0  0  0  0  0  0
    4.6200   -1.3879    0.0000 C   0  0  0  0  0  0  0  0  0  0  0  0
    3.1200   -0.5219    0.0000 C   0  0  0  0  0  0  0  0  0  0  0  0
    4.1200   -2.2540    0.0000 C   0  0  0  0  0  0  0  0  0  0  0  0
    3.1200   -2.2540    0.0000 C   0  0  0  0  0  0  0  0  0  0  0  0
    2.6200   -1.3879    0.0000 C   0  0  0  0  0  0  0  0  0  0  0  0
   10.6287    1.6429    0.0000 H   0  0  0  0  0  0  0  0  0  0  0  0
   11.0906   -0.3347    0.0000 H   0  0  0  0  0  0  0  0  0  0  0  0
   11.7129    0.2829    0.0000 H   0  0  0  0  0  0  0  0  0  0  0  0
   10.0515   -0.8867    0.0000 H   0  0  0  0  0  0  0  0  0  0  0  0
   10.8975   -1.1169    0.0000 H   0  0  0  0  0  0  0  0  0  0  0  0
   11.1277   -0.2708    0.0000 H   0  0  0  0  0  0  0  0  0  0  0  0
   11.0953    0.9053    0.0000 H   0  0  0  0  0  0  0  0  0  0  0  0
    9.1797    2.4646    0.0000 H   0  0  0  0  0  0  0  0  0  0  0  0
    7.4269   -0.8100    0.0000 H   0  0  0  0  0  0  0  0  0  0  0  0
    6.0240    1.6200    0.0000 H   0  0  0  0  0  0  0  0  0  0  0  0
    4.6592    0.8218    0.0000 H   0  0  0  0  0  0  0  0  0  0  0  0
    2.8100    0.0150    0.0000 H   0  0  0  0  0  0  0  0  0  0  0  0
    4.4300   -2.7909    0.0000 H   0  0  0  0  0  0  0  0  0  0  0  0
    2.0000   -1.3879    0.0000 H   0  0  0  0  0  0  0  0  0  0  0  0
    6.8900    3.1200    0.0000 H   0  0  0  0  0  0  0  0  0  0  0  0
    2.0000   -3.1200    0.0000 H   0  0  0  0  0  0  0  0  0  0  0  0
  1  5  1  0  0  0  0
  1  6  1  0  0  0  0
  2 15  1  0  0  0  0
  2 19  1  0  0  0  0
  3 14  1  0  0  0  0
  3 38  1  0  0  0  0
  4 22  1  0  0  0  0
  4 39  1  0  0  0  0
  5  8  1  0  0  0  0
  5  9  1  0  0  0  0
  5 10  1  0  0  0  0
  6  7  1  0  0  0  0
  6 13  2  0  0  0  0
  7 11  1  0  0  0  0
  7 14  2  0  0  0  0
  8 11  2  0  0  0  0
  8 24  1  0  0  0  0
  9 25  1  0  0  0  0
  9 26  1  0  0  0  0
  9 30  1  0  0  0  0
 10 27  1  0  0  0  0
 10 28  1  0  0  0  0
 10 29  1  0  0  0  0
 11 31  1  0  0  0  0
 12 13  1  0  0  0  0
 12 15  1  0  0  0  0
 12 16  2  0  0  0  0
 13 32  1  0  0  0  0
 14 16  1  0  0  0  0
 15 18  2  0  0  0  0
 16 33  1  0  0  0  0
 17 18  1  0  0  0  0
 17 19  2  0  0  0  0
 17 20  1  0  0  0  0
 18 34  1  0  0  0  0
 19 21  1  0  0  0  0
 20 23  2  0  0  0  0
 20 35  1  0  0  0  0
 21 22  2  0  0  0  0
 21 36  1  0  0  0  0
 22 23  1  0  0  0  0
 23 37  1  0  0  0  0
M  END
>  <PUBCHEM_COMPOUND_CID>
641378

>  <PUBCHEM_COMPOUND_CANONICALIZED>
1

>  <PUBCHEM_CACTVS_COMPLEXITY>
474

>  <PUBCHEM_CACTVS_HBOND_ACCEPTOR>
4

>  <PUBCHEM_CACTVS_HBOND_DONOR>
2

>  <PUBCHEM_CACTVS_ROTATABLE_BOND>
1

>  <PUBCHEM_CACTVS_SUBSKEYS>
AAADceB4OAAAAAAAAAAAAAAAAAAAASAAAAAwYIAAAAAAAEiB9AAAGgAACAAADESAmAAyBsAABkCIAqBSAAACCAAkIAAIiAEGCMgMJzaGNRqCeWCl4BUIuYfK7PzOYAABCAAIAADAAAIQABAAAAAAAAAAAA==

>  <PUBCHEM_IUPAC_OPENEYE_NAME>
7-(6-hydroxybenzofuran-2-yl)-2,2-dimethyl-chromen-5-ol

>  <PUBCHEM_IUPAC_CAS_NAME>
7-(6-hydroxy-2-benzofuranyl)-2,2-dimethyl-1-benzopyran-5-ol

>  <PUBCHEM_IUPAC_NAME>
7-(6-hydroxy-1-benzofuran-2-yl)-2,2-dimethylchromen-5-ol

>  <PUBCHEM_IUPAC_SYSTEMATIC_NAME>
2,2-dimethyl-7-(6-oxidanyl-1-benzofuran-2-yl)chromen-5-ol

>  <PUBCHEM_IUPAC_TRADITIONAL_NAME>
7-(6-hydroxybenzofuran-2-yl)-2,2-dimethyl-chromen-5-ol

>  <PUBCHEM_IUPAC_INCHI>
InChI=1S/C19H16O4/c1-19(2)6-5-14-15(21)7-12(9-18(14)23-19)16-8-11-3-4-13(20)10-17(11)22-16/h3-10,20-21H,1-2H3

>  <PUBCHEM_IUPAC_INCHIKEY>
CHAAQDMHLLQJRO-UHFFFAOYSA-N

>  <PUBCHEM_XLOGP3_AA>
4.2

>  <PUBCHEM_EXACT_MASS>
308.105

>  <PUBCHEM_MOLECULAR_FORMULA>
C19H16O4

>  <PUBCHEM_MOLECULAR_WEIGHT>
308.333

>  <PUBCHEM_OPENEYE_CAN_SMILES>
CC1(C=CC2=C(O1)C=C(C=C2O)C3=CC4=C(O3)C=C(C=C4)O)C

>  <PUBCHEM_OPENEYE_ISO_SMILES>
CC1(C=CC2=C(O1)C=C(C=C2O)C3=CC4=C(O3)C=C(C=C4)O)C

>  <PUBCHEM_CACTVS_TPSA>
62.8

>  <PUBCHEM_MONOISOTOPIC_WEIGHT>
308.105

>  <PUBCHEM_TOTAL_CHARGE>
0

>  <PUBCHEM_HEAVY_ATOM_COUNT>
23

>  <PUBCHEM_ATOM_DEF_STEREO_COUNT>
0

>  <PUBCHEM_ATOM_UDEF_STEREO_COUNT>
0

>  <PUBCHEM_BOND_DEF_STEREO_COUNT>
0

>  <PUBCHEM_BOND_UDEF_STEREO_COUNT>
0

>  <PUBCHEM_ISOTOPIC_ATOM_COUNT>
0

>  <PUBCHEM_COMPONENT_COUNT>
1

>  <PUBCHEM_CACTVS_TAUTO_COUNT>
5

>  <PUBCHEM_COORDINATE_TYPE>
1
5
255

>  <PUBCHEM_BONDANNOTATIONS>
12  13  8
12  16  8
14  16  8
15  18  8
17  18  8
17  19  8
17  20  8
19  21  8
2  15  8
2  19  8
20  23  8
21  22  8
22  23  8
6  13  8
6  7  8
7  14  8

$$$$
