641595
 OpenBabel06101807152D

 46 47  0  0  0  0  0  0  0  0999 V2000
    3.7601    3.0114    0.0000 O   0  0  0  0  0  0  0  0  0  0  0  0
    9.6948   -3.5797    0.0000 O   0  0  0  0  0  0  0  0  0  0  0  0
    2.0000    3.2902    0.0000 O   0  0  0  0  0  0  0  0  0  0  0  0
    9.7881   -5.3593    0.0000 O   0  0  0  0  0  0  0  0  0  0  0  0
    7.8381    0.7159    0.0000 N   0  0  0  0  0  0  0  0  0  0  0  0
    6.8870    1.0249    0.0000 C   0  0  0  0  0  0  0  0  0  0  0  0
    8.0460   -0.2623    0.0000 C   0  0  0  0  0  0  0  0  0  0  0  0
    6.6791    2.0030    0.0000 C   0  0  0  0  0  0  0  0  0  0  0  0
    8.9970   -0.5713    0.0000 C   0  0  0  0  0  0  0  0  0  0  0  0
    5.7281    2.3121    0.0000 C   0  0  0  0  0  0  0  0  0  0  0  0
    9.2050   -1.5494    0.0000 C   0  0  0  0  0  0  0  0  0  0  0  0
    5.5202    3.2902    0.0000 C   0  0  0  0  0  0  0  0  0  0  0  0
   10.1560   -1.8584    0.0000 C   0  0  0  0  0  0  0  0  0  0  0  0
    4.5691    3.5992    0.0000 C   0  0  0  0  0  0  0  0  0  0  0  0
   10.3639   -2.8366    0.0000 C   0  0  0  0  0  0  0  0  0  0  0  0
    4.2601    4.5503    0.0000 C   0  0  0  0  0  0  0  0  0  0  0  0
   11.2775   -3.2433    0.0000 C   0  0  0  0  0  0  0  0  0  0  0  0
    3.2601    4.5503    0.0000 C   0  0  0  0  0  0  0  0  0  0  0  0
   11.1729   -4.2378    0.0000 C   0  0  0  0  0  0  0  0  0  0  0  0
    2.9511    3.5992    0.0000 C   0  0  0  0  0  0  0  0  0  0  0  0
   10.1948   -4.4458    0.0000 C   0  0  0  0  0  0  0  0  0  0  0  0
    2.6723    5.3593    0.0000 C   0  0  0  0  0  0  0  0  0  0  0  0
   11.9161   -4.9070    0.0000 C   0  0  0  0  0  0  0  0  0  0  0  0
    6.2674    1.0033    0.0000 H   0  0  0  0  0  0  0  0  0  0  0  0
    6.8007    0.4109    0.0000 H   0  0  0  0  0  0  0  0  0  0  0  0
    7.4264   -0.2839    0.0000 H   0  0  0  0  0  0  0  0  0  0  0  0
    7.9597   -0.8762    0.0000 H   0  0  0  0  0  0  0  0  0  0  0  0
    7.2987    2.0247    0.0000 H   0  0  0  0  0  0  0  0  0  0  0  0
    6.7654    2.6170    0.0000 H   0  0  0  0  0  0  0  0  0  0  0  0
    9.6167   -0.5496    0.0000 H   0  0  0  0  0  0  0  0  0  0  0  0
    9.0833    0.0427    0.0000 H   0  0  0  0  0  0  0  0  0  0  0  0
    8.2988    1.1308    0.0000 H   0  0  0  0  0  0  0  0  0  0  0  0
    8.5853   -1.5711    0.0000 H   0  0  0  0  0  0  0  0  0  0  0  0
    9.1187   -2.1634    0.0000 H   0  0  0  0  0  0  0  0  0  0  0  0
    5.1084    2.2904    0.0000 H   0  0  0  0  0  0  0  0  0  0  0  0
    5.6418    1.6981    0.0000 H   0  0  0  0  0  0  0  0  0  0  0  0
   10.6168   -1.4436    0.0000 H   0  0  0  0  0  0  0  0  0  0  0  0
    5.9809    3.7051    0.0000 H   0  0  0  0  0  0  0  0  0  0  0  0
    4.6245    5.0519    0.0000 H   0  0  0  0  0  0  0  0  0  0  0  0
   11.8144   -2.9333    0.0000 H   0  0  0  0  0  0  0  0  0  0  0  0
   11.5012   -5.3677    0.0000 H   0  0  0  0  0  0  0  0  0  0  0  0
   12.3768   -5.3218    0.0000 H   0  0  0  0  0  0  0  0  0  0  0  0
   12.3310   -4.4462    0.0000 H   0  0  0  0  0  0  0  0  0  0  0  0
    3.1739    5.7237    0.0000 H   0  0  0  0  0  0  0  0  0  0  0  0
    2.3079    5.8609    0.0000 H   0  0  0  0  0  0  0  0  0  0  0  0
    2.1707    4.9949    0.0000 H   0  0  0  0  0  0  0  0  0  0  0  0
  1 14  1  0  0  0  0
  1 20  1  0  0  0  0
  2 15  1  0  0  0  0
  2 21  1  0  0  0  0
  3 20  2  0  0  0  0
  4 21  2  0  0  0  0
  5  6  1  0  0  0  0
  5  7  1  0  0  0  0
  5 32  1  0  0  0  0
  6  8  1  0  0  0  0
  6 24  1  0  0  0  0
  6 25  1  0  0  0  0
  7  9  1  0  0  0  0
  7 26  1  0  0  0  0
  7 27  1  0  0  0  0
  8 10  1  0  0  0  0
  8 28  1  0  0  0  0
  8 29  1  0  0  0  0
  9 11  1  0  0  0  0
  9 30  1  0  0  0  0
  9 31  1  0  0  0  0
 10 12  1  0  0  0  0
 10 35  1  0  0  0  0
 10 36  1  0  0  0  0
 11 13  1  0  0  0  0
 11 33  1  0  0  0  0
 11 34  1  0  0  0  0
 12 14  2  0  0  0  0
 12 38  1  0  0  0  0
 13 15  2  0  0  0  0
 13 37  1  0  0  0  0
 14 16  1  0  0  0  0
 15 17  1  0  0  0  0
 16 18  2  0  0  0  0
 16 39  1  0  0  0  0
 17 19  2  0  0  0  0
 17 40  1  0  0  0  0
 18 20  1  0  0  0  0
 18 22  1  0  0  0  0
 19 21  1  0  0  0  0
 19 23  1  0  0  0  0
 22 44  1  0  0  0  0
 22 45  1  0  0  0  0
 22 46  1  0  0  0  0
 23 41  1  0  0  0  0
 23 42  1  0  0  0  0
 23 43  1  0  0  0  0
M  END
>  <PUBCHEM_COMPOUND_CID>
641595

>  <PUBCHEM_COMPOUND_CANONICALIZED>
1

>  <PUBCHEM_CACTVS_COMPLEXITY>
544

>  <PUBCHEM_CACTVS_HBOND_ACCEPTOR>
5

>  <PUBCHEM_CACTVS_HBOND_DONOR>
1

>  <PUBCHEM_CACTVS_ROTATABLE_BOND>
8

>  <PUBCHEM_CACTVS_SUBSKEYS>
AAADceB6OAAAAAAAAAAAAAAAAAAAAQIAAAAAAAAAAAAAAAAAAAAAHgAQAAAADATBgAQCCALABACIAiDSCAAACAAgIAAACIEIAEgIBAAAoQAGEAAAkACIoYIAAAAAAAAAAAAAAAAAAAAAAAAAAAAAAAAAAA==

>  <PUBCHEM_IUPAC_OPENEYE_NAME>
(5Z)-3-methyl-5-[4-[[(4Z)-4-(4-methyl-5-oxo-2-furylidene)butyl]amino]butylidene]furan-2-one

>  <PUBCHEM_IUPAC_CAS_NAME>
(5Z)-3-methyl-5-[4-[[(4Z)-4-(4-methyl-5-oxo-2-furanylidene)butyl]amino]butylidene]-2-furanone

>  <PUBCHEM_IUPAC_NAME>
(5Z)-3-methyl-5-[4-[[(4Z)-4-(4-methyl-5-oxofuran-2-ylidene)butyl]amino]butylidene]furan-2-one

>  <PUBCHEM_IUPAC_SYSTEMATIC_NAME>
(5Z)-3-methyl-5-[4-[[(4Z)-4-(4-methyl-5-oxidanylidene-furan-2-ylidene)butyl]amino]butylidene]furan-2-one

>  <PUBCHEM_IUPAC_TRADITIONAL_NAME>
(5Z)-5-[4-[[(4Z)-4-(5-keto-4-methyl-2-furylidene)butyl]amino]butylidene]-3-methyl-furan-2-one

>  <PUBCHEM_IUPAC_INCHI>
InChI=1S/C18H23NO4/c1-13-11-15(22-17(13)20)7-3-5-9-19-10-6-4-8-16-12-14(2)18(21)23-16/h7-8,11-12,19H,3-6,9-10H2,1-2H3/b15-7-,16-8-

>  <PUBCHEM_IUPAC_INCHIKEY>
UFHQEIRNGIAWOB-DUGOVBPYSA-N

>  <PUBCHEM_XLOGP3_AA>
2.8

>  <PUBCHEM_EXACT_MASS>
317.163

>  <PUBCHEM_MOLECULAR_FORMULA>
C18H23NO4

>  <PUBCHEM_MOLECULAR_WEIGHT>
317.385

>  <PUBCHEM_OPENEYE_CAN_SMILES>
CC1=CC(=CCCCNCCCC=C2C=C(C(=O)O2)C)OC1=O

>  <PUBCHEM_OPENEYE_ISO_SMILES>
CC1=C/C(=C/CCCNCCC/C=C/2\OC(=O)C(=C2)C)/OC1=O

>  <PUBCHEM_CACTVS_TPSA>
64.6

>  <PUBCHEM_MONOISOTOPIC_WEIGHT>
317.163

>  <PUBCHEM_TOTAL_CHARGE>
0

>  <PUBCHEM_HEAVY_ATOM_COUNT>
23

>  <PUBCHEM_ATOM_DEF_STEREO_COUNT>
0

>  <PUBCHEM_ATOM_UDEF_STEREO_COUNT>
0

>  <PUBCHEM_BOND_DEF_STEREO_COUNT>
2

>  <PUBCHEM_BOND_UDEF_STEREO_COUNT>
0

>  <PUBCHEM_ISOTOPIC_ATOM_COUNT>
0

>  <PUBCHEM_COMPONENT_COUNT>
1

>  <PUBCHEM_CACTVS_TAUTO_COUNT>
6

>  <PUBCHEM_COORDINATE_TYPE>
1
5
255

$$$$
