6419734
 OpenBabel06101807152D

 51 32  0  0  1  0  0  0  0  0999 V2000
    5.6427    0.8422    0.0000 Mo  0  0  0  0  0 15  0  0  0  0  0  0
    5.8736   -0.1175    0.0000 Fe  0  0  0  0  0 15  0  0  0  0  0  0
    5.8765    1.3055    0.0000 Fe  0  0  0  0  0 15  0  0  0  0  0  0
    7.2907    1.3055    0.0000 Fe  0  0  0  0  0 15  0  0  0  0  0  0
    6.5795    1.5984    0.0000 Fe  0  0  0  0  0 15  0  0  0  0  0  0
    7.7914    1.4630    0.0000 Fe  0  0  0  0  0 15  0  0  0  0  0  0
    7.5836    0.6025    0.0000 Fe  0  0  0  0  0 15  0  0  0  0  0  0
    5.5754    2.5942    0.0000 Fe  0  0  0  0  0 15  0  0  0  0  0  0
    6.5836    2.0126    0.0000 S   0  5  0  0  0  0  0  0  0  0  0  0
    6.9929    0.1849    0.0000 S   0  5  0  0  0  0  0  0  0  0  0  0
    5.1606    0.5954    0.0000 S   0  5  0  0  0  0  0  0  0  0  0  0
    8.5486    0.8248    0.0000 S   0  5  0  0  0  0  0  0  0  0  0  0
    5.5795    1.5942    0.0000 S   0  5  0  0  0  0  0  0  0  0  0  0
    6.5754    2.5983    0.0000 S   0  5  0  0  0  0  0  0  0  0  0  0
    7.5557    0.3326    0.0000 S   0  5  0  0  0  0  0  0  0  0  0  0
    6.7411    2.5132    0.0000 S   0  5  0  0  0  0  0  0  0  0  0  0
    6.7503   -1.3317    0.0000 S   0  5  0  0  0  0  0  0  0  0  0  0
    5.2459   -0.0758    0.0000 O   0  0  0  0  0  0  0  0  0  0  0  0
    4.8923    1.5032    0.0000 O   0  0  0  0  0  0  0  0  0  0  0  0
    3.1138    1.3906    0.0000 O   0  0  0  0  0  0  0  0  0  0  0  0
    2.0000   -1.3735    0.0000 O   0  5  0  0  0  0  0  0  0  0  0  0
    3.6530   -1.8908    0.0000 O   0  0  0  0  0  0  0  0  0  0  0  0
    5.6936   -3.1312    0.0000 O   0  5  0  0  0  0  0  0  0  0  0  0
    3.9692   -2.9689    0.0000 O   0  0  0  0  0  0  0  0  0  0  0  0
    6.5836    0.5984    0.0000 N   0  5  0  0  0  0  0  0  0  0  0  0
    4.2503    0.0179    0.0000 C   0  0  3  0  0  0  0  0  0  0  0  0
    4.0318    0.9938    0.0000 C   0  0  0  0  0  0  0  0  0  0  0  0
    4.1566   -0.9776    0.0000 C   0  0  0  0  0  0  0  0  0  0  0  0
    3.2745   -0.2006    0.0000 C   0  0  0  0  0  0  0  0  0  0  0  0
    4.9720   -1.5566    0.0000 C   0  0  0  0  0  0  0  0  0  0  0  0
    2.9758   -1.1550    0.0000 C   0  0  0  0  0  0  0  0  0  0  0  0
    4.8783   -2.5522    0.0000 C   0  0  0  0  0  0  0  0  0  0  0  0
    6.4823   -0.0133    0.0000 H   0  0  0  0  0  0  0  0  0  0  0  0
    6.0032    0.3802    0.0000 H   0  0  0  0  0  0  0  0  0  0  0  0
    7.1825    2.1730    0.0000 H   0  0  0  0  0  0  0  0  0  0  0  0
    7.2561   -0.3765    0.0000 H   0  0  0  0  0  0  0  0  0  0  0  0
    4.5430    0.6495    0.0000 H   0  0  0  0  0  0  0  0  0  0  0  0
    9.0227    0.4252    0.0000 H   0  0  0  0  0  0  0  0  0  0  0  0
    5.2358    2.1102    0.0000 H   0  0  0  0  0  0  0  0  0  0  0  0
    7.0120    3.0386    0.0000 H   0  0  0  0  0  0  0  0  0  0  0  0
    8.1549    0.1734    0.0000 H   0  0  0  0  0  0  0  0  0  0  0  0
    6.6903    3.1312    0.0000 H   0  0  0  0  0  0  0  0  0  0  0  0
    6.7020   -1.9498    0.0000 H   0  0  0  0  0  0  0  0  0  0  0  0
    5.2526   -0.6957    0.0000 H   0  0  0  0  0  0  0  0  0  0  0  0
    4.3868    1.8621    0.0000 H   0  0  0  0  0  0  0  0  0  0  0  0
    3.5588   -0.8132    0.0000 H   0  0  0  0  0  0  0  0  0  0  0  0
    3.8909   -1.5378    0.0000 H   0  0  0  0  0  0  0  0  0  0  0  0
    3.2461    0.4188    0.0000 H   0  0  0  0  0  0  0  0  0  0  0  0
    2.6596   -0.1210    0.0000 H   0  0  0  0  0  0  0  0  0  0  0  0
    5.5698   -1.7210    0.0000 H   0  0  0  0  0  0  0  0  0  0  0  0
    5.2377   -0.9964    0.0000 H   0  0  0  0  0  0  0  0  0  0  0  0
  9 35  1  0  0  0  0
 10 36  1  0  0  0  0
 11 37  1  0  0  0  0
 12 38  1  0  0  0  0
 13 39  1  0  0  0  0
 14 40  1  0  0  0  0
 15 41  1  0  0  0  0
 16 42  1  0  0  0  0
 17 43  1  0  0  0  0
 18 26  1  0  0  0  0
 18 44  1  0  0  0  0
 19 27  1  0  0  0  0
 19 45  1  0  0  0  0
 20 27  2  0  0  0  0
 21 31  1  0  0  0  0
 22 31  2  0  0  0  0
 23 32  1  0  0  0  0
 24 32  2  0  0  0  0
 25 33  1  0  0  0  0
 25 34  1  0  0  0  0
 26 27  1  0  0  0  0
 26 28  1  0  0  0  0
 26 29  1  0  0  0  0
 28 30  1  0  0  0  0
 28 46  1  0  0  0  0
 28 47  1  0  0  0  0
 29 31  1  0  0  0  0
 29 48  1  0  0  0  0
 29 49  1  0  0  0  0
 30 32  1  0  0  0  0
 30 50  1  0  0  0  0
 30 51  1  0  0  0  0
M  CHG  8   9  -1  10  -1  11  -1  12  -1  13  -1  14  -1  15  -1  16  -1
M  CHG  4  17  -1  21  -1  23  -1  25  -1
M  END
>  <PUBCHEM_COMPOUND_CID>
6419734

>  <PUBCHEM_COMPOUND_CANONICALIZED>
1

>  <PUBCHEM_CACTVS_COMPLEXITY>
306

>  <PUBCHEM_CACTVS_HBOND_ACCEPTOR>
17

>  <PUBCHEM_CACTVS_HBOND_DONOR>
12

>  <PUBCHEM_CACTVS_ROTATABLE_BOND>
3

>  <PUBCHEM_CACTVS_SUBSKEYS>
AAADceBiOAB4AAAgAEAAAAAAAABYsSAAAAAsWLFiwAAAAAAAAAAAGgAQCAAADESAgAAACAAAAgAIAACQCAIAAAAAAAAAAAFAAAABABYAAAAAQAAFIAABAAHLbgAOAAAAAAAAAAAAAAAAAAAAAAAAAAAAAA==

>  <PUBCHEM_IUPAC_OPENEYE_NAME>
azanide;3-carboxy-3-hydroxy-hexanedioate;iron;molybdenum;sulfanide

>  <PUBCHEM_IUPAC_CAS_NAME>
azanide;3-carboxy-3-hydroxyhexanedioate;iron;molybdenum;sulfanide

>  <PUBCHEM_IUPAC_NAME>
azanide;3-carboxy-3-hydroxyhexanedioate;iron;molybdenum;sulfanide

>  <PUBCHEM_IUPAC_SYSTEMATIC_NAME>
azanide;3-carboxy-3-oxidanyl-hexanedioate;iron;molybdenum;sulfanide

>  <PUBCHEM_IUPAC_TRADITIONAL_NAME>
azanide;3-carboxy-3-hydroxy-adipate;iron;molybdenum;nonabisulfide

>  <PUBCHEM_IUPAC_INCHI>
InChI=1S/C7H10O7.7Fe.Mo.H2N.9H2S/c8-4(9)1-2-7(14,6(12)13)3-5(10)11;;;;;;;;;;;;;;;;;;/h14H,1-3H2,(H,8,9)(H,10,11)(H,12,13);;;;;;;;;10*1H2/q;;;;;;;;;-1;;;;;;;;;/p-11

>  <PUBCHEM_IUPAC_INCHIKEY>
OUNCJAISYHCMSR-UHFFFAOYSA-C

>  <PUBCHEM_EXACT_MASS>
1006.315

>  <PUBCHEM_MOLECULAR_FORMULA>
C7H19Fe7MoNO7S9-12

>  <PUBCHEM_MOLECULAR_WEIGHT>
1004.634

>  <PUBCHEM_OPENEYE_CAN_SMILES>
C(CC(CC(=O)[O-])(C(=O)O)O)C(=O)[O-].[NH2-].[SH-].[SH-].[SH-].[SH-].[SH-].[SH-].[SH-].[SH-].[SH-].[Fe].[Fe].[Fe].[Fe].[Fe].[Fe].[Fe].[Mo]

>  <PUBCHEM_OPENEYE_ISO_SMILES>
C(CC(CC(=O)[O-])(C(=O)O)O)C(=O)[O-].[NH2-].[SH-].[SH-].[SH-].[SH-].[SH-].[SH-].[SH-].[SH-].[SH-].[Fe].[Fe].[Fe].[Fe].[Fe].[Fe].[Fe].[Mo]

>  <PUBCHEM_CACTVS_TPSA>
148

>  <PUBCHEM_MONOISOTOPIC_WEIGHT>
1006.315

>  <PUBCHEM_TOTAL_CHARGE>
-12

>  <PUBCHEM_HEAVY_ATOM_COUNT>
32

>  <PUBCHEM_ATOM_DEF_STEREO_COUNT>
0

>  <PUBCHEM_ATOM_UDEF_STEREO_COUNT>
1

>  <PUBCHEM_BOND_DEF_STEREO_COUNT>
0

>  <PUBCHEM_BOND_UDEF_STEREO_COUNT>
0

>  <PUBCHEM_ISOTOPIC_ATOM_COUNT>
0

>  <PUBCHEM_COMPONENT_COUNT>
19

>  <PUBCHEM_CACTVS_TAUTO_COUNT>
2

>  <PUBCHEM_NONSTANDARDBOND>
1  10  6
1  11  6
1  18  6
1  19  6
1  9  6
2  10  6
2  11  6
2  17  6
2  25  6
3  11  6
3  16  6
3  25  6
3  9  6
4  10  6
4  15  6
4  25  6
4  9  6
5  13  6
5  14  6
5  17  6
5  25  6
6  12  6
6  14  6
6  16  6
6  25  6
7  12  6
7  13  6
7  15  6
7  25  6
8  12  6
8  13  6
8  14  6

>  <PUBCHEM_COORDINATE_TYPE>
1
5
255

>  <PUBCHEM_BONDANNOTATIONS>
26  18  3

$$$$
