6438562
 OpenBabel06101807152D

 52 53  0  0  1  0  0  0  0  0999 V2000
    6.9473    1.3997    0.0000 O   0  0  0  0  0  0  0  0  0  0  0  0
    5.1350   -1.4050    0.0000 O   0  0  0  0  0  0  0  0  0  0  0  0
    2.5369    1.0950    0.0000 O   0  0  0  0  0  0  0  0  0  0  0  0
    4.2690    4.0950    0.0000 O   0  0  0  0  0  0  0  0  0  0  0  0
    8.5309    0.5950    0.0000 O   0  0  0  0  0  0  0  0  0  0  0  0
    3.4030   -1.4050    0.0000 O   0  0  0  0  0  0  0  0  0  0  0  0
    6.0010    0.0950    0.0000 C   0  0  3  0  0  0  0  0  0  0  0  0
    5.1350   -0.4050    0.0000 C   0  0  3  0  0  0  0  0  0  0  0  0
    6.0010    1.0950    0.0000 C   0  0  3  0  0  0  0  0  0  0  0  0
    4.2690    0.0950    0.0000 C   0  0  0  0  0  0  0  0  0  0  0  0
    6.9473   -0.2097    0.0000 C   0  0  0  0  0  0  0  0  0  0  0  0
    5.1350    1.5950    0.0000 C   0  0  0  0  0  0  0  0  0  0  0  0
    4.2690    1.0950    0.0000 C   0  0  0  0  0  0  0  0  0  0  0  0
    3.4030    1.5950    0.0000 C   0  0  3  0  0  0  0  0  0  0  0  0
    3.4030    2.5950    0.0000 C   0  0  0  0  0  0  0  0  0  0  0  0
    4.2690    3.0950    0.0000 C   0  0  3  0  0  0  0  0  0  0  0  0
    5.1350    2.5950    0.0000 C   0  0  0  0  0  0  0  0  0  0  0  0
    7.5309    0.5950    0.0000 C   0  0  0  0  0  0  0  0  0  0  0  0
    7.2579   -1.1602    0.0000 C   0  0  0  0  0  0  0  0  0  0  0  0
    6.0010    3.0950    0.0000 C   0  0  0  0  0  0  0  0  0  0  0  0
    4.2690    2.0950    0.0000 C   0  0  0  0  0  0  0  0  0  0  0  0
    4.2690   -1.9050    0.0000 C   0  0  0  0  0  0  0  0  0  0  0  0
    4.2690   -2.9050    0.0000 C   0  0  0  0  0  0  0  0  0  0  0  0
    5.1350   -3.4050    0.0000 C   0  0  0  0  0  0  0  0  0  0  0  0
    3.4030   -3.4050    0.0000 C   0  0  0  0  0  0  0  0  0  0  0  0
    3.4030   -4.4050    0.0000 C   0  0  0  0  0  0  0  0  0  0  0  0
    6.0910   -0.7502    0.0000 H   0  0  0  0  0  0  0  0  0  0  0  0
    5.8711   -0.8300    0.0000 H   0  0  0  0  0  0  0  0  0  0  0  0
    6.0910    1.9402    0.0000 H   0  0  0  0  0  0  0  0  0  0  0  0
    3.6584    0.2027    0.0000 H   0  0  0  0  0  0  0  0  0  0  0  0
    4.0569   -0.4876    0.0000 H   0  0  0  0  0  0  0  0  0  0  0  0
    4.9230    1.0124    0.0000 H   0  0  0  0  0  0  0  0  0  0  0  0
    3.4030    0.7450    0.0000 H   0  0  0  0  0  0  0  0  0  0  0  0
    3.1909    3.1776    0.0000 H   0  0  0  0  0  0  0  0  0  0  0  0
    2.7924    2.4873    0.0000 H   0  0  0  0  0  0  0  0  0  0  0  0
    5.0051    3.5200    0.0000 H   0  0  0  0  0  0  0  0  0  0  0  0
    6.8439   -1.6217    0.0000 H   0  0  0  0  0  0  0  0  0  0  0  0
    7.8646   -1.2881    0.0000 H   0  0  0  0  0  0  0  0  0  0  0  0
    6.3110    2.5581    0.0000 H   0  0  0  0  0  0  0  0  0  0  0  0
    6.5380    3.4050    0.0000 H   0  0  0  0  0  0  0  0  0  0  0  0
    5.6910    3.6319    0.0000 H   0  0  0  0  0  0  0  0  0  0  0  0
    4.8059    2.4050    0.0000 H   0  0  0  0  0  0  0  0  0  0  0  0
    3.7320    2.4050    0.0000 H   0  0  0  0  0  0  0  0  0  0  0  0
    2.0000    1.4050    0.0000 H   0  0  0  0  0  0  0  0  0  0  0  0
    3.7320    4.4050    0.0000 H   0  0  0  0  0  0  0  0  0  0  0  0
    4.8250   -3.9419    0.0000 H   0  0  0  0  0  0  0  0  0  0  0  0
    5.6720   -3.7150    0.0000 H   0  0  0  0  0  0  0  0  0  0  0  0
    5.4450   -2.8681    0.0000 H   0  0  0  0  0  0  0  0  0  0  0  0
    2.8660   -3.0950    0.0000 H   0  0  0  0  0  0  0  0  0  0  0  0
    2.7830   -4.4050    0.0000 H   0  0  0  0  0  0  0  0  0  0  0  0
    3.4030   -5.0250    0.0000 H   0  0  0  0  0  0  0  0  0  0  0  0
    4.0230   -4.4050    0.0000 H   0  0  0  0  0  0  0  0  0  0  0  0
  1  9  1  0  0  0  0
  1 18  1  0  0  0  0
  2  8  1  0  0  0  0
  2 22  1  0  0  0  0
  3 14  1  0  0  0  0
  3 44  1  0  0  0  0
  4 16  1  0  0  0  0
  4 45  1  0  0  0  0
  5 18  2  0  0  0  0
  6 22  2  0  0  0  0
  7  8  1  0  0  0  0
  7  9  1  0  0  0  0
  7 11  1  0  0  0  0
  7 27  1  0  0  0  0
  8 10  1  0  0  0  0
  8 28  1  0  0  0  0
  9 12  1  0  0  0  0
  9 29  1  0  0  0  0
 10 13  1  0  0  0  0
 10 30  1  0  0  0  0
 10 31  1  0  0  0  0
 11 18  1  0  0  0  0
 11 19  2  0  0  0  0
 12 17  2  0  0  0  0
 12 32  1  0  0  0  0
 13 14  1  0  0  0  0
 13 21  2  0  0  0  0
 14 15  1  0  0  0  0
 14 33  1  0  0  0  0
 15 16  1  0  0  0  0
 15 34  1  0  0  0  0
 15 35  1  0  0  0  0
 16 17  1  0  0  0  0
 16 36  1  0  0  0  0
 17 20  1  0  0  0  0
 19 37  1  0  0  0  0
 19 38  1  0  0  0  0
 20 39  1  0  0  0  0
 20 40  1  0  0  0  0
 20 41  1  0  0  0  0
 21 42  1  0  0  0  0
 21 43  1  0  0  0  0
 22 23  1  0  0  0  0
 23 24  1  0  0  0  0
 23 25  2  0  0  0  0
 24 46  1  0  0  0  0
 24 47  1  0  0  0  0
 24 48  1  0  0  0  0
 25 26  1  0  0  0  0
 25 49  1  0  0  0  0
 26 50  1  0  0  0  0
 26 51  1  0  0  0  0
 26 52  1  0  0  0  0
M  END
>  <PUBCHEM_COMPOUND_CID>
6438562

>  <PUBCHEM_COMPOUND_CANONICALIZED>
1

>  <PUBCHEM_CACTVS_COMPLEXITY>
686

>  <PUBCHEM_CACTVS_HBOND_ACCEPTOR>
6

>  <PUBCHEM_CACTVS_HBOND_DONOR>
2

>  <PUBCHEM_CACTVS_ROTATABLE_BOND>
3

>  <PUBCHEM_CACTVS_SUBSKEYS>
AAADceB4OAAAAAAAAAAAAAAAAAAAASAAAAAAAAAAAAAAAACAAAAAGgAACAAADRSggAICCAAABgCIAiDSCAAAAAAgAAAACAEAAEgAFBIAIQACUAAFwAAIMYPKyPCOAAAAAAAAAAAAAAAAAAAAAAAAAAAAAA==

>  <PUBCHEM_IUPAC_OPENEYE_NAME>
[(10E)-7,9-dihydroxy-10-methyl-3,6-dimethylene-2-oxo-4,5,7,8,9,11a-hexahydro-3aH-cyclodeca[b]furan-4-yl] (E)-2-methylbut-2-enoate

>  <PUBCHEM_IUPAC_CAS_NAME>
(E)-2-methyl-2-butenoic acid [(10E)-7,9-dihydroxy-10-methyl-3,6-dimethylene-2-oxo-4,5,7,8,9,11a-hexahydro-3aH-cyclodeca[b]furan-4-yl] ester

>  <PUBCHEM_IUPAC_NAME>
[(10E)-7,9-dihydroxy-10-methyl-3,6-dimethylidene-2-oxo-4,5,7,8,9,11a-hexahydro-3aH-cyclodeca[b]furan-4-yl] (E)-2-methylbut-2-enoate

>  <PUBCHEM_IUPAC_SYSTEMATIC_NAME>
[(10E)-10-methyl-3,6-dimethylidene-7,9-bis(oxidanyl)-2-oxidanylidene-4,5,7,8,9,11a-hexahydro-3aH-cyclodeca[b]furan-4-yl] (E)-2-methylbut-2-enoate

>  <PUBCHEM_IUPAC_TRADITIONAL_NAME>
(E)-2-methylbut-2-enoic acid [(10E)-7,9-dihydroxy-2-keto-10-methyl-3,6-dimethylene-4,5,7,8,9,11a-hexahydro-3aH-cyclodeca[b]furan-4-yl] ester

>  <PUBCHEM_IUPAC_INCHI>
InChI=1S/C20H26O6/c1-6-10(2)19(23)25-16-7-11(3)14(21)9-15(22)12(4)8-17-18(16)13(5)20(24)26-17/h6,8,14-18,21-22H,3,5,7,9H2,1-2,4H3/b10-6+,12-8+

>  <PUBCHEM_IUPAC_INCHIKEY>
SDFKKMBWIQKUOQ-ANGAUAEMSA-N

>  <PUBCHEM_XLOGP3_AA>
1.5

>  <PUBCHEM_EXACT_MASS>
362.173

>  <PUBCHEM_MOLECULAR_FORMULA>
C20H26O6

>  <PUBCHEM_MOLECULAR_WEIGHT>
362.422

>  <PUBCHEM_OPENEYE_CAN_SMILES>
CC=C(C)C(=O)OC1CC(=C)C(CC(C(=CC2C1C(=C)C(=O)O2)C)O)O

>  <PUBCHEM_OPENEYE_ISO_SMILES>
C/C=C(\C)/C(=O)OC1CC(=C)C(CC(/C(=C/C2C1C(=C)C(=O)O2)/C)O)O

>  <PUBCHEM_CACTVS_TPSA>
93.1

>  <PUBCHEM_MONOISOTOPIC_WEIGHT>
362.173

>  <PUBCHEM_TOTAL_CHARGE>
0

>  <PUBCHEM_HEAVY_ATOM_COUNT>
26

>  <PUBCHEM_ATOM_DEF_STEREO_COUNT>
0

>  <PUBCHEM_ATOM_UDEF_STEREO_COUNT>
5

>  <PUBCHEM_BOND_DEF_STEREO_COUNT>
2

>  <PUBCHEM_BOND_UDEF_STEREO_COUNT>
0

>  <PUBCHEM_ISOTOPIC_ATOM_COUNT>
0

>  <PUBCHEM_COMPONENT_COUNT>
1

>  <PUBCHEM_CACTVS_TAUTO_COUNT>
1

>  <PUBCHEM_COORDINATE_TYPE>
1
5
255

>  <PUBCHEM_BONDANNOTATIONS>
14  33  3
16  36  3
7  27  3
8  28  3
9  29  3

$$$$
