6440310
 OpenBabel06101807152D

 96 95  0  0  0  0  0  0  0  0999 V2000
   18.4545   -5.7500    0.0000 C   0  0  0  0  0  0  0  0  0  0  0  0
    4.5981    4.2500    0.0000 C   0  0  0  0  0  0  0  0  0  0  0  0
   19.3205   -6.2500    0.0000 C   0  0  0  0  0  0  0  0  0  0  0  0
    3.7320    4.7500    0.0000 C   0  0  0  0  0  0  0  0  0  0  0  0
   17.5885   -6.2500    0.0000 C   0  0  0  0  0  0  0  0  0  0  0  0
    4.5981    3.2500    0.0000 C   0  0  0  0  0  0  0  0  0  0  0  0
   20.1865   -5.7500    0.0000 C   0  0  0  0  0  0  0  0  0  0  0  0
    3.7320    5.7500    0.0000 C   0  0  0  0  0  0  0  0  0  0  0  0
   21.0526   -6.2500    0.0000 C   0  0  0  0  0  0  0  0  0  0  0  0
    2.8660    6.2500    0.0000 C   0  0  0  0  0  0  0  0  0  0  0  0
   17.5885   -7.2500    0.0000 C   0  0  0  0  0  0  0  0  0  0  0  0
    3.7320    2.7500    0.0000 C   0  0  0  0  0  0  0  0  0  0  0  0
   16.7224   -5.7500    0.0000 C   0  0  0  0  0  0  0  0  0  0  0  0
    5.4641    2.7500    0.0000 C   0  0  0  0  0  0  0  0  0  0  0  0
   21.9186   -5.7500    0.0000 C   0  0  0  0  0  0  0  0  0  0  0  0
   21.0526   -7.2500    0.0000 C   0  0  0  0  0  0  0  0  0  0  0  0
    2.8660    7.2500    0.0000 C   0  0  0  0  0  0  0  0  0  0  0  0
    2.0000    5.7500    0.0000 C   0  0  0  0  0  0  0  0  0  0  0  0
   15.8564   -6.2500    0.0000 C   0  0  0  0  0  0  0  0  0  0  0  0
    5.4641    1.7500    0.0000 C   0  0  0  0  0  0  0  0  0  0  0  0
   14.9904   -5.7500    0.0000 C   0  0  0  0  0  0  0  0  0  0  0  0
    6.3301    1.2500    0.0000 C   0  0  0  0  0  0  0  0  0  0  0  0
   14.1244   -6.2500    0.0000 C   0  0  0  0  0  0  0  0  0  0  0  0
    6.3301    0.2500    0.0000 C   0  0  0  0  0  0  0  0  0  0  0  0
   14.1244   -7.2500    0.0000 C   0  0  0  0  0  0  0  0  0  0  0  0
    5.4641   -0.2500    0.0000 C   0  0  0  0  0  0  0  0  0  0  0  0
   13.2583   -5.7500    0.0000 C   0  0  0  0  0  0  0  0  0  0  0  0
    7.1962   -0.2500    0.0000 C   0  0  0  0  0  0  0  0  0  0  0  0
   12.3923   -6.2500    0.0000 C   0  0  0  0  0  0  0  0  0  0  0  0
    7.1962   -1.2500    0.0000 C   0  0  0  0  0  0  0  0  0  0  0  0
   11.5263   -5.7500    0.0000 C   0  0  0  0  0  0  0  0  0  0  0  0
    8.0622   -1.7500    0.0000 C   0  0  0  0  0  0  0  0  0  0  0  0
   10.6603   -6.2500    0.0000 C   0  0  0  0  0  0  0  0  0  0  0  0
    8.0622   -2.7500    0.0000 C   0  0  0  0  0  0  0  0  0  0  0  0
    9.7942   -5.7500    0.0000 C   0  0  0  0  0  0  0  0  0  0  0  0
    8.9282   -3.2500    0.0000 C   0  0  0  0  0  0  0  0  0  0  0  0
   10.6603   -7.2500    0.0000 C   0  0  0  0  0  0  0  0  0  0  0  0
    7.1962   -3.2500    0.0000 C   0  0  0  0  0  0  0  0  0  0  0  0
    9.7942   -4.7500    0.0000 C   0  0  0  0  0  0  0  0  0  0  0  0
    8.9282   -4.2500    0.0000 C   0  0  0  0  0  0  0  0  0  0  0  0
   18.8530   -5.2750    0.0000 H   0  0  0  0  0  0  0  0  0  0  0  0
   18.0560   -5.2750    0.0000 H   0  0  0  0  0  0  0  0  0  0  0  0
    5.2087    4.1423    0.0000 H   0  0  0  0  0  0  0  0  0  0  0  0
    4.8101    4.8326    0.0000 H   0  0  0  0  0  0  0  0  0  0  0  0
   18.9220   -6.7250    0.0000 H   0  0  0  0  0  0  0  0  0  0  0  0
   19.7190   -6.7250    0.0000 H   0  0  0  0  0  0  0  0  0  0  0  0
    3.1215    4.8577    0.0000 H   0  0  0  0  0  0  0  0  0  0  0  0
    3.5200    4.1674    0.0000 H   0  0  0  0  0  0  0  0  0  0  0  0
   20.1865   -5.1300    0.0000 H   0  0  0  0  0  0  0  0  0  0  0  0
    4.2690    6.0600    0.0000 H   0  0  0  0  0  0  0  0  0  0  0  0
   16.9685   -7.2500    0.0000 H   0  0  0  0  0  0  0  0  0  0  0  0
   17.5885   -7.8700    0.0000 H   0  0  0  0  0  0  0  0  0  0  0  0
   18.2085   -7.2500    0.0000 H   0  0  0  0  0  0  0  0  0  0  0  0
    3.4220    3.2869    0.0000 H   0  0  0  0  0  0  0  0  0  0  0  0
    3.1951    2.4400    0.0000 H   0  0  0  0  0  0  0  0  0  0  0  0
    4.0420    2.2131    0.0000 H   0  0  0  0  0  0  0  0  0  0  0  0
   16.7224   -5.1300    0.0000 H   0  0  0  0  0  0  0  0  0  0  0  0
    6.0010    3.0600    0.0000 H   0  0  0  0  0  0  0  0  0  0  0  0
   20.4326   -7.2500    0.0000 H   0  0  0  0  0  0  0  0  0  0  0  0
   21.0526   -7.8700    0.0000 H   0  0  0  0  0  0  0  0  0  0  0  0
   22.2286   -6.2869    0.0000 H   0  0  0  0  0  0  0  0  0  0  0  0
   22.4555   -5.4400    0.0000 H   0  0  0  0  0  0  0  0  0  0  0  0
   21.6086   -5.2131    0.0000 H   0  0  0  0  0  0  0  0  0  0  0  0
   21.6726   -7.2500    0.0000 H   0  0  0  0  0  0  0  0  0  0  0  0
    1.6900    6.2869    0.0000 H   0  0  0  0  0  0  0  0  0  0  0  0
    1.4631    5.4400    0.0000 H   0  0  0  0  0  0  0  0  0  0  0  0
    2.3100    5.2131    0.0000 H   0  0  0  0  0  0  0  0  0  0  0  0
    3.4860    7.2500    0.0000 H   0  0  0  0  0  0  0  0  0  0  0  0
    2.8660    7.8700    0.0000 H   0  0  0  0  0  0  0  0  0  0  0  0
    2.2460    7.2500    0.0000 H   0  0  0  0  0  0  0  0  0  0  0  0
   15.8564   -6.8700    0.0000 H   0  0  0  0  0  0  0  0  0  0  0  0
    4.9272    1.4400    0.0000 H   0  0  0  0  0  0  0  0  0  0  0  0
   14.9904   -5.1300    0.0000 H   0  0  0  0  0  0  0  0  0  0  0  0
    6.8671    1.5600    0.0000 H   0  0  0  0  0  0  0  0  0  0  0  0
   13.5044   -7.2500    0.0000 H   0  0  0  0  0  0  0  0  0  0  0  0
   14.1244   -7.8700    0.0000 H   0  0  0  0  0  0  0  0  0  0  0  0
   14.7444   -7.2500    0.0000 H   0  0  0  0  0  0  0  0  0  0  0  0
    5.1541    0.2869    0.0000 H   0  0  0  0  0  0  0  0  0  0  0  0
    4.9272   -0.5600    0.0000 H   0  0  0  0  0  0  0  0  0  0  0  0
    5.7741   -0.7869    0.0000 H   0  0  0  0  0  0  0  0  0  0  0  0
   13.2583   -5.1300    0.0000 H   0  0  0  0  0  0  0  0  0  0  0  0
    7.7331    0.0600    0.0000 H   0  0  0  0  0  0  0  0  0  0  0  0
   12.3923   -6.8700    0.0000 H   0  0  0  0  0  0  0  0  0  0  0  0
    6.6592   -1.5600    0.0000 H   0  0  0  0  0  0  0  0  0  0  0  0
   11.5263   -5.1300    0.0000 H   0  0  0  0  0  0  0  0  0  0  0  0
    8.5991   -1.4400    0.0000 H   0  0  0  0  0  0  0  0  0  0  0  0
    9.2573   -6.0600    0.0000 H   0  0  0  0  0  0  0  0  0  0  0  0
    9.4651   -2.9400    0.0000 H   0  0  0  0  0  0  0  0  0  0  0  0
   10.0403   -7.2500    0.0000 H   0  0  0  0  0  0  0  0  0  0  0  0
   10.6603   -7.8700    0.0000 H   0  0  0  0  0  0  0  0  0  0  0  0
   11.2803   -7.2500    0.0000 H   0  0  0  0  0  0  0  0  0  0  0  0
    6.8862   -2.7131    0.0000 H   0  0  0  0  0  0  0  0  0  0  0  0
    6.6592   -3.5600    0.0000 H   0  0  0  0  0  0  0  0  0  0  0  0
    7.5062   -3.7869    0.0000 H   0  0  0  0  0  0  0  0  0  0  0  0
   10.3312   -4.4400    0.0000 H   0  0  0  0  0  0  0  0  0  0  0  0
    8.3913   -4.5600    0.0000 H   0  0  0  0  0  0  0  0  0  0  0  0
  1  3  1  0  0  0  0
  1  5  1  0  0  0  0
  1 41  1  0  0  0  0
  1 42  1  0  0  0  0
  2  4  1  0  0  0  0
  2  6  1  0  0  0  0
  2 43  1  0  0  0  0
  2 44  1  0  0  0  0
  3  7  1  0  0  0  0
  3 45  1  0  0  0  0
  3 46  1  0  0  0  0
  4  8  1  0  0  0  0
  4 47  1  0  0  0  0
  4 48  1  0  0  0  0
  5 11  1  0  0  0  0
  5 13  2  0  0  0  0
  6 12  1  0  0  0  0
  6 14  2  0  0  0  0
  7  9  2  0  0  0  0
  7 49  1  0  0  0  0
  8 10  2  0  0  0  0
  8 50  1  0  0  0  0
  9 15  1  0  0  0  0
  9 16  1  0  0  0  0
 10 17  1  0  0  0  0
 10 18  1  0  0  0  0
 11 51  1  0  0  0  0
 11 52  1  0  0  0  0
 11 53  1  0  0  0  0
 12 54  1  0  0  0  0
 12 55  1  0  0  0  0
 12 56  1  0  0  0  0
 13 19  1  0  0  0  0
 13 57  1  0  0  0  0
 14 20  1  0  0  0  0
 14 58  1  0  0  0  0
 15 61  1  0  0  0  0
 15 62  1  0  0  0  0
 15 63  1  0  0  0  0
 16 59  1  0  0  0  0
 16 60  1  0  0  0  0
 16 64  1  0  0  0  0
 17 68  1  0  0  0  0
 17 69  1  0  0  0  0
 17 70  1  0  0  0  0
 18 65  1  0  0  0  0
 18 66  1  0  0  0  0
 18 67  1  0  0  0  0
 19 21  2  0  0  0  0
 19 71  1  0  0  0  0
 20 22  2  0  0  0  0
 20 72  1  0  0  0  0
 21 23  1  0  0  0  0
 21 73  1  0  0  0  0
 22 24  1  0  0  0  0
 22 74  1  0  0  0  0
 23 25  1  0  0  0  0
 23 27  2  0  0  0  0
 24 26  1  0  0  0  0
 24 28  2  0  0  0  0
 25 75  1  0  0  0  0
 25 76  1  0  0  0  0
 25 77  1  0  0  0  0
 26 78  1  0  0  0  0
 26 79  1  0  0  0  0
 26 80  1  0  0  0  0
 27 29  1  0  0  0  0
 27 81  1  0  0  0  0
 28 30  1  0  0  0  0
 28 82  1  0  0  0  0
 29 31  2  0  0  0  0
 29 83  1  0  0  0  0
 30 32  2  0  0  0  0
 30 84  1  0  0  0  0
 31 33  1  0  0  0  0
 31 85  1  0  0  0  0
 32 34  1  0  0  0  0
 32 86  1  0  0  0  0
 33 35  2  0  0  0  0
 33 37  1  0  0  0  0
 34 36  2  0  0  0  0
 34 38  1  0  0  0  0
 35 39  1  0  0  0  0
 35 87  1  0  0  0  0
 36 40  1  0  0  0  0
 36 88  1  0  0  0  0
 37 89  1  0  0  0  0
 37 90  1  0  0  0  0
 37 91  1  0  0  0  0
 38 92  1  0  0  0  0
 38 93  1  0  0  0  0
 38 94  1  0  0  0  0
 39 40  2  0  0  0  0
 39 95  1  0  0  0  0
 40 96  1  0  0  0  0
M  END
>  <PUBCHEM_COMPOUND_CID>
6440310

>  <PUBCHEM_COMPOUND_CANONICALIZED>
1

>  <PUBCHEM_CACTVS_COMPLEXITY>
1050

>  <PUBCHEM_CACTVS_HBOND_ACCEPTOR>
0

>  <PUBCHEM_CACTVS_HBOND_DONOR>
0

>  <PUBCHEM_CACTVS_ROTATABLE_BOND>
16

>  <PUBCHEM_CACTVS_SUBSKEYS>
AAADcfB8AAAAAAAAAAAAAAAAAAAAAAAAAAAAAAAAAAAAAAAAAAAAGAAAAAAADACAAAACAAAAAACAAiBCAAAAAAAgAAAICAAAAAgIAAIAAQAAAAAAgAAIgAIAAAAAAAAAAAAAAAAAAAAAAAAAAAAAAAAAAA==

>  <PUBCHEM_IUPAC_OPENEYE_NAME>
(6E,8E,10E,12E,14Z,16E,18E,20E,22E,24E,26E)-2,6,10,14,19,23,27,31-octamethyldotriaconta-2,6,8,10,12,14,16,18,20,22,24,26,30-tridecaene

>  <PUBCHEM_IUPAC_CAS_NAME>
(6E,8E,10E,12E,14Z,16E,18E,20E,22E,24E,26E)-2,6,10,14,19,23,27,31-octamethyldotriaconta-2,6,8,10,12,14,16,18,20,22,24,26,30-tridecaene

>  <PUBCHEM_IUPAC_NAME>
(6E,8E,10E,12E,14Z,16E,18E,20E,22E,24E,26E)-2,6,10,14,19,23,27,31-octamethyldotriaconta-2,6,8,10,12,14,16,18,20,22,24,26,30-tridecaene

>  <PUBCHEM_IUPAC_SYSTEMATIC_NAME>
(6E,8E,10E,12E,14Z,16E,18E,20E,22E,24E,26E)-2,6,10,14,19,23,27,31-octamethyldotriaconta-2,6,8,10,12,14,16,18,20,22,24,26,30-tridecaene

>  <PUBCHEM_IUPAC_TRADITIONAL_NAME>
(6E,8E,10E,12E,14Z,16E,18E,20E,22E,24E,26E)-2,6,10,14,19,23,27,31-octamethyldotriaconta-2,6,8,10,12,14,16,18,20,22,24,26,30-tridecaene

>  <PUBCHEM_IUPAC_INCHI>
InChI=1S/C40H56/c1-33(2)19-13-23-37(7)27-17-31-39(9)29-15-25-35(5)21-11-12-22-36(6)26-16-30-40(10)32-18-28-38(8)24-14-20-34(3)4/h11-12,15-22,25-32H,13-14,23-24H2,1-10H3/b12-11+,25-15+,26-16+,31-17+,32-18+,35-21-,36-22+,37-27+,38-28+,39-29+,40-30+

>  <PUBCHEM_IUPAC_INCHIKEY>
OAIJSZIZWZSQBC-FZXCKFLSSA-N

>  <PUBCHEM_XLOGP3_AA>
15.6

>  <PUBCHEM_EXACT_MASS>
536.438

>  <PUBCHEM_MOLECULAR_FORMULA>
C40H56

>  <PUBCHEM_MOLECULAR_WEIGHT>
536.888

>  <PUBCHEM_OPENEYE_CAN_SMILES>
CC(=CCCC(=CC=CC(=CC=CC(=CC=CC=C(C)C=CC=C(C)C=CC=C(C)CCC=C(C)C)C)C)C)C

>  <PUBCHEM_OPENEYE_ISO_SMILES>
CC(=CCC/C(=C/C=C/C(=C/C=C/C(=C/C=C/C=C(/C)\C=C\C=C(/C)\C=C\C=C(/C)\CCC=C(C)C)/C)/C)/C)C

>  <PUBCHEM_CACTVS_TPSA>
0

>  <PUBCHEM_MONOISOTOPIC_WEIGHT>
536.438

>  <PUBCHEM_TOTAL_CHARGE>
0

>  <PUBCHEM_HEAVY_ATOM_COUNT>
40

>  <PUBCHEM_ATOM_DEF_STEREO_COUNT>
0

>  <PUBCHEM_ATOM_UDEF_STEREO_COUNT>
0

>  <PUBCHEM_BOND_DEF_STEREO_COUNT>
11

>  <PUBCHEM_BOND_UDEF_STEREO_COUNT>
0

>  <PUBCHEM_ISOTOPIC_ATOM_COUNT>
0

>  <PUBCHEM_COMPONENT_COUNT>
1

>  <PUBCHEM_CACTVS_TAUTO_COUNT>
1

>  <PUBCHEM_COORDINATE_TYPE>
1
5
255

$$$$
