6440999
 OpenBabel06101807152D

 90 93  0  0  1  0  0  0  0  0999 V2000
    5.1350   -4.0863    0.0000 O   0  0  0  0  0  0  0  0  0  0  0  0
   12.4971    0.8645    0.0000 O   0  0  0  0  0  0  0  0  0  0  0  0
    6.8671   -4.0863    0.0000 O   0  0  0  0  0  0  0  0  0  0  0  0
    5.1350   -7.0863    0.0000 O   0  0  0  0  0  0  0  0  0  0  0  0
    3.4030   -6.0863    0.0000 O   0  0  0  0  0  0  0  0  0  0  0  0
   14.1247    1.4569    0.0000 O   0  0  0  0  0  0  0  0  0  0  0  0
    6.8671   -6.0863    0.0000 O   0  0  0  0  0  0  0  0  0  0  0  0
   11.5535   -1.6073    0.0000 O   0  0  0  0  0  0  0  0  0  0  0  0
   13.5232   -1.9546    0.0000 O   0  0  0  0  0  0  0  0  0  0  0  0
   14.8087   -0.4225    0.0000 O   0  0  0  0  0  0  0  0  0  0  0  0
   10.2267   -0.4939    0.0000 O   0  0  0  0  0  0  0  0  0  0  0  0
    6.0010   -2.5863    0.0000 O   0  0  0  0  0  0  0  0  0  0  0  0
    2.5369   -4.5863    0.0000 O   0  0  0  0  0  0  0  0  0  0  0  0
    8.8999    0.6194    0.0000 O   0  0  0  0  0  0  0  0  0  0  0  0
    6.0010    0.4137    0.0000 O   0  0  0  0  0  0  0  0  0  0  0  0
    7.2091    0.8533    0.0000 O   0  0  0  0  0  0  0  0  0  0  0  0
   13.0574    6.9214    0.0000 O   0  0  0  0  0  0  0  0  0  0  0  0
    5.1350   -6.0863    0.0000 C   0  0  1  0  0  0  0  0  0  0  0  0
    4.2690   -5.5863    0.0000 C   0  0  1  0  0  0  0  0  0  0  0  0
    6.0010   -5.5863    0.0000 C   0  0  2  0  0  0  0  0  0  0  0  0
   12.1963   -0.8412    0.0000 C   0  0  1  0  0  0  0  0  0  0  0  0
    4.2690   -4.5863    0.0000 C   0  0  1  0  0  0  0  0  0  0  0  0
   13.1811   -1.0149    0.0000 C   0  0  1  0  0  0  0  0  0  0  0  0
   11.8543    0.0984    0.0000 C   0  0  1  0  0  0  0  0  0  0  0  0
    6.0010   -4.5863    0.0000 C   0  0  1  0  0  0  0  0  0  0  0  0
   13.8239   -0.2488    0.0000 C   0  0  2  0  0  0  0  0  0  0  0  0
   13.4819    0.6908    0.0000 C   0  0  1  0  0  0  0  0  0  0  0  0
   10.8695    0.2721    0.0000 C   0  0  0  0  0  0  0  0  0  0  0  0
    6.8671   -3.0863    0.0000 C   0  0  2  0  0  0  0  0  0  0  0  0
    7.7331   -1.5863    0.0000 C   0  0  3  0  0  0  0  0  0  0  0  0
    3.4030   -4.0863    0.0000 C   0  0  0  0  0  0  0  0  0  0  0  0
    7.7331   -2.5863    0.0000 C   0  0  0  0  0  0  0  0  0  0  0  0
    8.5991   -1.0863    0.0000 C   0  0  0  0  0  0  0  0  0  0  0  0
    6.8671   -1.0863    0.0000 C   0  0  0  0  0  0  0  0  0  0  0  0
    9.2419   -0.3203    0.0000 C   0  0  0  0  0  0  0  0  0  0  0  0
   13.7827    2.3966    0.0000 C   0  0  0  0  0  0  0  0  0  0  0  0
    6.0010   -1.5863    0.0000 C   0  0  0  0  0  0  0  0  0  0  0  0
    8.5991   -3.0863    0.0000 C   0  0  0  0  0  0  0  0  0  0  0  0
   14.4255    3.1626    0.0000 C   0  0  0  0  0  0  0  0  0  0  0  0
    6.8671   -0.0863    0.0000 C   0  0  0  0  0  0  0  0  0  0  0  0
    9.4651   -2.5863    0.0000 C   0  0  0  0  0  0  0  0  0  0  0  0
   14.0834    4.1023    0.0000 C   0  0  0  0  0  0  0  0  0  0  0  0
   14.7262    4.8684    0.0000 C   0  0  0  0  0  0  0  0  0  0  0  0
   13.0986    4.2760    0.0000 C   0  0  0  0  0  0  0  0  0  0  0  0
    6.0010    1.4137    0.0000 C   0  0  0  0  0  0  0  0  0  0  0  0
   14.3842    5.8081    0.0000 C   0  0  0  0  0  0  0  0  0  0  0  0
   12.7566    5.2157    0.0000 C   0  0  0  0  0  0  0  0  0  0  0  0
   13.3994    5.9817    0.0000 C   0  0  0  0  0  0  0  0  0  0  0  0
    5.6720   -6.3963    0.0000 H   0  0  0  0  0  0  0  0  0  0  0  0
    4.2690   -6.2063    0.0000 H   0  0  0  0  0  0  0  0  0  0  0  0
    6.5380   -5.2763    0.0000 H   0  0  0  0  0  0  0  0  0  0  0  0
   11.5857   -0.7336    0.0000 H   0  0  0  0  0  0  0  0  0  0  0  0
    4.2690   -3.9663    0.0000 H   0  0  0  0  0  0  0  0  0  0  0  0
   13.7917   -1.1226    0.0000 H   0  0  0  0  0  0  0  0  0  0  0  0
   11.6423    0.6811    0.0000 H   0  0  0  0  0  0  0  0  0  0  0  0
    6.0010   -3.9663    0.0000 H   0  0  0  0  0  0  0  0  0  0  0  0
   14.2224    0.2261    0.0000 H   0  0  0  0  0  0  0  0  0  0  0  0
   13.2698    1.2734    0.0000 H   0  0  0  0  0  0  0  0  0  0  0  0
   11.0815    0.8547    0.0000 H   0  0  0  0  0  0  0  0  0  0  0  0
   10.3326    0.5821    0.0000 H   0  0  0  0  0  0  0  0  0  0  0  0
    7.4040   -3.3963    0.0000 H   0  0  0  0  0  0  0  0  0  0  0  0
    8.4692   -2.0113    0.0000 H   0  0  0  0  0  0  0  0  0  0  0  0
    3.8015   -3.6114    0.0000 H   0  0  0  0  0  0  0  0  0  0  0  0
    3.0044   -3.6114    0.0000 H   0  0  0  0  0  0  0  0  0  0  0  0
    8.6711   -1.7022    0.0000 H   0  0  0  0  0  0  0  0  0  0  0  0
    8.2006   -0.6114    0.0000 H   0  0  0  0  0  0  0  0  0  0  0  0
    4.5981   -7.3963    0.0000 H   0  0  0  0  0  0  0  0  0  0  0  0
    3.4030   -6.7063    0.0000 H   0  0  0  0  0  0  0  0  0  0  0  0
    6.8671   -6.7063    0.0000 H   0  0  0  0  0  0  0  0  0  0  0  0
   11.7656   -2.1899    0.0000 H   0  0  0  0  0  0  0  0  0  0  0  0
   14.1337   -2.0622    0.0000 H   0  0  0  0  0  0  0  0  0  0  0  0
   15.2073    0.0525    0.0000 H   0  0  0  0  0  0  0  0  0  0  0  0
   13.3841    2.8715    0.0000 H   0  0  0  0  0  0  0  0  0  0  0  0
   13.2457    2.0866    0.0000 H   0  0  0  0  0  0  0  0  0  0  0  0
    5.4641   -1.2763    0.0000 H   0  0  0  0  0  0  0  0  0  0  0  0
    8.5991   -3.7063    0.0000 H   0  0  0  0  0  0  0  0  0  0  0  0
    2.0000   -4.2763    0.0000 H   0  0  0  0  0  0  0  0  0  0  0  0
   14.8240    2.6877    0.0000 H   0  0  0  0  0  0  0  0  0  0  0  0
   14.9624    3.4726    0.0000 H   0  0  0  0  0  0  0  0  0  0  0  0
    9.7751   -3.1233    0.0000 H   0  0  0  0  0  0  0  0  0  0  0  0
   10.0021   -2.2763    0.0000 H   0  0  0  0  0  0  0  0  0  0  0  0
    9.1551   -2.0494    0.0000 H   0  0  0  0  0  0  0  0  0  0  0  0
   15.3368    4.7607    0.0000 H   0  0  0  0  0  0  0  0  0  0  0  0
   12.7001    3.8010    0.0000 H   0  0  0  0  0  0  0  0  0  0  0  0
    6.6210    1.4137    0.0000 H   0  0  0  0  0  0  0  0  0  0  0  0
    6.0010    2.0337    0.0000 H   0  0  0  0  0  0  0  0  0  0  0  0
    5.3810    1.4137    0.0000 H   0  0  0  0  0  0  0  0  0  0  0  0
   14.7827    6.2830    0.0000 H   0  0  0  0  0  0  0  0  0  0  0  0
   12.1460    5.3233    0.0000 H   0  0  0  0  0  0  0  0  0  0  0  0
   13.4559    7.3963    0.0000 H   0  0  0  0  0  0  0  0  0  0  0  0
  1 22  1  0  0  0  0
  1 25  1  0  0  0  0
  2 24  1  0  0  0  0
  2 27  1  0  0  0  0
  4 67  1  0  0  0  0
  5 68  1  0  0  0  0
  6 36  1  0  0  0  0
  7 69  1  0  0  0  0
  8 70  1  0  0  0  0
  9 71  1  0  0  0  0
 10 72  1  0  0  0  0
 11 28  1  0  0  0  0
 11 35  1  0  0  0  0
 12 29  1  0  0  0  0
 12 37  1  0  0  0  0
 13 31  1  0  0  0  0
 13 77  1  0  0  0  0
 14 35  2  0  0  0  0
 15 40  1  0  0  0  0
 15 45  1  0  0  0  0
 16 40  2  0  0  0  0
 17 48  1  0  0  0  0
 17 90  1  0  0  0  0
 18  4  1  0  0  0  0
 18 19  1  6  0  0  0
 18 49  1  0  0  0  0
 19  5  1  0  0  0  0
 19 22  1  1  0  0  0
 19 50  1  0  0  0  0
 20  7  1  0  0  0  0
 20 18  1  1  0  0  0
 20 51  1  0  0  0  0
 21  8  1  0  0  0  0
 21 23  1  1  0  0  0
 21 52  1  0  0  0  0
 22 31  1  0  0  0  0
 22 53  1  6  0  0  0
 23  9  1  0  0  0  0
 23 26  1  1  0  0  0
 23 54  1  0  0  0  0
 24 21  1  6  0  0  0
 24 28  1  0  0  0  0
 24 55  1  0  0  0  0
 25  3  1  0  0  0  0
 25 20  1  6  0  0  0
 25 56  1  0  0  0  0
 26 10  1  0  0  0  0
 26 27  1  6  0  0  0
 26 57  1  0  0  0  0
 27  6  1  0  0  0  0
 27 58  1  6  0  0  0
 28 59  1  0  0  0  0
 28 60  1  0  0  0  0
 29  3  1  0  0  0  0
 29 32  1  0  0  0  0
 29 61  1  1  0  0  0
 30 32  1  0  0  0  0
 30 33  1  0  0  0  0
 30 34  1  0  0  0  0
 30 62  1  0  0  0  0
 31 63  1  0  0  0  0
 31 64  1  0  0  0  0
 32 38  2  0  0  0  0
 33 35  1  0  0  0  0
 33 65  1  0  0  0  0
 33 66  1  0  0  0  0
 34 37  2  0  0  0  0
 34 40  1  0  0  0  0
 36 39  1  0  0  0  0
 36 73  1  0  0  0  0
 36 74  1  0  0  0  0
 37 75  1  0  0  0  0
 38 41  1  0  0  0  0
 38 76  1  0  0  0  0
 39 42  1  0  0  0  0
 39 78  1  0  0  0  0
 39 79  1  0  0  0  0
 41 80  1  0  0  0  0
 41 81  1  0  0  0  0
 41 82  1  0  0  0  0
 42 43  2  0  0  0  0
 42 44  1  0  0  0  0
 43 46  1  0  0  0  0
 43 83  1  0  0  0  0
 44 47  2  0  0  0  0
 44 84  1  0  0  0  0
 45 85  1  0  0  0  0
 45 86  1  0  0  0  0
 45 87  1  0  0  0  0
 46 48  2  0  0  0  0
 46 88  1  0  0  0  0
 47 48  1  0  0  0  0
 47 89  1  0  0  0  0
M  END
>  <PUBCHEM_COMPOUND_CID>
6440999

>  <PUBCHEM_COMPOUND_CANONICALIZED>
1

>  <PUBCHEM_CACTVS_COMPLEXITY>
1120

>  <PUBCHEM_CACTVS_HBOND_ACCEPTOR>
17

>  <PUBCHEM_CACTVS_HBOND_DONOR>
8

>  <PUBCHEM_CACTVS_ROTATABLE_BOND>
14

>  <PUBCHEM_CACTVS_SUBSKEYS>
AAADcfB4PgAAAAAAAAAAAAAAAAAAAAAAAAA0SIEAAAAAAAABAAAAGgAACAAADRSwmAMyDoAABgCIAiDSCAACCAAgIAAIiAEGCMgZNjKCMRKicAAlwBEPuIfI5qwOIAAAAAAAAABAAAAAAAAAAAAAAAAAAA==

>  <PUBCHEM_IUPAC_OPENEYE_NAME>
methyl (5E,6S)-5-ethylidene-4-[2-oxo-2-[[(2R,3S,4S,5R,6R)-3,4,5-trihydroxy-6-[2-(4-hydroxyphenyl)ethoxy]tetrahydropyran-2-yl]methoxy]ethyl]-6-[(2S,3R,4S,5S,6R)-3,4,5-trihydroxy-6-(hydroxymethyl)tetrahydropyran-2-yl]oxy-4H-pyran-3-carboxylate

>  <PUBCHEM_IUPAC_CAS_NAME>
(5E,6S)-5-ethylidene-4-[2-oxo-2-[[(2R,3S,4S,5R,6R)-3,4,5-trihydroxy-6-[2-(4-hydroxyphenyl)ethoxy]-2-oxanyl]methoxy]ethyl]-6-[[(2S,3R,4S,5S,6R)-3,4,5-trihydroxy-6-(hydroxymethyl)-2-oxanyl]oxy]-4H-pyran-3-carboxylic acid methyl ester

>  <PUBCHEM_IUPAC_NAME>
methyl (5E,6S)-5-ethylidene-4-[2-oxo-2-[[(2R,3S,4S,5R,6R)-3,4,5-trihydroxy-6-[2-(4-hydroxyphenyl)ethoxy]oxan-2-yl]methoxy]ethyl]-6-[(2S,3R,4S,5S,6R)-3,4,5-trihydroxy-6-(hydroxymethyl)oxan-2-yl]oxy-4H-pyran-3-carboxylate

>  <PUBCHEM_IUPAC_SYSTEMATIC_NAME>
methyl (5E,6S)-5-ethylidene-6-[(2S,3R,4S,5S,6R)-6-(hydroxymethyl)-3,4,5-tris(oxidanyl)oxan-2-yl]oxy-4-[2-[[(2R,3S,4S,5R,6R)-6-[2-(4-hydroxyphenyl)ethoxy]-3,4,5-tris(oxidanyl)oxan-2-yl]methoxy]-2-oxidanylidene-ethyl]-4H-pyran-3-carboxylate

>  <PUBCHEM_IUPAC_TRADITIONAL_NAME>
(5E,6S)-5-ethylidene-4-[2-keto-2-[[(2R,3S,4S,5R,6R)-3,4,5-trihydroxy-6-[2-(4-hydroxyphenyl)ethoxy]tetrahydropyran-2-yl]methoxy]ethyl]-6-[(2S,3R,4S,5S,6R)-3,4,5-trihydroxy-6-methylol-tetrahydropyran-2-yl]oxy-4H-pyran-3-carboxylic acid methyl ester

>  <PUBCHEM_IUPAC_INCHI>
InChI=1S/C31H42O17/c1-3-16-17(18(28(41)42-2)12-45-29(16)48-31-27(40)24(37)22(35)19(11-32)46-31)10-21(34)44-13-20-23(36)25(38)26(39)30(47-20)43-9-8-14-4-6-15(33)7-5-14/h3-7,12,17,19-20,22-27,29-33,35-40H,8-11,13H2,1-2H3/b16-3+/t17?,19-,20-,22-,23-,24+,25+,26-,27-,29+,30-,31+/m1/s1

>  <PUBCHEM_IUPAC_INCHIKEY>
STKUCSFEBXPTAY-YTECAPLWSA-N

>  <PUBCHEM_XLOGP3_AA>
-2.2

>  <PUBCHEM_EXACT_MASS>
686.242

>  <PUBCHEM_MOLECULAR_FORMULA>
C31H42O17

>  <PUBCHEM_MOLECULAR_WEIGHT>
686.66

>  <PUBCHEM_OPENEYE_CAN_SMILES>
CC=C1C(C(=COC1OC2C(C(C(C(O2)CO)O)O)O)C(=O)OC)CC(=O)OCC3C(C(C(C(O3)OCCC4=CC=C(C=C4)O)O)O)O

>  <PUBCHEM_OPENEYE_ISO_SMILES>
C/C=C\1/[C@@H](OC=C(C1CC(=O)OC[C@@H]2[C@H]([C@@H]([C@H]([C@@H](O2)OCCC3=CC=C(C=C3)O)O)O)O)C(=O)OC)O[C@H]4[C@@H]([C@H]([C@@H]([C@H](O4)CO)O)O)O

>  <PUBCHEM_CACTVS_TPSA>
261

>  <PUBCHEM_MONOISOTOPIC_WEIGHT>
686.242

>  <PUBCHEM_TOTAL_CHARGE>
0

>  <PUBCHEM_HEAVY_ATOM_COUNT>
48

>  <PUBCHEM_ATOM_DEF_STEREO_COUNT>
11

>  <PUBCHEM_ATOM_UDEF_STEREO_COUNT>
1

>  <PUBCHEM_BOND_DEF_STEREO_COUNT>
1

>  <PUBCHEM_BOND_UDEF_STEREO_COUNT>
0

>  <PUBCHEM_ISOTOPIC_ATOM_COUNT>
0

>  <PUBCHEM_COMPONENT_COUNT>
1

>  <PUBCHEM_CACTVS_TAUTO_COUNT>
2

>  <PUBCHEM_COORDINATE_TYPE>
1
5
255

>  <PUBCHEM_BONDANNOTATIONS>
26  10  6
22  31  5
24  28  5
25  3  5
29  3  6
30  62  3
18  4  5
42  43  8
42  44  8
43  46  8
44  47  8
46  48  8
47  48  8
19  5  6
27  6  5
20  7  6
21  8  6
23  9  5

$$$$
