6442913
 OpenBabel06101807152D

 56 56  0  0  1  0  0  0  0  0999 V2000
    8.5991   -0.8100    0.0000 O   0  0  0  0  0  0  0  0  0  0  0  0
    2.5369   -0.3100    0.0000 O   0  0  0  0  0  0  0  0  0  0  0  0
    6.0010   -0.3100    0.0000 O   0  0  0  0  0  0  0  0  0  0  0  0
    2.5369   -2.3100    0.0000 O   0  0  0  0  0  0  0  0  0  0  0  0
    4.2690    0.6900    0.0000 C   0  0  3  0  0  0  0  0  0  0  0  0
    5.1350    1.1900    0.0000 C   0  0  0  0  0  0  0  0  0  0  0  0
    4.2690   -0.3100    0.0000 C   0  0  0  0  0  0  0  0  0  0  0  0
    3.4030    1.1900    0.0000 C   0  0  0  0  0  0  0  0  0  0  0  0
    9.4651    0.6900    0.0000 C   0  0  0  0  0  0  0  0  0  0  0  0
    9.4651   -0.3100    0.0000 C   0  0  3  0  0  0  0  0  0  0  0  0
    8.5991    1.1900    0.0000 C   0  0  0  0  0  0  0  0  0  0  0  0
    5.1350    2.1900    0.0000 C   0  0  0  0  0  0  0  0  0  0  0  0
    3.4030   -0.8100    0.0000 C   0  0  0  0  0  0  0  0  0  0  0  0
    5.1350   -0.8100    0.0000 C   0  0  0  0  0  0  0  0  0  0  0  0
    6.0010    2.6900    0.0000 C   0  0  0  0  0  0  0  0  0  0  0  0
    6.8671    2.1900    0.0000 C   0  0  0  0  0  0  0  0  0  0  0  0
    8.5991    2.1900    0.0000 C   0  0  0  0  0  0  0  0  0  0  0  0
   10.3312   -0.8100    0.0000 C   0  0  0  0  0  0  0  0  0  0  0  0
    7.7331    2.6900    0.0000 C   0  0  0  0  0  0  0  0  0  0  0  0
    3.4030   -1.8100    0.0000 C   0  0  0  0  0  0  0  0  0  0  0  0
    5.1350   -1.8100    0.0000 C   0  0  0  0  0  0  0  0  0  0  0  0
    4.2690   -2.3100    0.0000 C   0  0  0  0  0  0  0  0  0  0  0  0
   10.3312   -1.8100    0.0000 C   0  0  0  0  0  0  0  0  0  0  0  0
   11.1972   -2.3100    0.0000 C   0  0  0  0  0  0  0  0  0  0  0  0
    8.5991   -1.8100    0.0000 C   0  0  0  0  0  0  0  0  0  0  0  0
   11.1972   -3.3100    0.0000 C   0  0  0  0  0  0  0  0  0  0  0  0
    3.5329    0.2650    0.0000 H   0  0  0  0  0  0  0  0  0  0  0  0
    5.3471    0.6074    0.0000 H   0  0  0  0  0  0  0  0  0  0  0  0
    5.7456    1.2977    0.0000 H   0  0  0  0  0  0  0  0  0  0  0  0
    3.7130    1.7269    0.0000 H   0  0  0  0  0  0  0  0  0  0  0  0
    2.8660    1.5000    0.0000 H   0  0  0  0  0  0  0  0  0  0  0  0
    3.0930    0.6531    0.0000 H   0  0  0  0  0  0  0  0  0  0  0  0
   10.0757    0.5823    0.0000 H   0  0  0  0  0  0  0  0  0  0  0  0
    9.6772    1.2726    0.0000 H   0  0  0  0  0  0  0  0  0  0  0  0
    9.4651   -1.1600    0.0000 H   0  0  0  0  0  0  0  0  0  0  0  0
    7.9885    1.2977    0.0000 H   0  0  0  0  0  0  0  0  0  0  0  0
    8.3871    0.6074    0.0000 H   0  0  0  0  0  0  0  0  0  0  0  0
    4.5981    2.5000    0.0000 H   0  0  0  0  0  0  0  0  0  0  0  0
    6.0010    3.3100    0.0000 H   0  0  0  0  0  0  0  0  0  0  0  0
    6.4685    1.7150    0.0000 H   0  0  0  0  0  0  0  0  0  0  0  0
    7.2656    1.7150    0.0000 H   0  0  0  0  0  0  0  0  0  0  0  0
    9.1360    2.5000    0.0000 H   0  0  0  0  0  0  0  0  0  0  0  0
   10.8681   -0.5000    0.0000 H   0  0  0  0  0  0  0  0  0  0  0  0
    7.7331    3.3100    0.0000 H   0  0  0  0  0  0  0  0  0  0  0  0
    5.6720   -2.1200    0.0000 H   0  0  0  0  0  0  0  0  0  0  0  0
    4.2690   -2.9300    0.0000 H   0  0  0  0  0  0  0  0  0  0  0  0
    9.7942   -2.1200    0.0000 H   0  0  0  0  0  0  0  0  0  0  0  0
   11.8078   -2.4177    0.0000 H   0  0  0  0  0  0  0  0  0  0  0  0
   11.4092   -1.7274    0.0000 H   0  0  0  0  0  0  0  0  0  0  0  0
    2.0000   -0.6200    0.0000 H   0  0  0  0  0  0  0  0  0  0  0  0
    7.9791   -1.8100    0.0000 H   0  0  0  0  0  0  0  0  0  0  0  0
    8.5991   -2.4300    0.0000 H   0  0  0  0  0  0  0  0  0  0  0  0
    9.2191   -1.8100    0.0000 H   0  0  0  0  0  0  0  0  0  0  0  0
   10.5772   -3.3100    0.0000 H   0  0  0  0  0  0  0  0  0  0  0  0
   11.1972   -3.9300    0.0000 H   0  0  0  0  0  0  0  0  0  0  0  0
   11.8172   -3.3100    0.0000 H   0  0  0  0  0  0  0  0  0  0  0  0
  1 10  1  0  0  0  0
  1 25  1  0  0  0  0
  2 13  1  0  0  0  0
  2 50  1  0  0  0  0
  3 14  2  0  0  0  0
  4 20  2  0  0  0  0
  5  6  1  0  0  0  0
  5  7  1  0  0  0  0
  5  8  1  0  0  0  0
  5 27  1  0  0  0  0
  6 12  1  0  0  0  0
  6 28  1  0  0  0  0
  6 29  1  0  0  0  0
  7 13  2  0  0  0  0
  7 14  1  0  0  0  0
  8 30  1  0  0  0  0
  8 31  1  0  0  0  0
  8 32  1  0  0  0  0
  9 10  1  0  0  0  0
  9 11  1  0  0  0  0
  9 33  1  0  0  0  0
  9 34  1  0  0  0  0
 10 18  1  0  0  0  0
 10 35  1  0  0  0  0
 11 17  1  0  0  0  0
 11 36  1  0  0  0  0
 11 37  1  0  0  0  0
 12 15  2  0  0  0  0
 12 38  1  0  0  0  0
 13 20  1  0  0  0  0
 14 21  1  0  0  0  0
 15 16  1  0  0  0  0
 15 39  1  0  0  0  0
 16 19  1  0  0  0  0
 16 40  1  0  0  0  0
 16 41  1  0  0  0  0
 17 19  2  0  0  0  0
 17 42  1  0  0  0  0
 18 23  2  0  0  0  0
 18 43  1  0  0  0  0
 19 44  1  0  0  0  0
 20 22  1  0  0  0  0
 21 22  2  0  0  0  0
 21 45  1  0  0  0  0
 22 46  1  0  0  0  0
 23 24  1  0  0  0  0
 23 47  1  0  0  0  0
 24 26  1  0  0  0  0
 24 48  1  0  0  0  0
 24 49  1  0  0  0  0
 25 51  1  0  0  0  0
 25 52  1  0  0  0  0
 25 53  1  0  0  0  0
 26 54  1  0  0  0  0
 26 55  1  0  0  0  0
 26 56  1  0  0  0  0
M  END
>  <PUBCHEM_COMPOUND_CID>
6442913

>  <PUBCHEM_COMPOUND_CANONICALIZED>
1

>  <PUBCHEM_CACTVS_COMPLEXITY>
620

>  <PUBCHEM_CACTVS_HBOND_ACCEPTOR>
4

>  <PUBCHEM_CACTVS_HBOND_DONOR>
1

>  <PUBCHEM_CACTVS_ROTATABLE_BOND>
11

>  <PUBCHEM_CACTVS_SUBSKEYS>
AAADceB4OAAAAAAAAAAAAAAAAAAAAAAAAAAgAAAAAAAAAAAAAAAAGgAACAAADRSggAICAAAABgCIAqBSAAIAAAAgIAAICAFAAEgABBIAIQAAUAAEwAAIIYMIAAAOAAAAAAAAAAAAAAAAAAAAAAAAAAAAAA==

>  <PUBCHEM_IUPAC_OPENEYE_NAME>
2-hydroxy-3-[(3Z,6Z,11E)-10-methoxy-1-methyl-tetradeca-3,6,11-trienyl]-1,4-benzoquinone

>  <PUBCHEM_IUPAC_CAS_NAME>
2-hydroxy-3-[(4Z,7Z,12E)-11-methoxypentadeca-4,7,12-trien-2-yl]cyclohexa-2,5-diene-1,4-dione

>  <PUBCHEM_IUPAC_NAME>
2-hydroxy-3-[(4Z,7Z,12E)-11-methoxypentadeca-4,7,12-trien-2-yl]cyclohexa-2,5-diene-1,4-dione

>  <PUBCHEM_IUPAC_SYSTEMATIC_NAME>
2-[(4Z,7Z,12E)-11-methoxypentadeca-4,7,12-trien-2-yl]-3-oxidanyl-cyclohexa-2,5-diene-1,4-dione

>  <PUBCHEM_IUPAC_TRADITIONAL_NAME>
2-hydroxy-3-[(3Z,6Z,11E)-10-methoxy-1-methyl-tetradeca-3,6,11-trienyl]-p-benzoquinone

>  <PUBCHEM_IUPAC_INCHI>
InChI=1S/C22H30O4/c1-4-5-13-18(26-3)14-11-9-7-6-8-10-12-17(2)21-19(23)15-16-20(24)22(21)25/h5,7-10,13,15-18,25H,4,6,11-12,14H2,1-3H3/b9-7-,10-8-,13-5+

>  <PUBCHEM_IUPAC_INCHIKEY>
UYEKQEYYQAOFOF-FUHGLCMYSA-N

>  <PUBCHEM_XLOGP3_AA>
4.2

>  <PUBCHEM_EXACT_MASS>
358.214

>  <PUBCHEM_MOLECULAR_FORMULA>
C22H30O4

>  <PUBCHEM_MOLECULAR_WEIGHT>
358.478

>  <PUBCHEM_OPENEYE_CAN_SMILES>
CCC=CC(CCC=CCC=CCC(C)C1=C(C(=O)C=CC1=O)O)OC

>  <PUBCHEM_OPENEYE_ISO_SMILES>
CC/C=C/C(CC/C=C\C/C=C\CC(C)C1=C(C(=O)C=CC1=O)O)OC

>  <PUBCHEM_CACTVS_TPSA>
63.6

>  <PUBCHEM_MONOISOTOPIC_WEIGHT>
358.214

>  <PUBCHEM_TOTAL_CHARGE>
0

>  <PUBCHEM_HEAVY_ATOM_COUNT>
26

>  <PUBCHEM_ATOM_DEF_STEREO_COUNT>
0

>  <PUBCHEM_ATOM_UDEF_STEREO_COUNT>
2

>  <PUBCHEM_BOND_DEF_STEREO_COUNT>
3

>  <PUBCHEM_BOND_UDEF_STEREO_COUNT>
0

>  <PUBCHEM_ISOTOPIC_ATOM_COUNT>
0

>  <PUBCHEM_COMPONENT_COUNT>
1

>  <PUBCHEM_CACTVS_TAUTO_COUNT>
75

>  <PUBCHEM_COORDINATE_TYPE>
1
5
255

>  <PUBCHEM_BONDANNOTATIONS>
10  35  3
5  27  3

$$$$
