6443856
 OpenBabel06101807152D

 75 78  0  0  1  0  0  0  0  0999 V2000
    2.5357   -3.2876    0.0000 O   0  0  0  0  0  0  0  0  0  0  0  0
    7.9288   -0.2353    0.0000 C   0  0  1  0  0  0  0  0  0  0  0  0
    7.9288   -1.2353    0.0000 C   0  0  2  0  0  0  0  0  0  0  0  0
    7.0628   -1.7353    0.0000 C   0  0  1  0  0  0  0  0  0  0  0  0
    6.1968   -1.2353    0.0000 C   0  0  1  0  0  0  0  0  0  0  0  0
    8.8750    0.0695    0.0000 C   0  0  2  0  0  0  0  0  0  0  0  0
    7.0628    0.2647    0.0000 C   0  0  0  0  0  0  0  0  0  0  0  0
    5.2868   -1.7421    0.0000 C   0  0  2  0  0  0  0  0  0  0  0  0
    8.8750   -1.5400    0.0000 C   0  0  0  0  0  0  0  0  0  0  0  0
    6.1968   -0.2353    0.0000 C   0  0  0  0  0  0  0  0  0  0  0  0
    9.4586   -0.7353    0.0000 C   0  0  0  0  0  0  0  0  0  0  0  0
    7.0789   -2.7768    0.0000 C   0  0  0  0  0  0  0  0  0  0  0  0
    7.9288    0.7647    0.0000 C   0  0  0  0  0  0  0  0  0  0  0  0
    9.1857    1.0200    0.0000 C   0  0  1  0  0  0  0  0  0  0  0  0
    5.2787   -2.7837    0.0000 C   0  0  0  0  0  0  0  0  0  0  0  0
    4.3599   -1.1780    0.0000 C   0  0  0  0  0  0  0  0  0  0  0  0
    6.1808   -3.3045    0.0000 C   0  0  0  0  0  0  0  0  0  0  0  0
    5.2945   -0.7422    0.0000 C   0  0  0  0  0  0  0  0  0  0  0  0
    4.3433   -3.3334    0.0000 C   0  0  0  0  0  0  0  0  0  0  0  0
    3.4120   -1.7060    0.0000 C   0  0  0  0  0  0  0  0  0  0  0  0
    3.4037   -2.7910    0.0000 C   0  0  2  0  0  0  0  0  0  0  0  0
   10.1642    1.2262    0.0000 C   0  0  0  0  0  0  0  0  0  0  0  0
    8.5179    1.7643    0.0000 C   0  0  0  0  0  0  0  0  0  0  0  0
   10.4749    2.1767    0.0000 C   0  0  0  0  0  0  0  0  0  0  0  0
   11.4534    2.3829    0.0000 C   0  0  0  0  0  0  0  0  0  0  0  0
   12.1212    1.6386    0.0000 C   0  0  0  0  0  0  0  0  0  0  0  0
   11.7640    3.3334    0.0000 C   0  0  0  0  0  0  0  0  0  0  0  0
   13.0997    1.8448    0.0000 C   0  0  0  0  0  0  0  0  0  0  0  0
   11.8106    0.6881    0.0000 C   0  0  0  0  0  0  0  0  0  0  0  0
    8.0188   -2.0805    0.0000 H   0  0  0  0  0  0  0  0  0  0  0  0
    7.8022   -2.1546    0.0000 H   0  0  0  0  0  0  0  0  0  0  0  0
    6.9329   -0.8103    0.0000 H   0  0  0  0  0  0  0  0  0  0  0  0
    9.7148    0.2013    0.0000 H   0  0  0  0  0  0  0  0  0  0  0  0
    7.4613    0.7397    0.0000 H   0  0  0  0  0  0  0  0  0  0  0  0
    6.6643    0.7397    0.0000 H   0  0  0  0  0  0  0  0  0  0  0  0
    8.6240   -2.1069    0.0000 H   0  0  0  0  0  0  0  0  0  0  0  0
    9.4124   -1.8492    0.0000 H   0  0  0  0  0  0  0  0  0  0  0  0
    5.9847    0.3473    0.0000 H   0  0  0  0  0  0  0  0  0  0  0  0
    5.5862   -0.3429    0.0000 H   0  0  0  0  0  0  0  0  0  0  0  0
    9.9195   -1.1500    0.0000 H   0  0  0  0  0  0  0  0  0  0  0  0
    9.9195   -0.3206    0.0000 H   0  0  0  0  0  0  0  0  0  0  0  0
    7.2969   -3.3572    0.0000 H   0  0  0  0  0  0  0  0  0  0  0  0
    7.6880   -2.6613    0.0000 H   0  0  0  0  0  0  0  0  0  0  0  0
    8.5488    0.7647    0.0000 H   0  0  0  0  0  0  0  0  0  0  0  0
    7.9288    1.3847    0.0000 H   0  0  0  0  0  0  0  0  0  0  0  0
    7.3088    0.7647    0.0000 H   0  0  0  0  0  0  0  0  0  0  0  0
    9.3783    1.6093    0.0000 H   0  0  0  0  0  0  0  0  0  0  0  0
    4.7681   -0.7114    0.0000 H   0  0  0  0  0  0  0  0  0  0  0  0
    3.9700   -0.6960    0.0000 H   0  0  0  0  0  0  0  0  0  0  0  0
    6.1832   -3.9245    0.0000 H   0  0  0  0  0  0  0  0  0  0  0  0
    5.9145   -0.7469    0.0000 H   0  0  0  0  0  0  0  0  0  0  0  0
    5.2993   -0.1222    0.0000 H   0  0  0  0  0  0  0  0  0  0  0  0
    4.6745   -0.7374    0.0000 H   0  0  0  0  0  0  0  0  0  0  0  0
    3.9460   -3.8094    0.0000 H   0  0  0  0  0  0  0  0  0  0  0  0
    4.7443   -3.8063    0.0000 H   0  0  0  0  0  0  0  0  0  0  0  0
    3.2075   -1.1207    0.0000 H   0  0  0  0  0  0  0  0  0  0  0  0
    2.8004   -1.8074    0.0000 H   0  0  0  0  0  0  0  0  0  0  0  0
    2.8686   -2.4778    0.0000 H   0  0  0  0  0  0  0  0  0  0  0  0
   10.1848    0.6065    0.0000 H   0  0  0  0  0  0  0  0  0  0  0  0
   10.7780    1.1388    0.0000 H   0  0  0  0  0  0  0  0  0  0  0  0
    8.9793    2.1783    0.0000 H   0  0  0  0  0  0  0  0  0  0  0  0
    8.1038    2.2257    0.0000 H   0  0  0  0  0  0  0  0  0  0  0  0
    8.0564    1.3502    0.0000 H   0  0  0  0  0  0  0  0  0  0  0  0
   10.0608    2.6382    0.0000 H   0  0  0  0  0  0  0  0  0  0  0  0
    2.0000   -2.9755    0.0000 H   0  0  0  0  0  0  0  0  0  0  0  0
   11.5145    1.5108    0.0000 H   0  0  0  0  0  0  0  0  0  0  0  0
   12.3534    3.1408    0.0000 H   0  0  0  0  0  0  0  0  0  0  0  0
   11.9567    3.9228    0.0000 H   0  0  0  0  0  0  0  0  0  0  0  0
   11.1747    3.5261    0.0000 H   0  0  0  0  0  0  0  0  0  0  0  0
   13.2276    1.2382    0.0000 H   0  0  0  0  0  0  0  0  0  0  0  0
   13.7064    1.9727    0.0000 H   0  0  0  0  0  0  0  0  0  0  0  0
   12.9719    2.4515    0.0000 H   0  0  0  0  0  0  0  0  0  0  0  0
   11.2212    0.8807    0.0000 H   0  0  0  0  0  0  0  0  0  0  0  0
   11.6179    0.0988    0.0000 H   0  0  0  0  0  0  0  0  0  0  0  0
   12.3999    0.4955    0.0000 H   0  0  0  0  0  0  0  0  0  0  0  0
  1 65  1  0  0  0  0
  2  3  1  1  0  0  0
  2  7  1  0  0  0  0
  2 13  1  0  0  0  0
  3  4  1  1  0  0  0
  3  9  1  0  0  0  0
  3 30  1  0  0  0  0
  4  5  1  1  0  0  0
  4 12  1  0  0  0  0
  4 31  1  0  0  0  0
  5  8  1  6  0  0  0
  5 10  1  0  0  0  0
  5 32  1  0  0  0  0
  6  2  1  6  0  0  0
  6 11  1  0  0  0  0
  6 14  1  0  0  0  0
  6 33  1  0  0  0  0
  7 10  1  0  0  0  0
  7 34  1  0  0  0  0
  7 35  1  0  0  0  0
  8 15  1  0  0  0  0
  8 16  1  0  0  0  0
  8 18  1  1  0  0  0
  9 11  1  0  0  0  0
  9 36  1  0  0  0  0
  9 37  1  0  0  0  0
 10 38  1  0  0  0  0
 10 39  1  0  0  0  0
 11 40  1  0  0  0  0
 11 41  1  0  0  0  0
 12 17  1  0  0  0  0
 12 42  1  0  0  0  0
 12 43  1  0  0  0  0
 13 44  1  0  0  0  0
 13 45  1  0  0  0  0
 13 46  1  0  0  0  0
 14 22  1  0  0  0  0
 14 23  1  0  0  0  0
 14 47  1  1  0  0  0
 15 17  2  0  0  0  0
 15 19  1  0  0  0  0
 16 20  1  0  0  0  0
 16 48  1  0  0  0  0
 16 49  1  0  0  0  0
 17 50  1  0  0  0  0
 18 51  1  0  0  0  0
 18 52  1  0  0  0  0
 18 53  1  0  0  0  0
 19 21  1  0  0  0  0
 19 54  1  0  0  0  0
 19 55  1  0  0  0  0
 20 21  1  0  0  0  0
 20 56  1  0  0  0  0
 20 57  1  0  0  0  0
 21  1  1  0  0  0  0
 21 58  1  6  0  0  0
 22 24  1  0  0  0  0
 22 59  1  0  0  0  0
 22 60  1  0  0  0  0
 23 61  1  0  0  0  0
 23 62  1  0  0  0  0
 23 63  1  0  0  0  0
 24 25  2  0  0  0  0
 24 64  1  0  0  0  0
 25 26  1  0  0  0  0
 25 27  1  0  0  0  0
 26 28  1  0  0  0  0
 26 29  1  0  0  0  0
 26 66  1  0  0  0  0
 27 67  1  0  0  0  0
 27 68  1  0  0  0  0
 27 69  1  0  0  0  0
 28 70  1  0  0  0  0
 28 71  1  0  0  0  0
 28 72  1  0  0  0  0
 29 73  1  0  0  0  0
 29 74  1  0  0  0  0
 29 75  1  0  0  0  0
M  END
>  <PUBCHEM_COMPOUND_CID>
6443856

>  <PUBCHEM_COMPOUND_CANONICALIZED>
1

>  <PUBCHEM_CACTVS_COMPLEXITY>
672

>  <PUBCHEM_CACTVS_HBOND_ACCEPTOR>
1

>  <PUBCHEM_CACTVS_HBOND_DONOR>
1

>  <PUBCHEM_CACTVS_ROTATABLE_BOND>
4

>  <PUBCHEM_CACTVS_SUBSKEYS>
AAADcfB4IAAAAAAAAAAAAAAAAAAAAYAAAAAwYIAAAAAAAGCAAAAAGgAACAAADxSggAICAAAAAgCAAiBCAAAAAAAgAAAACAAAAAgAEAIAAQAAQAAEwAAIAAOAwPAPgAAAAAAAAADAAAQAACAAAQAACAAAAA==

>  <PUBCHEM_IUPAC_OPENEYE_NAME>
(3S,8S,9S,10R,13R,14S,17R)-10,13-dimethyl-17-[(Z,1R)-1,4,5-trimethylhex-3-enyl]-2,3,4,7,8,9,11,12,14,15,16,17-dodecahydro-1H-cyclopenta[a]phenanthren-3-ol

>  <PUBCHEM_IUPAC_CAS_NAME>
(3S,8S,9S,10R,13R,14S,17R)-17-[(Z,2R)-5,6-dimethylhept-4-en-2-yl]-10,13-dimethyl-2,3,4,7,8,9,11,12,14,15,16,17-dodecahydro-1H-cyclopenta[a]phenanthren-3-ol

>  <PUBCHEM_IUPAC_NAME>
(3S,8S,9S,10R,13R,14S,17R)-17-[(Z,2R)-5,6-dimethylhept-4-en-2-yl]-10,13-dimethyl-2,3,4,7,8,9,11,12,14,15,16,17-dodecahydro-1H-cyclopenta[a]phenanthren-3-ol

>  <PUBCHEM_IUPAC_SYSTEMATIC_NAME>
(3S,8S,9S,10R,13R,14S,17R)-17-[(Z,2R)-5,6-dimethylhept-4-en-2-yl]-10,13-dimethyl-2,3,4,7,8,9,11,12,14,15,16,17-dodecahydro-1H-cyclopenta[a]phenanthren-3-ol

>  <PUBCHEM_IUPAC_TRADITIONAL_NAME>
(3S,8S,9S,10R,13R,14S,17R)-10,13-dimethyl-17-[(Z,1R)-1,4,5-trimethylhex-3-enyl]-2,3,4,7,8,9,11,12,14,15,16,17-dodecahydro-1H-cyclopenta[a]phenanthren-3-ol

>  <PUBCHEM_IUPAC_INCHI>
InChI=1S/C28H46O/c1-18(2)19(3)7-8-20(4)24-11-12-25-23-10-9-21-17-22(29)13-15-27(21,5)26(23)14-16-28(24,25)6/h7,9,18,20,22-26,29H,8,10-17H2,1-6H3/b19-7-/t20-,22+,23+,24-,25+,26+,27+,28-/m1/s1

>  <PUBCHEM_IUPAC_INCHIKEY>
CRJHBQFJDHZHGO-MYIDOQBCSA-N

>  <PUBCHEM_XLOGP3_AA>
8.3

>  <PUBCHEM_EXACT_MASS>
398.355

>  <PUBCHEM_MOLECULAR_FORMULA>
C28H46O

>  <PUBCHEM_MOLECULAR_WEIGHT>
398.675

>  <PUBCHEM_OPENEYE_CAN_SMILES>
CC(C)C(=CCC(C)C1CCC2C1(CCC3C2CC=C4C3(CCC(C4)O)C)C)C

>  <PUBCHEM_OPENEYE_ISO_SMILES>
C[C@H](C/C=C(/C)\C(C)C)[C@H]1CC[C@@H]2[C@@]1(CC[C@H]3[C@H]2CC=C4[C@@]3(CC[C@@H](C4)O)C)C

>  <PUBCHEM_CACTVS_TPSA>
20.2

>  <PUBCHEM_MONOISOTOPIC_WEIGHT>
398.355

>  <PUBCHEM_TOTAL_CHARGE>
0

>  <PUBCHEM_HEAVY_ATOM_COUNT>
29

>  <PUBCHEM_ATOM_DEF_STEREO_COUNT>
8

>  <PUBCHEM_ATOM_UDEF_STEREO_COUNT>
0

>  <PUBCHEM_BOND_DEF_STEREO_COUNT>
1

>  <PUBCHEM_BOND_UDEF_STEREO_COUNT>
0

>  <PUBCHEM_ISOTOPIC_ATOM_COUNT>
0

>  <PUBCHEM_COMPONENT_COUNT>
1

>  <PUBCHEM_CACTVS_TAUTO_COUNT>
1

>  <PUBCHEM_COORDINATE_TYPE>
1
5
255

>  <PUBCHEM_BONDANNOTATIONS>
21  1  5
14  23  6
2  13  5
3  30  6
4  31  5
5  32  6
6  33  6
8  18  5

$$$$
