6450203
 OpenBabel06101807152D

 57 59  0  0  1  0  0  0  0  0999 V2000
    7.2036   -1.6958    0.0000 O   0  0  0  0  0  0  0  0  0  0  0  0
    4.6200   -0.8910    0.0000 O   0  0  0  0  0  0  0  0  0  0  0  0
    6.8930    0.8642    0.0000 O   0  0  0  0  0  0  0  0  0  0  0  0
    8.9998    1.1505    0.0000 O   0  0  0  0  0  0  0  0  0  0  0  0
    4.6200   -2.6231    0.0000 O   0  0  0  0  0  0  0  0  0  0  0  0
    8.0497    2.1534    0.0000 O   0  0  0  0  0  0  0  0  0  0  0  0
    9.8940    2.6782    0.0000 O   0  0  0  0  0  0  0  0  0  0  0  0
    6.6200   -0.8910    0.0000 C   0  0  3  0  0  0  0  0  0  0  0  0
    5.6200   -0.8910    0.0000 C   0  0  0  0  0  0  0  0  0  0  0  0
    7.2036   -0.0863    0.0000 C   0  0  3  0  0  0  0  0  0  0  0  0
    8.1498   -0.3910    0.0000 C   0  0  0  0  0  0  0  0  0  0  0  0
    8.1498   -1.3910    0.0000 C   0  0  0  0  0  0  0  0  0  0  0  0
    5.6200   -1.8910    0.0000 C   0  0  0  0  0  0  0  0  0  0  0  0
    5.6200    0.1090    0.0000 C   0  0  0  0  0  0  0  0  0  0  0  0
    9.0158    0.1090    0.0000 C   0  0  0  0  0  0  0  0  0  0  0  0
    9.0158   -1.8910    0.0000 C   0  0  0  0  0  0  0  0  0  0  0  0
    9.8819   -0.3910    0.0000 C   0  0  0  0  0  0  0  0  0  0  0  0
    9.8819   -1.3910    0.0000 C   0  0  0  0  0  0  0  0  0  0  0  0
    4.1200   -1.7570    0.0000 C   0  0  0  0  0  0  0  0  0  0  0  0
    7.0992    1.8427    0.0000 C   0  0  0  0  0  0  0  0  0  0  0  0
   10.7919    0.1158    0.0000 C   0  0  0  0  0  0  0  0  0  0  0  0
    9.8978    1.6782    0.0000 C   0  0  0  0  0  0  0  0  0  0  0  0
   10.7999    1.1574    0.0000 C   0  0  0  0  0  0  0  0  0  0  0  0
    3.1200   -1.7570    0.0000 C   0  0  0  0  0  0  0  0  0  0  0  0
    6.3549    2.5106    0.0000 C   0  0  0  0  0  0  0  0  0  0  0  0
    2.6200   -0.8910    0.0000 C   0  0  0  0  0  0  0  0  0  0  0  0
    6.5611    3.4891    0.0000 C   0  0  0  0  0  0  0  0  0  0  0  0
    2.6200   -2.6231    0.0000 C   0  0  0  0  0  0  0  0  0  0  0  0
    5.4043    2.1999    0.0000 C   0  0  0  0  0  0  0  0  0  0  0  0
    3.1200   -3.4891    0.0000 C   0  0  0  0  0  0  0  0  0  0  0  0
    5.1981    1.2214    0.0000 C   0  0  0  0  0  0  0  0  0  0  0  0
    6.2338   -1.6482    0.0000 H   0  0  0  0  0  0  0  0  0  0  0  0
    6.3639    0.0456    0.0000 H   0  0  0  0  0  0  0  0  0  0  0  0
    5.0000   -1.8910    0.0000 H   0  0  0  0  0  0  0  0  0  0  0  0
    5.6200   -2.5110    0.0000 H   0  0  0  0  0  0  0  0  0  0  0  0
    6.2400   -1.8910    0.0000 H   0  0  0  0  0  0  0  0  0  0  0  0
    6.2400    0.1090    0.0000 H   0  0  0  0  0  0  0  0  0  0  0  0
    5.6200    0.7290    0.0000 H   0  0  0  0  0  0  0  0  0  0  0  0
    5.0000    0.1090    0.0000 H   0  0  0  0  0  0  0  0  0  0  0  0
    9.0158   -2.5110    0.0000 H   0  0  0  0  0  0  0  0  0  0  0  0
   10.4188   -1.7010    0.0000 H   0  0  0  0  0  0  0  0  0  0  0  0
   11.3252   -0.2004    0.0000 H   0  0  0  0  0  0  0  0  0  0  0  0
   11.3380    1.4654    0.0000 H   0  0  0  0  0  0  0  0  0  0  0  0
    3.1569   -0.5810    0.0000 H   0  0  0  0  0  0  0  0  0  0  0  0
    2.3100   -0.3541    0.0000 H   0  0  0  0  0  0  0  0  0  0  0  0
    2.0831   -1.2010    0.0000 H   0  0  0  0  0  0  0  0  0  0  0  0
    7.1678    3.3612    0.0000 H   0  0  0  0  0  0  0  0  0  0  0  0
    6.6889    4.0958    0.0000 H   0  0  0  0  0  0  0  0  0  0  0  0
    5.9544    3.6170    0.0000 H   0  0  0  0  0  0  0  0  0  0  0  0
    2.0000   -2.6231    0.0000 H   0  0  0  0  0  0  0  0  0  0  0  0
    4.9429    2.6140    0.0000 H   0  0  0  0  0  0  0  0  0  0  0  0
    2.5831   -3.7991    0.0000 H   0  0  0  0  0  0  0  0  0  0  0  0
    3.4300   -4.0260    0.0000 H   0  0  0  0  0  0  0  0  0  0  0  0
    3.6569   -3.1791    0.0000 H   0  0  0  0  0  0  0  0  0  0  0  0
    4.5914    1.3493    0.0000 H   0  0  0  0  0  0  0  0  0  0  0  0
    5.0703    0.6147    0.0000 H   0  0  0  0  0  0  0  0  0  0  0  0
    5.8048    1.0936    0.0000 H   0  0  0  0  0  0  0  0  0  0  0  0
  1  8  1  0  0  0  0
  1 12  1  0  0  0  0
  2  9  1  0  0  0  0
  2 19  1  0  0  0  0
  3 10  1  0  0  0  0
  3 20  1  0  0  0  0
  4 15  1  0  0  0  0
  4 22  1  0  0  0  0
  5 19  2  0  0  0  0
  6 20  2  0  0  0  0
  7 22  2  0  0  0  0
  8  9  1  0  0  0  0
  8 10  1  0  0  0  0
  8 32  1  0  0  0  0
  9 13  1  0  0  0  0
  9 14  1  0  0  0  0
 10 11  1  0  0  0  0
 10 33  1  0  0  0  0
 11 12  2  0  0  0  0
 11 15  1  0  0  0  0
 12 16  1  0  0  0  0
 13 34  1  0  0  0  0
 13 35  1  0  0  0  0
 13 36  1  0  0  0  0
 14 37  1  0  0  0  0
 14 38  1  0  0  0  0
 14 39  1  0  0  0  0
 15 17  2  0  0  0  0
 16 18  2  0  0  0  0
 16 40  1  0  0  0  0
 17 18  1  0  0  0  0
 17 21  1  0  0  0  0
 18 41  1  0  0  0  0
 19 24  1  0  0  0  0
 20 25  1  0  0  0  0
 21 23  2  0  0  0  0
 21 42  1  0  0  0  0
 22 23  1  0  0  0  0
 23 43  1  0  0  0  0
 24 26  1  0  0  0  0
 24 28  2  0  0  0  0
 25 27  1  0  0  0  0
 25 29  2  0  0  0  0
 26 44  1  0  0  0  0
 26 45  1  0  0  0  0
 26 46  1  0  0  0  0
 27 47  1  0  0  0  0
 27 48  1  0  0  0  0
 27 49  1  0  0  0  0
 28 30  1  0  0  0  0
 28 50  1  0  0  0  0
 29 31  1  0  0  0  0
 29 51  1  0  0  0  0
 30 52  1  0  0  0  0
 30 53  1  0  0  0  0
 30 54  1  0  0  0  0
 31 55  1  0  0  0  0
 31 56  1  0  0  0  0
 31 57  1  0  0  0  0
M  END
>  <PUBCHEM_COMPOUND_CID>
6450203

>  <PUBCHEM_COMPOUND_CANONICALIZED>
1

>  <PUBCHEM_CACTVS_COMPLEXITY>
835

>  <PUBCHEM_CACTVS_HBOND_ACCEPTOR>
7

>  <PUBCHEM_CACTVS_HBOND_DONOR>
0

>  <PUBCHEM_CACTVS_ROTATABLE_BOND>
7

>  <PUBCHEM_CACTVS_SUBSKEYS>
AAADceB4OAAAAAAAAAAAAAAAAAAAASAAAAAwQAAAAAAAAEiBAAAAGgAAAAAADFSgmAIyDoAABACIAiDSCAACCAAgIAAIiAEGCMgNJyKEMRqCOiClwBUKqYfA4PwOIAACCAAIAABAAAQQABAAAAAAAAAAAA==

>  <PUBCHEM_IUPAC_OPENEYE_NAME>
[8-[1-methyl-1-[(Z)-2-methylbut-2-enoyl]oxy-ethyl]-2-oxo-8,9-dihydrofuro[2,3-h]chromen-9-yl] (Z)-2-methylbut-2-enoate

>  <PUBCHEM_IUPAC_CAS_NAME>
(Z)-2-methyl-2-butenoic acid [8-[2-[(Z)-2-methyl-1-oxobut-2-enoxy]propan-2-yl]-2-oxo-8,9-dihydrofuro[2,3-h][1]benzopyran-9-yl] ester

>  <PUBCHEM_IUPAC_NAME>
[8-[2-[(Z)-2-methylbut-2-enoyl]oxypropan-2-yl]-2-oxo-8,9-dihydrofuro[2,3-h]chromen-9-yl] (Z)-2-methylbut-2-enoate

>  <PUBCHEM_IUPAC_SYSTEMATIC_NAME>
[8-[2-[(Z)-2-methylbut-2-enoyl]oxypropan-2-yl]-2-oxidanylidene-8,9-dihydrofuro[2,3-h]chromen-9-yl] (Z)-2-methylbut-2-enoate

>  <PUBCHEM_IUPAC_TRADITIONAL_NAME>
(Z)-2-methylbut-2-enoic acid [2-keto-8-[1-methyl-1-[(Z)-2-methylbut-2-enoyl]oxy-ethyl]-8,9-dihydrofuro[2,3-h]chromen-9-yl] ester

>  <PUBCHEM_IUPAC_INCHI>
InChI=1S/C24H26O7/c1-7-13(3)22(26)30-20-18-16(11-9-15-10-12-17(25)29-19(15)18)28-21(20)24(5,6)31-23(27)14(4)8-2/h7-12,20-21H,1-6H3/b13-7-,14-8-

>  <PUBCHEM_IUPAC_INCHIKEY>
RVGGCRQPGKFZDS-PVRNWPCDSA-N

>  <PUBCHEM_XLOGP3_AA>
4.3

>  <PUBCHEM_EXACT_MASS>
426.168

>  <PUBCHEM_MOLECULAR_FORMULA>
C24H26O7

>  <PUBCHEM_MOLECULAR_WEIGHT>
426.465

>  <PUBCHEM_OPENEYE_CAN_SMILES>
CC=C(C)C(=O)OC1C(OC2=C1C3=C(C=C2)C=CC(=O)O3)C(C)(C)OC(=O)C(=CC)C

>  <PUBCHEM_OPENEYE_ISO_SMILES>
C/C=C(/C)\C(=O)OC1C(OC2=C1C3=C(C=C2)C=CC(=O)O3)C(C)(C)OC(=O)/C(=C\C)/C

>  <PUBCHEM_CACTVS_TPSA>
88.1

>  <PUBCHEM_MONOISOTOPIC_WEIGHT>
426.168

>  <PUBCHEM_TOTAL_CHARGE>
0

>  <PUBCHEM_HEAVY_ATOM_COUNT>
31

>  <PUBCHEM_ATOM_DEF_STEREO_COUNT>
0

>  <PUBCHEM_ATOM_UDEF_STEREO_COUNT>
2

>  <PUBCHEM_BOND_DEF_STEREO_COUNT>
2

>  <PUBCHEM_BOND_UDEF_STEREO_COUNT>
0

>  <PUBCHEM_ISOTOPIC_ATOM_COUNT>
0

>  <PUBCHEM_COMPONENT_COUNT>
1

>  <PUBCHEM_CACTVS_TAUTO_COUNT>
1

>  <PUBCHEM_COORDINATE_TYPE>
1
5
255

>  <PUBCHEM_BONDANNOTATIONS>
10  33  3
11  12  8
11  15  8
12  16  8
15  17  8
16  18  8
17  18  8
17  21  8
21  23  8
22  23  8
4  15  8
4  22  8
8  32  3

$$$$
