6455362
 OpenBabel06101807152D

 26 29  0  0  0  0  0  0  0  0999 V2000
    2.5346    1.4934    0.0000 O   0  0  0  0  0  0  0  0  0  0  0  0
    2.0000   -0.1519    0.0000 O   0  0  0  0  0  0  0  0  0  0  0  0
    3.7602   -0.3401    0.0000 N   0  0  0  0  0  0  0  0  0  0  0  0
    5.3799   -2.4110    0.0000 N   0  0  0  0  0  0  0  0  0  0  0  0
    4.5692   -0.9279    0.0000 C   0  0  0  0  0  0  0  0  0  0  0  0
    4.0692    0.6110    0.0000 C   0  0  0  0  0  0  0  0  0  0  0  0
    5.3782   -0.3401    0.0000 C   0  0  0  0  0  0  0  0  0  0  0  0
    5.0692    0.6110    0.0000 C   0  0  0  0  0  0  0  0  0  0  0  0
    4.4763   -1.9653    0.0000 C   0  0  0  0  0  0  0  0  0  0  0  0
    2.8022   -0.7490    0.0000 C   0  0  0  0  0  0  0  0  0  0  0  0
    3.5345    1.5049    0.0000 C   0  0  0  0  0  0  0  0  0  0  0  0
    5.6038    1.5049    0.0000 C   0  0  0  0  0  0  0  0  0  0  0  0
    6.2345   -0.8710    0.0000 C   0  0  0  0  0  0  0  0  0  0  0  0
    3.5280   -2.3963    0.0000 C   0  0  0  0  0  0  0  0  0  0  0  0
    2.6853   -1.7841    0.0000 C   0  0  0  0  0  0  0  0  0  0  0  0
    4.0484    2.4110    0.0000 C   0  0  0  0  0  0  0  0  0  0  0  0
    5.0900    2.4110    0.0000 C   0  0  0  0  0  0  0  0  0  0  0  0
    6.2353   -1.8786    0.0000 C   0  0  0  0  0  0  0  0  0  0  0  0
    6.2238    1.4978    0.0000 H   0  0  0  0  0  0  0  0  0  0  0  0
    6.7761   -0.5693    0.0000 H   0  0  0  0  0  0  0  0  0  0  0  0
    3.4656   -3.0132    0.0000 H   0  0  0  0  0  0  0  0  0  0  0  0
    2.1179   -2.0341    0.0000 H   0  0  0  0  0  0  0  0  0  0  0  0
    3.7363    2.9467    0.0000 H   0  0  0  0  0  0  0  0  0  0  0  0
    5.4021    2.9467    0.0000 H   0  0  0  0  0  0  0  0  0  0  0  0
    6.7774   -2.1794    0.0000 H   0  0  0  0  0  0  0  0  0  0  0  0
    2.2184    2.0267    0.0000 H   0  0  0  0  0  0  0  0  0  0  0  0
  1 11  1  0  0  0  0
  1 26  1  0  0  0  0
  2 10  2  0  0  0  0
  3  5  1  0  0  0  0
  3  6  1  0  0  0  0
  3 10  1  0  0  0  0
  4  9  2  0  0  0  0
  4 18  1  0  0  0  0
  5  7  2  0  0  0  0
  5  9  1  0  0  0  0
  6  8  2  0  0  0  0
  6 11  1  0  0  0  0
  7  8  1  0  0  0  0
  7 13  1  0  0  0  0
  8 12  1  0  0  0  0
  9 14  1  0  0  0  0
 10 15  1  0  0  0  0
 11 16  2  0  0  0  0
 12 17  2  0  0  0  0
 12 19  1  0  0  0  0
 13 18  2  0  0  0  0
 13 20  1  0  0  0  0
 14 15  2  0  0  0  0
 14 21  1  0  0  0  0
 15 22  1  0  0  0  0
 16 17  1  0  0  0  0
 16 23  1  0  0  0  0
 17 24  1  0  0  0  0
 18 25  1  0  0  0  0
M  END
>  <PUBCHEM_COMPOUND_CID>
6455362

>  <PUBCHEM_COMPOUND_CANONICALIZED>
1

>  <PUBCHEM_CACTVS_COMPLEXITY>
409

>  <PUBCHEM_CACTVS_HBOND_ACCEPTOR>
3

>  <PUBCHEM_CACTVS_HBOND_DONOR>
1

>  <PUBCHEM_CACTVS_ROTATABLE_BOND>
0

>  <PUBCHEM_CACTVS_SUBSKEYS>
AAADccBzMAAAAAAAAAAAAAAAAAAAAWAAAAA8QIAAAAAAAFiB/gAAHgAACAAADAzBngQ8xvMMEgCoAzV3VASCgCQxciAI2CA/fNgKZuLSkZOUcAhkxBHY2YeQ0PMOgAABAAACEAAAAAIAAAQgAAAAAAAAAA==

>  <PUBCHEM_IUPAC_INCHI>
InChI=1S/C14H8N2O2/c17-11-3-1-2-8-9-6-7-15-10-4-5-12(18)16(13(9)10)14(8)11/h1-7,17H

>  <PUBCHEM_IUPAC_INCHIKEY>
WBFKHEDOTNJGJF-UHFFFAOYSA-N

>  <PUBCHEM_XLOGP3_AA>
2.1

>  <PUBCHEM_EXACT_MASS>
236.059

>  <PUBCHEM_MOLECULAR_FORMULA>
C14H8N2O2

>  <PUBCHEM_MOLECULAR_WEIGHT>
236.23

>  <PUBCHEM_OPENEYE_CAN_SMILES>
C1=CC2=C(C(=C1)O)N3C(=O)C=CC4=NC=CC2=C43

>  <PUBCHEM_OPENEYE_ISO_SMILES>
C1=CC2=C(C(=C1)O)N3C(=O)C=CC4=NC=CC2=C43

>  <PUBCHEM_CACTVS_TPSA>
55.1

>  <PUBCHEM_MONOISOTOPIC_WEIGHT>
236.059

>  <PUBCHEM_TOTAL_CHARGE>
0

>  <PUBCHEM_HEAVY_ATOM_COUNT>
18

>  <PUBCHEM_ATOM_DEF_STEREO_COUNT>
0

>  <PUBCHEM_ATOM_UDEF_STEREO_COUNT>
0

>  <PUBCHEM_BOND_DEF_STEREO_COUNT>
0

>  <PUBCHEM_BOND_UDEF_STEREO_COUNT>
0

>  <PUBCHEM_ISOTOPIC_ATOM_COUNT>
0

>  <PUBCHEM_COMPONENT_COUNT>
1

>  <PUBCHEM_CACTVS_TAUTO_COUNT>
2

>  <PUBCHEM_COORDINATE_TYPE>
1
5
255

>  <PUBCHEM_BONDANNOTATIONS>
10  15  8
11  16  8
12  17  8
13  18  8
14  15  8
16  17  8
3  10  8
3  5  8
3  6  8
4  18  8
4  9  8
5  7  8
5  9  8
6  11  8
6  8  8
7  13  8
7  8  8
8  12  8
9  14  8

$$$$
