6455496
 OpenBabel06101807152D

 45 46  0  0  1  0  0  0  0  0999 V2000
    2.5369   -0.2673    0.0000 O   0  0  0  0  0  0  0  0  0  0  0  0
    6.8671   -0.7673    0.0000 C   0  0  3  0  0  0  0  0  0  0  0  0
    6.8671    0.2327    0.0000 C   0  0  3  0  0  0  0  0  0  0  0  0
    5.1350    0.2327    0.0000 C   0  0  3  0  0  0  0  0  0  0  0  0
    6.0010   -1.2673    0.0000 C   0  0  0  0  0  0  0  0  0  0  0  0
    6.0010    0.7327    0.0000 C   0  0  0  0  0  0  0  0  0  0  0  0
    7.7610   -1.3020    0.0000 C   0  0  0  0  0  0  0  0  0  0  0  0
    5.1350   -0.7673    0.0000 C   0  0  0  0  0  0  0  0  0  0  0  0
    7.7610    0.7674    0.0000 C   0  0  0  0  0  0  0  0  0  0  0  0
    8.6671   -0.7881    0.0000 C   0  0  0  0  0  0  0  0  0  0  0  0
    6.8671   -1.7673    0.0000 C   0  0  0  0  0  0  0  0  0  0  0  0
    4.2690    0.7327    0.0000 C   0  0  0  0  0  0  0  0  0  0  0  0
    8.6671    0.2535    0.0000 C   0  0  0  0  0  0  0  0  0  0  0  0
    3.4030    0.2327    0.0000 C   0  0  0  0  0  0  0  0  0  0  0  0
    7.7494    1.7673    0.0000 C   0  0  0  0  0  0  0  0  0  0  0  0
    2.9030    1.0987    0.0000 C   0  0  0  0  0  0  0  0  0  0  0  0
    3.9030   -0.6333    0.0000 C   0  0  0  0  0  0  0  0  0  0  0  0
    6.8623    0.8527    0.0000 H   0  0  0  0  0  0  0  0  0  0  0  0
    5.1350    0.8527    0.0000 H   0  0  0  0  0  0  0  0  0  0  0  0
    5.6025   -1.7422    0.0000 H   0  0  0  0  0  0  0  0  0  0  0  0
    6.3996   -1.7422    0.0000 H   0  0  0  0  0  0  0  0  0  0  0  0
    6.3996    1.2076    0.0000 H   0  0  0  0  0  0  0  0  0  0  0  0
    5.6025    1.2076    0.0000 H   0  0  0  0  0  0  0  0  0  0  0  0
    7.3564   -1.7718    0.0000 H   0  0  0  0  0  0  0  0  0  0  0  0
    8.1546   -1.7810    0.0000 H   0  0  0  0  0  0  0  0  0  0  0  0
    4.5244   -0.6596    0.0000 H   0  0  0  0  0  0  0  0  0  0  0  0
    4.9230   -1.3499    0.0000 H   0  0  0  0  0  0  0  0  0  0  0  0
    8.8761   -1.3718    0.0000 H   0  0  0  0  0  0  0  0  0  0  0  0
    9.2779   -0.6820    0.0000 H   0  0  0  0  0  0  0  0  0  0  0  0
    6.2471   -1.7673    0.0000 H   0  0  0  0  0  0  0  0  0  0  0  0
    6.8671   -2.3873    0.0000 H   0  0  0  0  0  0  0  0  0  0  0  0
    7.4871   -1.7673    0.0000 H   0  0  0  0  0  0  0  0  0  0  0  0
    4.6675    1.2076    0.0000 H   0  0  0  0  0  0  0  0  0  0  0  0
    3.8705    1.2076    0.0000 H   0  0  0  0  0  0  0  0  0  0  0  0
    9.2779    0.1474    0.0000 H   0  0  0  0  0  0  0  0  0  0  0  0
    8.8761    0.8372    0.0000 H   0  0  0  0  0  0  0  0  0  0  0  0
    8.2828    2.0835    0.0000 H   0  0  0  0  0  0  0  0  0  0  0  0
    7.2090    2.0711    0.0000 H   0  0  0  0  0  0  0  0  0  0  0  0
    3.4399    1.4087    0.0000 H   0  0  0  0  0  0  0  0  0  0  0  0
    2.5930    1.6357    0.0000 H   0  0  0  0  0  0  0  0  0  0  0  0
    2.3660    0.7887    0.0000 H   0  0  0  0  0  0  0  0  0  0  0  0
    3.3660   -0.9433    0.0000 H   0  0  0  0  0  0  0  0  0  0  0  0
    4.2130   -1.1703    0.0000 H   0  0  0  0  0  0  0  0  0  0  0  0
    4.4399   -0.3233    0.0000 H   0  0  0  0  0  0  0  0  0  0  0  0
    2.0000    0.0427    0.0000 H   0  0  0  0  0  0  0  0  0  0  0  0
  1 14  1  0  0  0  0
  1 45  1  0  0  0  0
  2  3  1  0  0  0  0
  2  5  1  0  0  0  0
  2  7  1  0  0  0  0
  2 11  1  0  0  0  0
  3  6  1  0  0  0  0
  3  9  1  0  0  0  0
  3 18  1  0  0  0  0
  4  6  1  0  0  0  0
  4  8  1  0  0  0  0
  4 12  1  0  0  0  0
  4 19  1  0  0  0  0
  5  8  1  0  0  0  0
  5 20  1  0  0  0  0
  5 21  1  0  0  0  0
  6 22  1  0  0  0  0
  6 23  1  0  0  0  0
  7 10  1  0  0  0  0
  7 24  1  0  0  0  0
  7 25  1  0  0  0  0
  8 26  1  0  0  0  0
  8 27  1  0  0  0  0
  9 13  1  0  0  0  0
  9 15  2  0  0  0  0
 10 13  1  0  0  0  0
 10 28  1  0  0  0  0
 10 29  1  0  0  0  0
 11 30  1  0  0  0  0
 11 31  1  0  0  0  0
 11 32  1  0  0  0  0
 12 14  1  0  0  0  0
 12 33  1  0  0  0  0
 12 34  1  0  0  0  0
 13 35  1  0  0  0  0
 13 36  1  0  0  0  0
 14 16  1  0  0  0  0
 14 17  1  0  0  0  0
 15 37  1  0  0  0  0
 15 38  1  0  0  0  0
 16 39  1  0  0  0  0
 16 40  1  0  0  0  0
 16 41  1  0  0  0  0
 17 42  1  0  0  0  0
 17 43  1  0  0  0  0
 17 44  1  0  0  0  0
M  END
>  <PUBCHEM_COMPOUND_CID>
6455496

>  <PUBCHEM_COMPOUND_CANONICALIZED>
1

>  <PUBCHEM_CACTVS_COMPLEXITY>
305

>  <PUBCHEM_CACTVS_HBOND_ACCEPTOR>
1

>  <PUBCHEM_CACTVS_HBOND_DONOR>
1

>  <PUBCHEM_CACTVS_ROTATABLE_BOND>
2

>  <PUBCHEM_CACTVS_SUBSKEYS>
AAADceB4IAAAAAAAAAAAAAAAAAAAAAAAAAAwYAAAAAAAAADAAAAAGgAACAAAD0SAgAACAAAAAgCAAgBCAAAAAAAgAAAAAAAAAAgAAAIAAQAAQAAEgAAAAAGAwPAPgAAAAAAAAACAAAQAACAAAAAAAAAAAA==

>  <PUBCHEM_IUPAC_OPENEYE_NAME>
1-(4a-methyl-8-methylene-decalin-2-yl)-2-methyl-propan-2-ol

>  <PUBCHEM_IUPAC_CAS_NAME>
1-(4a-methyl-8-methylene-1,2,3,4,5,6,7,8a-octahydronaphthalen-2-yl)-2-methyl-2-propanol

>  <PUBCHEM_IUPAC_NAME>
1-(4a-methyl-8-methylidene-1,2,3,4,5,6,7,8a-octahydronaphthalen-2-yl)-2-methylpropan-2-ol

>  <PUBCHEM_IUPAC_SYSTEMATIC_NAME>
1-(4a-methyl-8-methylidene-1,2,3,4,5,6,7,8a-octahydronaphthalen-2-yl)-2-methyl-propan-2-ol

>  <PUBCHEM_IUPAC_TRADITIONAL_NAME>
1-(4a-methyl-8-methylene-decalin-2-yl)-2-methyl-propan-2-ol

>  <PUBCHEM_IUPAC_INCHI>
InChI=1S/C16H28O/c1-12-6-5-8-16(4)9-7-13(10-14(12)16)11-15(2,3)17/h13-14,17H,1,5-11H2,2-4H3

>  <PUBCHEM_IUPAC_INCHIKEY>
GMZKBWZWDAAWPI-UHFFFAOYSA-N

>  <PUBCHEM_XLOGP3_AA>
4.5

>  <PUBCHEM_EXACT_MASS>
236.214

>  <PUBCHEM_MOLECULAR_FORMULA>
C16H28O

>  <PUBCHEM_MOLECULAR_WEIGHT>
236.399

>  <PUBCHEM_OPENEYE_CAN_SMILES>
CC12CCCC(=C)C1CC(CC2)CC(C)(C)O

>  <PUBCHEM_OPENEYE_ISO_SMILES>
CC12CCCC(=C)C1CC(CC2)CC(C)(C)O

>  <PUBCHEM_CACTVS_TPSA>
20.2

>  <PUBCHEM_MONOISOTOPIC_WEIGHT>
236.214

>  <PUBCHEM_TOTAL_CHARGE>
0

>  <PUBCHEM_HEAVY_ATOM_COUNT>
17

>  <PUBCHEM_ATOM_DEF_STEREO_COUNT>
0

>  <PUBCHEM_ATOM_UDEF_STEREO_COUNT>
3

>  <PUBCHEM_BOND_DEF_STEREO_COUNT>
0

>  <PUBCHEM_BOND_UDEF_STEREO_COUNT>
0

>  <PUBCHEM_ISOTOPIC_ATOM_COUNT>
0

>  <PUBCHEM_COMPONENT_COUNT>
1

>  <PUBCHEM_CACTVS_TAUTO_COUNT>
1

>  <PUBCHEM_COORDINATE_TYPE>
1
5
255

>  <PUBCHEM_BONDANNOTATIONS>
2  11  3
3  6  3
4  12  3

$$$$
