656760
 OpenBabel06101807152D

142149  0  0  1  0  0  0  0  0999 V2000
    6.8671   -1.6941    0.0000 O   0  0  0  0  0  0  0  0  0  0  0  0
    9.3112   -1.0024    0.0000 O   0  0  0  0  0  0  0  0  0  0  0  0
    8.6424    7.6604    0.0000 O   0  0  0  0  0  0  0  0  0  0  0  0
    5.1350   -1.6941    0.0000 O   0  0  0  0  0  0  0  0  0  0  0  0
    6.8671   -3.6941    0.0000 O   0  0  0  0  0  0  0  0  0  0  0  0
    5.1350   -4.6941    0.0000 O   0  0  0  0  0  0  0  0  0  0  0  0
    3.4030   -3.6941    0.0000 O   0  0  0  0  0  0  0  0  0  0  0  0
    6.0010   -5.1941    0.0000 O   0  0  0  0  0  0  0  0  0  0  0  0
    2.5369   -2.1941    0.0000 O   0  0  0  0  0  0  0  0  0  0  0  0
    3.4030   -0.6941    0.0000 O   0  0  0  0  0  0  0  0  0  0  0  0
    8.5991   -4.6941    0.0000 O   0  0  0  0  0  0  0  0  0  0  0  0
    8.5991   -6.6941    0.0000 O   0  0  0  0  0  0  0  0  0  0  0  0
    6.8671   -7.6941    0.0000 O   0  0  0  0  0  0  0  0  0  0  0  0
    9.4651   -6.1941    0.0000 O   0  0  0  0  0  0  0  0  0  0  0  0
    5.1350   -7.6941    0.0000 O   0  0  0  0  0  0  0  0  0  0  0  0
   10.3312   -3.6941    0.0000 O   0  0  0  0  0  0  0  0  0  0  0  0
   12.0632   -4.6941    0.0000 O   0  0  0  0  0  0  0  0  0  0  0  0
   12.0632   -6.6941    0.0000 O   0  0  0  0  0  0  0  0  0  0  0  0
    7.7681    3.0061    0.0000 C   0  0  2  0  0  0  0  0  0  0  0  0
    6.8920    1.4612    0.0000 C   0  0  2  0  0  0  0  0  0  0  0  0
    6.9040    2.5027    0.0000 C   0  0  1  0  0  0  0  0  0  0  0  0
    7.7643    4.0061    0.0000 C   0  0  1  0  0  0  0  0  0  0  0  0
    7.7920    0.9369    0.0000 C   0  0  2  0  0  0  0  0  0  0  0  0
    8.6801    2.5027    0.0000 C   0  0  0  0  0  0  0  0  0  0  0  0
    7.8046   -0.1480    0.0000 C   0  0  2  0  0  0  0  0  0  0  0  0
    8.6921    1.4612    0.0000 C   0  0  0  0  0  0  0  0  0  0  0  0
    6.8963    4.5027    0.0000 C   0  0  0  0  0  0  0  0  0  0  0  0
    5.9421    0.9369    0.0000 C   0  0  0  0  0  0  0  0  0  0  0  0
    6.0361    2.9994    0.0000 C   0  0  0  0  0  0  0  0  0  0  0  0
    6.8762    5.5442    0.0000 C   0  0  1  0  0  0  0  0  0  0  0  0
    8.6723    4.5164    0.0000 C   0  0  0  0  0  0  0  0  0  0  0  0
    7.7722    6.0754    0.0000 C   0  0  1  0  0  0  0  0  0  0  0  0
    6.8671   -0.6941    0.0000 C   0  0  2  0  0  0  0  0  0  0  0  0
    8.7522    3.1835    0.0000 C   0  0  0  0  0  0  0  0  0  0  0  0
    6.0279    1.9645    0.0000 C   0  0  0  0  0  0  0  0  0  0  0  0
    5.9295   -0.1480    0.0000 C   0  0  0  0  0  0  0  0  0  0  0  0
    8.6763    5.5580    0.0000 C   0  0  0  0  0  0  0  0  0  0  0  0
    6.0322    3.9994    0.0000 C   0  0  0  0  0  0  0  0  0  0  0  0
    8.7497    3.8362    0.0000 C   0  0  0  0  0  0  0  0  0  0  0  0
    5.9223    6.0611    0.0000 C   0  0  0  0  0  0  0  0  0  0  0  0
    8.8046   -0.1403    0.0000 C   0  0  0  0  0  0  0  0  0  0  0  0
    8.3113   -1.0102    0.0000 C   0  0  0  0  0  0  0  0  0  0  0  0
    5.9014    7.1459    0.0000 C   0  0  0  0  0  0  0  0  0  0  0  0
    7.7764    7.1604    0.0000 C   0  0  0  0  0  0  0  0  0  0  0  0
    8.6324    6.5854    0.0000 C   0  0  0  0  0  0  0  0  0  0  0  0
    6.8347    7.6992    0.0000 C   0  0  0  0  0  0  0  0  0  0  0  0
    5.3881    8.0041    0.0000 C   0  0  0  0  0  0  0  0  0  0  0  0
    4.9015    7.1305    0.0000 C   0  0  0  0  0  0  0  0  0  0  0  0
    6.0010   -2.1941    0.0000 C   0  0  2  0  0  0  0  0  0  0  0  0
    6.0010   -3.1941    0.0000 C   0  0  1  0  0  0  0  0  0  0  0  0
    5.1350   -3.6941    0.0000 C   0  0  2  0  0  0  0  0  0  0  0  0
    4.2690   -2.1941    0.0000 C   0  0  1  0  0  0  0  0  0  0  0  0
    4.2690   -3.1941    0.0000 C   0  0  1  0  0  0  0  0  0  0  0  0
    6.8671   -4.6941    0.0000 C   0  0  2  0  0  0  0  0  0  0  0  0
    3.4030   -1.6941    0.0000 C   0  0  0  0  0  0  0  0  0  0  0  0
    7.7331   -5.1941    0.0000 C   0  0  1  0  0  0  0  0  0  0  0  0
    7.7331   -6.1941    0.0000 C   0  0  2  0  0  0  0  0  0  0  0  0
    6.0010   -6.1941    0.0000 C   0  0  1  0  0  0  0  0  0  0  0  0
    6.8671   -6.6941    0.0000 C   0  0  2  0  0  0  0  0  0  0  0  0
    5.1350   -6.6941    0.0000 C   0  0  0  0  0  0  0  0  0  0  0  0
    9.4651   -5.1941    0.0000 C   0  0  2  0  0  0  0  0  0  0  0  0
   10.3312   -4.6941    0.0000 C   0  0  1  0  0  0  0  0  0  0  0  0
   11.1972   -5.1941    0.0000 C   0  0  1  0  0  0  0  0  0  0  0  0
   10.3312   -6.6941    0.0000 C   0  0  2  0  0  0  0  0  0  0  0  0
   11.1972   -6.1941    0.0000 C   0  0  2  0  0  0  0  0  0  0  0  0
   10.3312   -7.6941    0.0000 C   0  0  0  0  0  0  0  0  0  0  0  0
    7.6385    2.0749    0.0000 H   0  0  0  0  0  0  0  0  0  0  0  0
    8.5314    0.5176    0.0000 H   0  0  0  0  0  0  0  0  0  0  0  0
    9.2921    2.4037    0.0000 H   0  0  0  0  0  0  0  0  0  0  0  0
    8.8824    3.0888    0.0000 H   0  0  0  0  0  0  0  0  0  0  0  0
    8.9079    0.8800    0.0000 H   0  0  0  0  0  0  0  0  0  0  0  0
    9.3017    1.5743    0.0000 H   0  0  0  0  0  0  0  0  0  0  0  0
    5.7398    1.5230    0.0000 H   0  0  0  0  0  0  0  0  0  0  0  0
    5.3300    0.8379    0.0000 H   0  0  0  0  0  0  0  0  0  0  0  0
    5.4251    3.1047    0.0000 H   0  0  0  0  0  0  0  0  0  0  0  0
    5.8263    2.4160    0.0000 H   0  0  0  0  0  0  0  0  0  0  0  0
    6.1502    5.1023    0.0000 H   0  0  0  0  0  0  0  0  0  0  0  0
    8.8791    3.9319    0.0000 H   0  0  0  0  0  0  0  0  0  0  0  0
    9.2836    4.6202    0.0000 H   0  0  0  0  0  0  0  0  0  0  0  0
    7.4046   -1.0031    0.0000 H   0  0  0  0  0  0  0  0  0  0  0  0
    8.8623    2.5734    0.0000 H   0  0  0  0  0  0  0  0  0  0  0  0
    9.3624    3.2936    0.0000 H   0  0  0  0  0  0  0  0  0  0  0  0
    8.6422    3.7937    0.0000 H   0  0  0  0  0  0  0  0  0  0  0  0
    6.3400    2.5003    0.0000 H   0  0  0  0  0  0  0  0  0  0  0  0
    5.4922    2.2766    0.0000 H   0  0  0  0  0  0  0  0  0  0  0  0
    5.7158    1.4288    0.0000 H   0  0  0  0  0  0  0  0  0  0  0  0
    5.3199   -0.0349    0.0000 H   0  0  0  0  0  0  0  0  0  0  0  0
    5.7137   -0.7293    0.0000 H   0  0  0  0  0  0  0  0  0  0  0  0
    9.2868    5.4496    0.0000 H   0  0  0  0  0  0  0  0  0  0  0  0
    8.8876    6.1409    0.0000 H   0  0  0  0  0  0  0  0  0  0  0  0
    5.4941    4.3073    0.0000 H   0  0  0  0  0  0  0  0  0  0  0  0
    8.6444    3.2252    0.0000 H   0  0  0  0  0  0  0  0  0  0  0  0
    9.3607    3.7309    0.0000 H   0  0  0  0  0  0  0  0  0  0  0  0
    8.8550    4.4472    0.0000 H   0  0  0  0  0  0  0  0  0  0  0  0
    5.3095    6.1554    0.0000 H   0  0  0  0  0  0  0  0  0  0  0  0
    5.7246    5.4735    0.0000 H   0  0  0  0  0  0  0  0  0  0  0  0
    9.3855    0.0762    0.0000 H   0  0  0  0  0  0  0  0  0  0  0  0
    8.6922    0.4694    0.0000 H   0  0  0  0  0  0  0  0  0  0  0  0
    7.7767   -1.3243    0.0000 H   0  0  0  0  0  0  0  0  0  0  0  0
    8.6254   -1.5447    0.0000 H   0  0  0  0  0  0  0  0  0  0  0  0
    8.8458   -0.6960    0.0000 H   0  0  0  0  0  0  0  0  0  0  0  0
    8.9486    6.0521    0.0000 H   0  0  0  0  0  0  0  0  0  0  0  0
    9.1657    6.9016    0.0000 H   0  0  0  0  0  0  0  0  0  0  0  0
    8.3162    7.1187    0.0000 H   0  0  0  0  0  0  0  0  0  0  0  0
    7.2302    8.1767    0.0000 H   0  0  0  0  0  0  0  0  0  0  0  0
    6.4319    8.1706    0.0000 H   0  0  0  0  0  0  0  0  0  0  0  0
    5.9202    8.3224    0.0000 H   0  0  0  0  0  0  0  0  0  0  0  0
    5.0699    8.5362    0.0000 H   0  0  0  0  0  0  0  0  0  0  0  0
    4.8560    7.6859    0.0000 H   0  0  0  0  0  0  0  0  0  0  0  0
    4.8920    7.7504    0.0000 H   0  0  0  0  0  0  0  0  0  0  0  0
    4.2816    7.1209    0.0000 H   0  0  0  0  0  0  0  0  0  0  0  0
    4.9111    6.5106    0.0000 H   0  0  0  0  0  0  0  0  0  0  0  0
    6.0010   -1.5741    0.0000 H   0  0  0  0  0  0  0  0  0  0  0  0
    9.9312   -0.9977    0.0000 H   0  0  0  0  0  0  0  0  0  0  0  0
    6.0010   -3.8141    0.0000 H   0  0  0  0  0  0  0  0  0  0  0  0
    4.5981   -4.0041    0.0000 H   0  0  0  0  0  0  0  0  0  0  0  0
    4.2690   -1.5741    0.0000 H   0  0  0  0  0  0  0  0  0  0  0  0
    3.7320   -2.8841    0.0000 H   0  0  0  0  0  0  0  0  0  0  0  0
    7.4040   -4.3841    0.0000 H   0  0  0  0  0  0  0  0  0  0  0  0
    4.5981   -5.0041    0.0000 H   0  0  0  0  0  0  0  0  0  0  0  0
    3.4030   -4.3141    0.0000 H   0  0  0  0  0  0  0  0  0  0  0  0
    8.2700   -5.5041    0.0000 H   0  0  0  0  0  0  0  0  0  0  0  0
    7.7331   -6.8141    0.0000 H   0  0  0  0  0  0  0  0  0  0  0  0
    5.4641   -5.8841    0.0000 H   0  0  0  0  0  0  0  0  0  0  0  0
    6.3301   -7.0041    0.0000 H   0  0  0  0  0  0  0  0  0  0  0  0
    2.0000   -1.8841    0.0000 H   0  0  0  0  0  0  0  0  0  0  0  0
    4.9230   -6.1115    0.0000 H   0  0  0  0  0  0  0  0  0  0  0  0
    4.5244   -6.8018    0.0000 H   0  0  0  0  0  0  0  0  0  0  0  0
    9.4651   -4.5741    0.0000 H   0  0  0  0  0  0  0  0  0  0  0  0
    8.5991   -7.3141    0.0000 H   0  0  0  0  0  0  0  0  0  0  0  0
    7.4040   -8.0041    0.0000 H   0  0  0  0  0  0  0  0  0  0  0  0
   10.8681   -4.3841    0.0000 H   0  0  0  0  0  0  0  0  0  0  0  0
   11.7341   -5.5041    0.0000 H   0  0  0  0  0  0  0  0  0  0  0  0
    4.5981   -8.0041    0.0000 H   0  0  0  0  0  0  0  0  0  0  0  0
    9.7942   -7.0041    0.0000 H   0  0  0  0  0  0  0  0  0  0  0  0
   11.1972   -6.8141    0.0000 H   0  0  0  0  0  0  0  0  0  0  0  0
   10.8681   -3.3841    0.0000 H   0  0  0  0  0  0  0  0  0  0  0  0
    9.7112   -7.6941    0.0000 H   0  0  0  0  0  0  0  0  0  0  0  0
   10.3312   -8.3141    0.0000 H   0  0  0  0  0  0  0  0  0  0  0  0
   10.9512   -7.6941    0.0000 H   0  0  0  0  0  0  0  0  0  0  0  0
   12.6002   -5.0041    0.0000 H   0  0  0  0  0  0  0  0  0  0  0  0
   12.0632   -7.3141    0.0000 H   0  0  0  0  0  0  0  0  0  0  0  0
  2 41  1  0  0  0  0
  2114  1  0  0  0  0
  3 44  2  0  0  0  0
  4 49  1  0  0  0  0
  4 52  1  0  0  0  0
  6120  1  0  0  0  0
  7121  1  0  0  0  0
  8 54  1  0  0  0  0
  8 58  1  0  0  0  0
  9 55  1  0  0  0  0
  9126  1  0  0  0  0
 10 55  2  0  0  0  0
 12130  1  0  0  0  0
 13131  1  0  0  0  0
 14 61  1  0  0  0  0
 14 64  1  0  0  0  0
 15 60  1  0  0  0  0
 15134  1  0  0  0  0
 16137  1  0  0  0  0
 17141  1  0  0  0  0
 18142  1  0  0  0  0
 19 21  1  1  0  0  0
 19 24  1  0  0  0  0
 19 34  1  0  0  0  0
 20 21  1  6  0  0  0
 20 28  1  0  0  0  0
 20 35  1  0  0  0  0
 21 29  1  0  0  0  0
 21 67  1  6  0  0  0
 22 19  1  1  0  0  0
 22 27  1  0  0  0  0
 22 31  1  0  0  0  0
 22 39  1  0  0  0  0
 23 20  1  6  0  0  0
 23 26  1  0  0  0  0
 23 68  1  0  0  0  0
 24 26  1  0  0  0  0
 24 69  1  0  0  0  0
 24 70  1  0  0  0  0
 25 23  1  6  0  0  0
 25 41  1  0  0  0  0
 25 42  1  0  0  0  0
 26 71  1  0  0  0  0
 26 72  1  0  0  0  0
 27 30  1  0  0  0  0
 27 38  2  0  0  0  0
 28 36  1  0  0  0  0
 28 73  1  0  0  0  0
 28 74  1  0  0  0  0
 29 38  1  0  0  0  0
 29 75  1  0  0  0  0
 29 76  1  0  0  0  0
 30 32  1  1  0  0  0
 30 40  1  0  0  0  0
 30 77  1  0  0  0  0
 31 37  1  0  0  0  0
 31 78  1  0  0  0  0
 31 79  1  0  0  0  0
 32 37  1  0  0  0  0
 32 44  1  0  0  0  0
 32 45  1  1  0  0  0
 33  1  1  0  0  0  0
 33 25  1  1  0  0  0
 33 36  1  0  0  0  0
 33 80  1  0  0  0  0
 34 81  1  0  0  0  0
 34 82  1  0  0  0  0
 34 83  1  0  0  0  0
 35 84  1  0  0  0  0
 35 85  1  0  0  0  0
 35 86  1  0  0  0  0
 36 87  1  0  0  0  0
 36 88  1  0  0  0  0
 37 89  1  0  0  0  0
 37 90  1  0  0  0  0
 38 91  1  0  0  0  0
 39 92  1  0  0  0  0
 39 93  1  0  0  0  0
 39 94  1  0  0  0  0
 40 43  1  0  0  0  0
 40 95  1  0  0  0  0
 40 96  1  0  0  0  0
 41 97  1  0  0  0  0
 41 98  1  0  0  0  0
 42 99  1  0  0  0  0
 42100  1  0  0  0  0
 42101  1  0  0  0  0
 43 46  1  0  0  0  0
 43 47  1  0  0  0  0
 43 48  1  0  0  0  0
 44 46  1  0  0  0  0
 45102  1  0  0  0  0
 45103  1  0  0  0  0
 45104  1  0  0  0  0
 46105  1  0  0  0  0
 46106  1  0  0  0  0
 47107  1  0  0  0  0
 47108  1  0  0  0  0
 47109  1  0  0  0  0
 48110  1  0  0  0  0
 48111  1  0  0  0  0
 48112  1  0  0  0  0
 49  1  1  0  0  0  0
 49 50  1  6  0  0  0
 49113  1  0  0  0  0
 50  5  1  0  0  0  0
 50 51  1  6  0  0  0
 50115  1  0  0  0  0
 51  6  1  0  0  0  0
 51 53  1  1  0  0  0
 51116  1  0  0  0  0
 52 53  1  6  0  0  0
 52 55  1  0  0  0  0
 52117  1  0  0  0  0
 53  7  1  0  0  0  0
 53118  1  1  0  0  0
 54  5  1  0  0  0  0
 54 56  1  1  0  0  0
 54119  1  0  0  0  0
 56 11  1  0  0  0  0
 56 57  1  6  0  0  0
 56122  1  0  0  0  0
 57 12  1  0  0  0  0
 57 59  1  1  0  0  0
 57123  1  0  0  0  0
 58 59  1  6  0  0  0
 58 60  1  0  0  0  0
 58124  1  0  0  0  0
 59 13  1  0  0  0  0
 59125  1  6  0  0  0
 60127  1  0  0  0  0
 60128  1  0  0  0  0
 61 11  1  0  0  0  0
 61 62  1  1  0  0  0
 61129  1  0  0  0  0
 62 16  1  0  0  0  0
 62 63  1  6  0  0  0
 62132  1  0  0  0  0
 63 17  1  0  0  0  0
 63 65  1  6  0  0  0
 63133  1  0  0  0  0
 64 65  1  1  0  0  0
 64 66  1  0  0  0  0
 64135  1  0  0  0  0
 65 18  1  0  0  0  0
 65136  1  6  0  0  0
 66138  1  0  0  0  0
 66139  1  0  0  0  0
 66140  1  0  0  0  0
M  END
>  <PUBCHEM_COMPOUND_CID>
656760

>  <PUBCHEM_COMPOUND_CANONICALIZED>
1

>  <PUBCHEM_CACTVS_COMPLEXITY>
1860

>  <PUBCHEM_CACTVS_HBOND_ACCEPTOR>
18

>  <PUBCHEM_CACTVS_HBOND_DONOR>
10

>  <PUBCHEM_CACTVS_ROTATABLE_BOND>
9

>  <PUBCHEM_CACTVS_SUBSKEYS>
AAADcfB8PgAAAAAAAAAAAAAAAAAAAAAAAAA0aNGCAAAAAADAAAAAGgAACAAADxSwgAMCCAAABgCIAqDSCAIAAAAgAAAACAFAAAgREBYAAQQiQAAFoAAPAAPK7PzPgAAAAAAAAADAAAYAADAAAAAAAAAAAA==

>  <PUBCHEM_IUPAC_OPENEYE_NAME>
(2S,3S,4S,5R,6R)-6-[[(3S,4S,4aR,6aR,6bS,8aR,12aS,14aR,14bR)-4-(hydroxymethyl)-4,6a,6b,8a,11,11,14b-heptamethyl-9-oxo-2,3,4a,5,6,7,8,10,12,12a,14,14a-dodecahydro-1H-picen-3-yl]oxy]-5-[(2S,3R,4S,5R,6R)-4,5-dihydroxy-6-(hydroxymethyl)-3-[(2S,3R,4R,5R,6S)-3,4,5-trihydroxy-6-methyl-tetrahydropyran-2-yl]oxy-tetrahydropyran-2-yl]oxy-3,4-dihydroxy-tetrahydropyran-2-carboxylic acid

>  <PUBCHEM_IUPAC_CAS_NAME>
(2S,3S,4S,5R,6R)-6-[[(3S,4S,4aR,6aR,6bS,8aR,12aS,14aR,14bR)-4-(hydroxymethyl)-4,6a,6b,8a,11,11,14b-heptamethyl-9-oxo-2,3,4a,5,6,7,8,10,12,12a,14,14a-dodecahydro-1H-picen-3-yl]oxy]-5-[[(2S,3R,4S,5R,6R)-4,5-dihydroxy-6-(hydroxymethyl)-3-[[(2S,3R,4R,5R,6S)-3,4,5-trihydroxy-6-methyl-2-oxanyl]oxy]-2-oxanyl]oxy]-3,4-dihydroxy-2-oxanecarboxylic acid

>  <PUBCHEM_IUPAC_NAME>
(2S,3S,4S,5R,6R)-6-[[(3S,4S,4aR,6aR,6bS,8aR,12aS,14aR,14bR)-4-(hydroxymethyl)-4,6a,6b,8a,11,11,14b-heptamethyl-9-oxo-2,3,4a,5,6,7,8,10,12,12a,14,14a-dodecahydro-1H-picen-3-yl]oxy]-5-[(2S,3R,4S,5R,6R)-4,5-dihydroxy-6-(hydroxymethyl)-3-[(2S,3R,4R,5R,6S)-3,4,5-trihydroxy-6-methyloxan-2-yl]oxyoxan-2-yl]oxy-3,4-dihydroxyoxane-2-carboxylic acid

>  <PUBCHEM_IUPAC_SYSTEMATIC_NAME>
(2S,3S,4S,5R,6R)-6-[[(3S,4S,4aR,6aR,6bS,8aR,12aS,14aR,14bR)-4-(hydroxymethyl)-4,6a,6b,8a,11,11,14b-heptamethyl-9-oxidanylidene-2,3,4a,5,6,7,8,10,12,12a,14,14a-dodecahydro-1H-picen-3-yl]oxy]-5-[(2S,3R,4S,5R,6R)-6-(hydroxymethyl)-3-[(2S,3R,4R,5R,6S)-6-methyl-3,4,5-tris(oxidanyl)oxan-2-yl]oxy-4,5-bis(oxidanyl)oxan-2-yl]oxy-3,4-bis(oxidanyl)oxane-2-carboxylic acid

>  <PUBCHEM_IUPAC_TRADITIONAL_NAME>
(2S,3S,4S,5R,6R)-6-[[(3S,4S,4aR,6aR,6bS,8aR,12aS,14aR,14bR)-9-keto-4,6a,6b,8a,11,11,14b-heptamethyl-4-methylol-2,3,4a,5,6,7,8,10,12,12a,14,14a-dodecahydro-1H-picen-3-yl]oxy]-5-[(2S,3R,4S,5R,6R)-4,5-dihydroxy-6-methylol-3-[(2S,3R,4R,5R,6S)-3,4,5-trihydroxy-6-methyl-tetrahydropyran-2-yl]oxy-tetrahydropyran-2-yl]oxy-3,4-dihydroxy-tetrahydropyran-2-carboxylic acid

>  <PUBCHEM_IUPAC_INCHI>
InChI=1S/C48H76O18/c1-21-29(52)31(54)35(58)40(61-21)65-37-32(55)30(53)24(19-49)62-41(37)66-38-34(57)33(56)36(39(59)60)64-42(38)63-28-12-13-45(5)25(46(28,6)20-50)11-14-48(8)26(45)10-9-22-23-17-43(2,3)18-27(51)44(23,4)15-16-47(22,48)7/h9,21,23-26,28-38,40-42,49-50,52-58H,10-20H2,1-8H3,(H,59,60)/t21-,23-,24+,25+,26+,28-,29-,30-,31+,32-,33-,34-,35+,36-,37+,38+,40-,41-,42+,44+,45-,46+,47+,48+/m0/s1

>  <PUBCHEM_IUPAC_INCHIKEY>
CROUPKILZUPLQA-ITVSDQETSA-N

>  <PUBCHEM_XLOGP3_AA>
2.1

>  <PUBCHEM_EXACT_MASS>
940.503

>  <PUBCHEM_MOLECULAR_FORMULA>
C48H76O18

>  <PUBCHEM_MOLECULAR_WEIGHT>
941.118

>  <PUBCHEM_OPENEYE_CAN_SMILES>
CC1C(C(C(C(O1)OC2C(C(C(OC2OC3C(C(C(OC3OC4CCC5(C(C4(C)CO)CCC6(C5CC=C7C6(CCC8(C7CC(CC8=O)(C)C)C)C)C)C)C(=O)O)O)O)CO)O)O)O)O)O

>  <PUBCHEM_OPENEYE_ISO_SMILES>
C[C@H]1[C@@H]([C@H]([C@H]([C@@H](O1)O[C@@H]2[C@H]([C@H]([C@H](O[C@H]2O[C@@H]3[C@H]([C@@H]([C@H](O[C@H]3O[C@H]4CC[C@]5([C@H]([C@@]4(C)CO)CC[C@@]6([C@@H]5CC=C7[C@]6(CC[C@@]8([C@H]7CC(CC8=O)(C)C)C)C)C)C)C(=O)O)O)O)CO)O)O)O)O)O

>  <PUBCHEM_CACTVS_TPSA>
292

>  <PUBCHEM_MONOISOTOPIC_WEIGHT>
940.503

>  <PUBCHEM_TOTAL_CHARGE>
0

>  <PUBCHEM_HEAVY_ATOM_COUNT>
66

>  <PUBCHEM_ATOM_DEF_STEREO_COUNT>
24

>  <PUBCHEM_ATOM_UDEF_STEREO_COUNT>
0

>  <PUBCHEM_BOND_DEF_STEREO_COUNT>
0

>  <PUBCHEM_BOND_UDEF_STEREO_COUNT>
0

>  <PUBCHEM_ISOTOPIC_ATOM_COUNT>
0

>  <PUBCHEM_COMPONENT_COUNT>
1

>  <PUBCHEM_CACTVS_TAUTO_COUNT>
2

>  <PUBCHEM_COORDINATE_TYPE>
1
5
255

>  <PUBCHEM_BONDANNOTATIONS>
33  1  5
49  1  5
56  11  6
61  11  5
57  12  5
59  13  5
62  16  6
63  17  6
65  18  5
19  34  5
20  35  5
21  67  6
22  39  6
23  68  6
25  42  6
30  77  5
32  45  5
50  5  6
54  5  5
52  55  5
58  60  5
51  6  5
64  66  6
53  7  6

$$$$
