6710704
 OpenBabel06101807152D

 35 37  0  0  0  0  0  0  0  0999 V2000
    5.5301   -1.2602    0.0000 O   0  0  0  0  0  0  0  0  0  0  0  0
    3.7817    1.7744    0.0000 O   0  0  0  0  0  0  0  0  0  0  0  0
    2.0000   -1.2844    0.0000 O   0  0  0  0  0  0  0  0  0  0  0  0
    5.5301    1.7398    0.0000 O   0  0  0  0  0  0  0  0  0  0  0  0
    4.6641    0.2398    0.0000 C   0  0  0  0  0  0  0  0  0  0  0  0
    4.6641   -0.7602    0.0000 C   0  0  0  0  0  0  0  0  0  0  0  0
    6.3961    0.2398    0.0000 C   0  0  0  0  0  0  0  0  0  0  0  0
    5.5301    0.7398    0.0000 C   0  0  0  0  0  0  0  0  0  0  0  0
    3.7702    0.7744    0.0000 C   0  0  0  0  0  0  0  0  0  0  0  0
    7.2622    0.7398    0.0000 C   0  0  0  0  0  0  0  0  0  0  0  0
    3.7702   -1.2949    0.0000 C   0  0  0  0  0  0  0  0  0  0  0  0
    2.8641   -0.7810    0.0000 C   0  0  0  0  0  0  0  0  0  0  0  0
    2.8641    0.2606    0.0000 C   0  0  0  0  0  0  0  0  0  0  0  0
    6.3961   -0.7602    0.0000 C   0  0  0  0  0  0  0  0  0  0  0  0
    8.1282    0.2398    0.0000 C   0  0  0  0  0  0  0  0  0  0  0  0
    7.2622    1.7398    0.0000 C   0  0  0  0  0  0  0  0  0  0  0  0
    8.9942    0.7398    0.0000 C   0  0  0  0  0  0  0  0  0  0  0  0
    8.1282    2.2398    0.0000 C   0  0  0  0  0  0  0  0  0  0  0  0
    8.9942    1.7398    0.0000 C   0  0  0  0  0  0  0  0  0  0  0  0
    2.9215    2.2844    0.0000 C   0  0  0  0  0  0  0  0  0  0  0  0
    2.0038   -2.2844    0.0000 C   0  0  0  0  0  0  0  0  0  0  0  0
    3.7773   -1.9148    0.0000 H   0  0  0  0  0  0  0  0  0  0  0  0
    2.3284    0.5727    0.0000 H   0  0  0  0  0  0  0  0  0  0  0  0
    6.9331   -1.0702    0.0000 H   0  0  0  0  0  0  0  0  0  0  0  0
    8.1282   -0.3802    0.0000 H   0  0  0  0  0  0  0  0  0  0  0  0
    6.7252    2.0498    0.0000 H   0  0  0  0  0  0  0  0  0  0  0  0
    9.5312    0.4298    0.0000 H   0  0  0  0  0  0  0  0  0  0  0  0
    8.1282    2.8598    0.0000 H   0  0  0  0  0  0  0  0  0  0  0  0
    9.5312    2.0498    0.0000 H   0  0  0  0  0  0  0  0  0  0  0  0
    3.2377    2.8177    0.0000 H   0  0  0  0  0  0  0  0  0  0  0  0
    2.3882    2.6006    0.0000 H   0  0  0  0  0  0  0  0  0  0  0  0
    2.6054    1.7510    0.0000 H   0  0  0  0  0  0  0  0  0  0  0  0
    1.3839   -2.2868    0.0000 H   0  0  0  0  0  0  0  0  0  0  0  0
    2.0062   -2.9044    0.0000 H   0  0  0  0  0  0  0  0  0  0  0  0
    2.6238   -2.2820    0.0000 H   0  0  0  0  0  0  0  0  0  0  0  0
  1  6  1  0  0  0  0
  1 14  1  0  0  0  0
  2  9  1  0  0  0  0
  2 20  1  0  0  0  0
  3 12  1  0  0  0  0
  3 21  1  0  0  0  0
  4  8  2  0  0  0  0
  5  6  2  0  0  0  0
  5  8  1  0  0  0  0
  5  9  1  0  0  0  0
  6 11  1  0  0  0  0
  7  8  1  0  0  0  0
  7 10  1  0  0  0  0
  7 14  2  0  0  0  0
  9 13  2  0  0  0  0
 10 15  2  0  0  0  0
 10 16  1  0  0  0  0
 11 12  2  0  0  0  0
 11 22  1  0  0  0  0
 12 13  1  0  0  0  0
 13 23  1  0  0  0  0
 14 24  1  0  0  0  0
 15 17  1  0  0  0  0
 15 25  1  0  0  0  0
 16 18  2  0  0  0  0
 16 26  1  0  0  0  0
 17 19  2  0  0  0  0
 17 27  1  0  0  0  0
 18 19  1  0  0  0  0
 18 28  1  0  0  0  0
 19 29  1  0  0  0  0
 20 30  1  0  0  0  0
 20 31  1  0  0  0  0
 20 32  1  0  0  0  0
 21 33  1  0  0  0  0
 21 34  1  0  0  0  0
 21 35  1  0  0  0  0
M  END
>  <PUBCHEM_COMPOUND_CID>
6710704

>  <PUBCHEM_COMPOUND_CANONICALIZED>
1

>  <PUBCHEM_CACTVS_COMPLEXITY>
411

>  <PUBCHEM_CACTVS_HBOND_ACCEPTOR>
4

>  <PUBCHEM_CACTVS_HBOND_DONOR>
0

>  <PUBCHEM_CACTVS_ROTATABLE_BOND>
3

>  <PUBCHEM_CACTVS_SUBSKEYS>
AAADccB4OAAAAAAAAAAAAAAAAAAAAAAAAAAwYIAAAAAAAACBQAAAGgAAAAAADASgmAIyBoAABACIAqBSAAACCAAkIAAIiAEGCMgMJzaENRqAMWAl4BUIqYeI7PzOIAAACAAIAABAAAAQABAAAAAAAAAAAA==

>  <PUBCHEM_IUPAC_OPENEYE_NAME>
5,7-dimethoxy-3-phenyl-chromen-4-one

>  <PUBCHEM_IUPAC_CAS_NAME>
5,7-dimethoxy-3-phenyl-1-benzopyran-4-one

>  <PUBCHEM_IUPAC_NAME>
5,7-dimethoxy-3-phenylchromen-4-one

>  <PUBCHEM_IUPAC_SYSTEMATIC_NAME>
5,7-dimethoxy-3-phenyl-chromen-4-one

>  <PUBCHEM_IUPAC_TRADITIONAL_NAME>
5,7-dimethoxy-3-phenyl-chromone

>  <PUBCHEM_IUPAC_INCHI>
InChI=1S/C17H14O4/c1-19-12-8-14(20-2)16-15(9-12)21-10-13(17(16)18)11-6-4-3-5-7-11/h3-10H,1-2H3

>  <PUBCHEM_IUPAC_INCHIKEY>
CDSSYLTXYXEANW-UHFFFAOYSA-N

>  <PUBCHEM_XLOGP3_AA>
3.1

>  <PUBCHEM_EXACT_MASS>
282.089

>  <PUBCHEM_MOLECULAR_FORMULA>
C17H14O4

>  <PUBCHEM_MOLECULAR_WEIGHT>
282.295

>  <PUBCHEM_OPENEYE_CAN_SMILES>
COC1=CC(=C2C(=C1)OC=C(C2=O)C3=CC=CC=C3)OC

>  <PUBCHEM_OPENEYE_ISO_SMILES>
COC1=CC(=C2C(=C1)OC=C(C2=O)C3=CC=CC=C3)OC

>  <PUBCHEM_CACTVS_TPSA>
44.8

>  <PUBCHEM_MONOISOTOPIC_WEIGHT>
282.089

>  <PUBCHEM_TOTAL_CHARGE>
0

>  <PUBCHEM_HEAVY_ATOM_COUNT>
21

>  <PUBCHEM_ATOM_DEF_STEREO_COUNT>
0

>  <PUBCHEM_ATOM_UDEF_STEREO_COUNT>
0

>  <PUBCHEM_BOND_DEF_STEREO_COUNT>
0

>  <PUBCHEM_BOND_UDEF_STEREO_COUNT>
0

>  <PUBCHEM_ISOTOPIC_ATOM_COUNT>
0

>  <PUBCHEM_COMPONENT_COUNT>
1

>  <PUBCHEM_CACTVS_TAUTO_COUNT>
1

>  <PUBCHEM_COORDINATE_TYPE>
1
5
255

>  <PUBCHEM_BONDANNOTATIONS>
1  14  8
1  6  8
10  15  8
10  16  8
11  12  8
12  13  8
15  17  8
16  18  8
17  19  8
18  19  8
5  6  8
5  8  8
5  9  8
6  11  8
7  14  8
7  8  8
9  13  8

$$$$
