67126095
 OpenBabel06101807152D

 48 52  0  0  1  0  0  0  0  0999 V2000
    4.2690   -1.9876    0.0000 O   0  0  0  0  0  0  0  0  0  0  0  0
    6.0010   -1.9876    0.0000 O   0  0  0  0  0  0  0  0  0  0  0  0
    4.2690   -4.9876    0.0000 O   0  0  0  0  0  0  0  0  0  0  0  0
    2.5369   -3.9876    0.0000 O   0  0  0  0  0  0  0  0  0  0  0  0
    6.0010   -3.9876    0.0000 O   0  0  0  0  0  0  0  0  0  0  0  0
    7.7569    0.9774    0.0000 O   0  0  0  0  0  0  0  0  0  0  0  0
    4.2456    2.0675    0.0000 O   0  0  0  0  0  0  0  0  0  0  0  0
    7.7227   -1.0076    0.0000 O   0  0  0  0  0  0  0  0  0  0  0  0
    4.3799    4.0976    0.0000 O   0  0  0  0  0  0  0  0  0  0  0  0
    3.3513    0.5399    0.0000 O   0  0  0  0  0  0  0  0  0  0  0  0
    8.6523    2.4600    0.0000 O   0  0  0  0  0  0  0  0  0  0  0  0
    6.1388    5.0090    0.0000 O   0  0  0  0  0  0  0  0  0  0  0  0
    4.2690   -3.9876    0.0000 C   0  0  3  0  0  0  0  0  0  0  0  0
    3.4030   -3.4876    0.0000 C   0  0  3  0  0  0  0  0  0  0  0  0
    5.1350   -3.4876    0.0000 C   0  0  3  0  0  0  0  0  0  0  0  0
    3.4030   -2.4876    0.0000 C   0  0  3  0  0  0  0  0  0  0  0  0
    5.1350   -2.4876    0.0000 C   0  0  3  0  0  0  0  0  0  0  0  0
    2.5369   -1.9876    0.0000 C   0  0  0  0  0  0  0  0  0  0  0  0
    6.0010   -0.9876    0.0000 C   0  0  0  0  0  0  0  0  0  0  0  0
    6.0252    1.0115    0.0000 C   0  0  0  0  0  0  0  0  0  0  0  0
    6.0449    2.0113    0.0000 C   0  0  0  0  0  0  0  0  0  0  0  0
    5.1209    0.4945    0.0000 C   0  0  0  0  0  0  0  0  0  0  0  0
    6.8812    0.4945    0.0000 C   0  0  0  0  0  0  0  0  0  0  0  0
    6.8629   -0.4970    0.0000 C   0  0  0  0  0  0  0  0  0  0  0  0
    5.1392   -0.4970    0.0000 C   0  0  0  0  0  0  0  0  0  0  0  0
    6.9206    2.4941    0.0000 C   0  0  0  0  0  0  0  0  0  0  0  0
    5.1616    2.5634    0.0000 C   0  0  0  0  0  0  0  0  0  0  0  0
    4.2251    1.0261    0.0000 C   0  0  0  0  0  0  0  0  0  0  0  0
    7.7766    1.9772    0.0000 C   0  0  0  0  0  0  0  0  0  0  0  0
    5.2189    3.5535    0.0000 C   0  0  0  0  0  0  0  0  0  0  0  0
    6.9413    3.4856    0.0000 C   0  0  0  0  0  0  0  0  0  0  0  0
    6.0995    4.0097    0.0000 C   0  0  0  0  0  0  0  0  0  0  0  0
    4.8059   -4.2976    0.0000 H   0  0  0  0  0  0  0  0  0  0  0  0
    3.4030   -4.1076    0.0000 H   0  0  0  0  0  0  0  0  0  0  0  0
    5.6720   -3.1776    0.0000 H   0  0  0  0  0  0  0  0  0  0  0  0
    3.4030   -1.8676    0.0000 H   0  0  0  0  0  0  0  0  0  0  0  0
    5.1350   -1.8676    0.0000 H   0  0  0  0  0  0  0  0  0  0  0  0
    2.8469   -1.4506    0.0000 H   0  0  0  0  0  0  0  0  0  0  0  0
    2.0000   -1.6776    0.0000 H   0  0  0  0  0  0  0  0  0  0  0  0
    2.2269   -2.5245    0.0000 H   0  0  0  0  0  0  0  0  0  0  0  0
    3.7320   -5.2976    0.0000 H   0  0  0  0  0  0  0  0  0  0  0  0
    2.0000   -3.6776    0.0000 H   0  0  0  0  0  0  0  0  0  0  0  0
    6.0010   -4.6076    0.0000 H   0  0  0  0  0  0  0  0  0  0  0  0
    4.6061   -0.8136    0.0000 H   0  0  0  0  0  0  0  0  0  0  0  0
    7.4865    3.7810    0.0000 H   0  0  0  0  0  0  0  0  0  0  0  0
    8.2634   -0.7042    0.0000 H   0  0  0  0  0  0  0  0  0  0  0  0
    4.4119    4.7167    0.0000 H   0  0  0  0  0  0  0  0  0  0  0  0
    6.6876    5.2976    0.0000 H   0  0  0  0  0  0  0  0  0  0  0  0
  1 16  1  0  0  0  0
  1 17  1  0  0  0  0
  2 17  1  0  0  0  0
  2 19  1  0  0  0  0
  3 13  1  0  0  0  0
  3 41  1  0  0  0  0
  4 14  1  0  0  0  0
  4 42  1  0  0  0  0
  5 15  1  0  0  0  0
  5 43  1  0  0  0  0
  6 23  1  0  0  0  0
  6 29  1  0  0  0  0
  7 27  1  0  0  0  0
  7 28  1  0  0  0  0
  8 24  1  0  0  0  0
  8 46  1  0  0  0  0
  9 30  1  0  0  0  0
  9 47  1  0  0  0  0
 10 28  2  0  0  0  0
 11 29  2  0  0  0  0
 12 32  1  0  0  0  0
 12 48  1  0  0  0  0
 13 14  1  0  0  0  0
 13 15  1  0  0  0  0
 13 33  1  0  0  0  0
 14 16  1  0  0  0  0
 14 34  1  0  0  0  0
 15 17  1  0  0  0  0
 15 35  1  0  0  0  0
 16 18  1  0  0  0  0
 16 36  1  0  0  0  0
 17 37  1  0  0  0  0
 18 38  1  0  0  0  0
 18 39  1  0  0  0  0
 18 40  1  0  0  0  0
 19 24  2  0  0  0  0
 19 25  1  0  0  0  0
 20 21  1  0  0  0  0
 20 22  1  0  0  0  0
 20 23  2  0  0  0  0
 21 26  1  0  0  0  0
 21 27  2  0  0  0  0
 22 25  2  0  0  0  0
 22 28  1  0  0  0  0
 23 24  1  0  0  0  0
 25 44  1  0  0  0  0
 26 29  1  0  0  0  0
 26 31  2  0  0  0  0
 27 30  1  0  0  0  0
 30 32  2  0  0  0  0
 31 32  1  0  0  0  0
 31 45  1  0  0  0  0
M  END
>  <PUBCHEM_COMPOUND_CID>
67126095

>  <PUBCHEM_COMPOUND_CANONICALIZED>
1

>  <PUBCHEM_CACTVS_COMPLEXITY>
776

>  <PUBCHEM_CACTVS_HBOND_ACCEPTOR>
12

>  <PUBCHEM_CACTVS_HBOND_DONOR>
6

>  <PUBCHEM_CACTVS_ROTATABLE_BOND>
2

>  <PUBCHEM_CACTVS_SUBSKEYS>
AAADceB4PAAAAAAAAAAAAAAAAAAAAAAAAAA0aJECAAAAAACRQAAAGgAACAAADBSwmAMyDoAABgCIAiDSCAACCAAkIAAAiAEGiMgdNzKGNBqieyOlwBUPuYfK7PzOoAABCAAYQABAAAIQADCAAAAAAAAAAA==

>  <PUBCHEM_IUPAC_INCHI>
InChI=1S/C20H16O12/c1-4-11(22)14(25)15(26)20(29-4)30-8-3-6-10-9-5(18(27)32-17(10)13(8)24)2-7(21)12(23)16(9)31-19(6)28/h2-4,11,14-15,20-26H,1H3

>  <PUBCHEM_IUPAC_INCHIKEY>
NLOYJHDXNPMFKW-UHFFFAOYSA-N

>  <PUBCHEM_XLOGP3_AA>
-0.2

>  <PUBCHEM_EXACT_MASS>
448.064

>  <PUBCHEM_MOLECULAR_FORMULA>
C20H16O12

>  <PUBCHEM_MOLECULAR_WEIGHT>
448.336

>  <PUBCHEM_OPENEYE_CAN_SMILES>
CC1C(C(C(C(O1)OC2=C(C3=C4C(=C2)C(=O)OC5=C4C(=CC(=C5O)O)C(=O)O3)O)O)O)O

>  <PUBCHEM_OPENEYE_ISO_SMILES>
CC1C(C(C(C(O1)OC2=C(C3=C4C(=C2)C(=O)OC5=C4C(=CC(=C5O)O)C(=O)O3)O)O)O)O

>  <PUBCHEM_CACTVS_TPSA>
192

>  <PUBCHEM_MONOISOTOPIC_WEIGHT>
448.064

>  <PUBCHEM_TOTAL_CHARGE>
0

>  <PUBCHEM_HEAVY_ATOM_COUNT>
32

>  <PUBCHEM_ATOM_DEF_STEREO_COUNT>
0

>  <PUBCHEM_ATOM_UDEF_STEREO_COUNT>
5

>  <PUBCHEM_BOND_DEF_STEREO_COUNT>
0

>  <PUBCHEM_BOND_UDEF_STEREO_COUNT>
0

>  <PUBCHEM_ISOTOPIC_ATOM_COUNT>
0

>  <PUBCHEM_COMPONENT_COUNT>
1

>  <PUBCHEM_CACTVS_TAUTO_COUNT>
88

>  <PUBCHEM_COORDINATE_TYPE>
1
5
255

>  <PUBCHEM_BONDANNOTATIONS>
16  18  3
19  24  8
19  25  8
17  2  3
20  21  8
20  22  8
20  23  8
21  26  8
21  27  8
22  25  8
22  28  8
23  24  8
26  29  8
26  31  8
27  30  8
13  3  3
30  32  8
31  32  8
14  4  3
15  5  3
6  23  8
6  29  8
7  27  8
7  28  8

$$$$
