67937868
 OpenBabel06101807152D

 30 32  0  0  0  0  0  0  0  0999 V2000
    4.6783   -1.8398    0.0000 N   0  0  0  0  0  0  0  0  0  0  0  0
    3.7320   -1.5350    0.0000 C   0  0  0  0  0  0  0  0  0  0  0  0
    3.7320   -0.5350    0.0000 C   0  0  0  0  0  0  0  0  0  0  0  0
    5.2619   -1.0350    0.0000 C   0  0  0  0  0  0  0  0  0  0  0  0
    4.6783   -0.2303    0.0000 C   0  0  0  0  0  0  0  0  0  0  0  0
    2.8660   -2.0350    0.0000 C   0  0  0  0  0  0  0  0  0  0  0  0
    2.8660   -0.0350    0.0000 C   0  0  0  0  0  0  0  0  0  0  0  0
    6.2619   -1.0350    0.0000 C   0  0  0  0  0  0  0  0  0  0  0  0
    2.0000   -1.5350    0.0000 C   0  0  0  0  0  0  0  0  0  0  0  0
    2.0000   -0.5350    0.0000 C   0  0  0  0  0  0  0  0  0  0  0  0
    6.7619   -0.1690    0.0000 C   0  0  0  0  0  0  0  0  0  0  0  0
    6.2619    0.6970    0.0000 C   0  0  0  0  0  0  0  0  0  0  0  0
    6.7619    1.5630    0.0000 C   0  0  0  0  0  0  0  0  0  0  0  0
    5.2619    0.6970    0.0000 C   0  0  0  0  0  0  0  0  0  0  0  0
    6.2619    2.4291    0.0000 C   0  0  0  0  0  0  0  0  0  0  0  0
    4.7619    1.5630    0.0000 C   0  0  0  0  0  0  0  0  0  0  0  0
    5.2619    2.4291    0.0000 C   0  0  0  0  0  0  0  0  0  0  0  0
    4.8709   -2.4291    0.0000 H   0  0  0  0  0  0  0  0  0  0  0  0
    4.8709    0.3590    0.0000 H   0  0  0  0  0  0  0  0  0  0  0  0
    2.8660   -2.6550    0.0000 H   0  0  0  0  0  0  0  0  0  0  0  0
    2.8660    0.5850    0.0000 H   0  0  0  0  0  0  0  0  0  0  0  0
    6.5719   -1.5720    0.0000 H   0  0  0  0  0  0  0  0  0  0  0  0
    1.4631   -1.8450    0.0000 H   0  0  0  0  0  0  0  0  0  0  0  0
    1.4631   -0.2250    0.0000 H   0  0  0  0  0  0  0  0  0  0  0  0
    7.3819   -0.1690    0.0000 H   0  0  0  0  0  0  0  0  0  0  0  0
    7.3819    1.5630    0.0000 H   0  0  0  0  0  0  0  0  0  0  0  0
    4.9519    0.1601    0.0000 H   0  0  0  0  0  0  0  0  0  0  0  0
    6.5719    2.9660    0.0000 H   0  0  0  0  0  0  0  0  0  0  0  0
    4.1419    1.5630    0.0000 H   0  0  0  0  0  0  0  0  0  0  0  0
    4.9519    2.9660    0.0000 H   0  0  0  0  0  0  0  0  0  0  0  0
  1  2  1  0  0  0  0
  1  4  1  0  0  0  0
  1 18  1  0  0  0  0
  2  3  1  0  0  0  0
  2  6  2  0  0  0  0
  3  5  1  0  0  0  0
  3  7  2  0  0  0  0
  4  5  2  0  0  0  0
  4  8  1  0  0  0  0
  5 19  1  0  0  0  0
  6  9  1  0  0  0  0
  6 20  1  0  0  0  0
  7 10  1  0  0  0  0
  7 21  1  0  0  0  0
  8 11  2  0  0  0  0
  8 22  1  0  0  0  0
  9 10  2  0  0  0  0
  9 23  1  0  0  0  0
 10 24  1  0  0  0  0
 11 12  1  0  0  0  0
 11 25  1  0  0  0  0
 12 13  2  0  0  0  0
 12 14  1  0  0  0  0
 13 15  1  0  0  0  0
 13 26  1  0  0  0  0
 14 16  2  0  0  0  0
 14 27  1  0  0  0  0
 15 17  2  0  0  0  0
 15 28  1  0  0  0  0
 16 17  1  0  0  0  0
 16 29  1  0  0  0  0
 17 30  1  0  0  0  0
M  END
>  <PUBCHEM_COMPOUND_CID>
67937868

>  <PUBCHEM_COMPOUND_CANONICALIZED>
1

>  <PUBCHEM_CACTVS_COMPLEXITY>
265

>  <PUBCHEM_CACTVS_HBOND_ACCEPTOR>
0

>  <PUBCHEM_CACTVS_HBOND_DONOR>
1

>  <PUBCHEM_CACTVS_ROTATABLE_BOND>
2

>  <PUBCHEM_CACTVS_SUBSKEYS>
AAADccB6AAAAAAAAAAAAAAAAAAAAAWAAAAAwYAAAAAAAAFgB9AAAHAAQAAAADAiBHgAwwPLJkACgAyRiRACCgCAhAiAImSAwZJgIIOLAkZGEIAhgkADIyAcQgIAOAAAAAAACAAAAAAAAAAQAAAAAAAAAAA==

>  <PUBCHEM_IUPAC_OPENEYE_NAME>
2-[(Z)-styryl]-1H-indole

>  <PUBCHEM_IUPAC_CAS_NAME>
2-[(Z)-2-phenylethenyl]-1H-indole

>  <PUBCHEM_IUPAC_NAME>
2-[(Z)-2-phenylethenyl]-1H-indole

>  <PUBCHEM_IUPAC_SYSTEMATIC_NAME>
2-[(Z)-2-phenylethenyl]-1H-indole

>  <PUBCHEM_IUPAC_TRADITIONAL_NAME>
2-[(Z)-styryl]-1H-indole

>  <PUBCHEM_IUPAC_INCHI>
InChI=1S/C16H13N/c1-2-6-13(7-3-1)10-11-15-12-14-8-4-5-9-16(14)17-15/h1-12,17H/b11-10-

>  <PUBCHEM_IUPAC_INCHIKEY>
IINBTRZAAVTTRD-KHPPLWFESA-N

>  <PUBCHEM_XLOGP3>
4.4

>  <PUBCHEM_EXACT_MASS>
219.105

>  <PUBCHEM_MOLECULAR_FORMULA>
C16H13N

>  <PUBCHEM_MOLECULAR_WEIGHT>
219.287

>  <PUBCHEM_OPENEYE_CAN_SMILES>
C1=CC=C(C=C1)C=CC2=CC3=CC=CC=C3N2

>  <PUBCHEM_OPENEYE_ISO_SMILES>
C1=CC=C(C=C1)/C=C\C2=CC3=CC=CC=C3N2

>  <PUBCHEM_CACTVS_TPSA>
15.8

>  <PUBCHEM_MONOISOTOPIC_WEIGHT>
219.105

>  <PUBCHEM_TOTAL_CHARGE>
0

>  <PUBCHEM_HEAVY_ATOM_COUNT>
17

>  <PUBCHEM_ATOM_DEF_STEREO_COUNT>
0

>  <PUBCHEM_ATOM_UDEF_STEREO_COUNT>
0

>  <PUBCHEM_BOND_DEF_STEREO_COUNT>
1

>  <PUBCHEM_BOND_UDEF_STEREO_COUNT>
0

>  <PUBCHEM_ISOTOPIC_ATOM_COUNT>
0

>  <PUBCHEM_COMPONENT_COUNT>
1

>  <PUBCHEM_CACTVS_TAUTO_COUNT>
2

>  <PUBCHEM_COORDINATE_TYPE>
1
5
255

>  <PUBCHEM_BONDANNOTATIONS>
1  2  8
1  4  8
12  13  8
12  14  8
13  15  8
14  16  8
15  17  8
16  17  8
2  3  8
2  6  8
3  5  8
3  7  8
4  5  8
6  9  8
7  10  8
9  10  8

$$$$
