6828855
 OpenBabel06101807152D

 50 52  0  0  1  0  0  0  0  0999 V2000
    6.0010   -0.7342    0.0000 S   0  0  0  0  0  0  0  0  0  0  0  0
    4.2690    2.2658    0.0000 S   0  0  0  0  0  0  0  0  0  0  0  0
    4.2690   -0.7342    0.0000 O   0  0  0  0  0  0  0  0  0  0  0  0
    4.2690   -3.7342    0.0000 O   0  0  0  0  0  0  0  0  0  0  0  0
    2.5369   -2.7342    0.0000 O   0  0  0  0  0  0  0  0  0  0  0  0
    6.0010   -2.7342    0.0000 O   0  0  0  0  0  0  0  0  0  0  0  0
    2.5369    0.2658    0.0000 O   0  0  0  0  0  0  0  0  0  0  0  0
    5.1350    1.7658    0.0000 O   0  0  0  0  0  0  0  0  0  0  0  0
    8.9610    1.1926    0.0000 O   0  0  0  0  0  0  0  0  0  0  0  0
    3.4030    2.7658    0.0000 O   0  0  0  0  0  0  0  0  0  0  0  0
    4.7690    3.1318    0.0000 O   0  0  0  0  0  0  0  0  0  0  0  0
    3.7690    1.3998    0.0000 O   0  0  0  0  0  0  0  0  0  0  0  0
    6.3671    3.2956    0.0000 N   0  0  0  0  0  0  0  0  0  0  0  0
    5.1350    0.7658    0.0000 N   0  0  0  0  0  0  0  0  0  0  0  0
    4.2690   -2.7342    0.0000 C   0  0  3  0  0  0  0  0  0  0  0  0
    3.4030   -2.2342    0.0000 C   0  0  3  0  0  0  0  0  0  0  0  0
    5.1350   -2.2342    0.0000 C   0  0  3  0  0  0  0  0  0  0  0  0
    3.4030   -1.2342    0.0000 C   0  0  3  0  0  0  0  0  0  0  0  0
    5.1350   -1.2342    0.0000 C   0  0  3  0  0  0  0  0  0  0  0  0
    2.5369   -0.7342    0.0000 C   0  0  0  0  0  0  0  0  0  0  0  0
    6.0010    0.2658    0.0000 C   0  0  0  0  0  0  0  0  0  0  0  0
    6.8671    0.7658    0.0000 C   0  0  0  0  0  0  0  0  0  0  0  0
    6.8671    1.7658    0.0000 C   0  0  0  0  0  0  0  0  0  0  0  0
    7.6718    2.3494    0.0000 C   0  0  0  0  0  0  0  0  0  0  0  0
    7.3611    3.2999    0.0000 C   0  0  0  0  0  0  0  0  0  0  0  0
    6.0623    2.3494    0.0000 C   0  0  0  0  0  0  0  0  0  0  0  0
    8.6503    2.1432    0.0000 C   0  0  0  0  0  0  0  0  0  0  0  0
    8.0290    4.0442    0.0000 C   0  0  0  0  0  0  0  0  0  0  0  0
    9.3181    2.8875    0.0000 C   0  0  0  0  0  0  0  0  0  0  0  0
    9.0075    3.8380    0.0000 C   0  0  0  0  0  0  0  0  0  0  0  0
    4.8059   -3.0442    0.0000 H   0  0  0  0  0  0  0  0  0  0  0  0
    3.4030   -2.8542    0.0000 H   0  0  0  0  0  0  0  0  0  0  0  0
    5.6720   -1.9242    0.0000 H   0  0  0  0  0  0  0  0  0  0  0  0
    3.4030   -0.6142    0.0000 H   0  0  0  0  0  0  0  0  0  0  0  0
    5.1350   -0.6142    0.0000 H   0  0  0  0  0  0  0  0  0  0  0  0
    1.9264   -0.6266    0.0000 H   0  0  0  0  0  0  0  0  0  0  0  0
    2.3249   -1.3168    0.0000 H   0  0  0  0  0  0  0  0  0  0  0  0
    3.7320   -4.0442    0.0000 H   0  0  0  0  0  0  0  0  0  0  0  0
    2.0000   -2.4242    0.0000 H   0  0  0  0  0  0  0  0  0  0  0  0
    6.5380   -2.4242    0.0000 H   0  0  0  0  0  0  0  0  0  0  0  0
    7.0791    0.1832    0.0000 H   0  0  0  0  0  0  0  0  0  0  0  0
    7.4776    0.8734    0.0000 H   0  0  0  0  0  0  0  0  0  0  0  0
    2.0000    0.5758    0.0000 H   0  0  0  0  0  0  0  0  0  0  0  0
    5.4730    2.1568    0.0000 H   0  0  0  0  0  0  0  0  0  0  0  0
    6.0009    3.7959    0.0000 H   0  0  0  0  0  0  0  0  0  0  0  0
    7.8364    4.6335    0.0000 H   0  0  0  0  0  0  0  0  0  0  0  0
    9.9248    2.7596    0.0000 H   0  0  0  0  0  0  0  0  0  0  0  0
    9.4216    4.2995    0.0000 H   0  0  0  0  0  0  0  0  0  0  0  0
    9.5676    1.0648    0.0000 H   0  0  0  0  0  0  0  0  0  0  0  0
    3.4030    3.3858    0.0000 H   0  0  0  0  0  0  0  0  0  0  0  0
  1 19  1  0  0  0  0
  1 21  1  0  0  0  0
  2  8  1  0  0  0  0
  2 10  1  0  0  0  0
  2 11  2  0  0  0  0
  2 12  2  0  0  0  0
  3 18  1  0  0  0  0
  3 19  1  0  0  0  0
  4 15  1  0  0  0  0
  4 38  1  0  0  0  0
  5 16  1  0  0  0  0
  5 39  1  0  0  0  0
  6 17  1  0  0  0  0
  6 40  1  0  0  0  0
  7 20  1  0  0  0  0
  7 43  1  0  0  0  0
  8 14  1  0  0  0  0
  9 27  1  0  0  0  0
  9 49  1  0  0  0  0
 10 50  1  0  0  0  0
 13 25  1  0  0  0  0
 13 26  1  0  0  0  0
 13 45  1  0  0  0  0
 14 21  2  0  0  0  0
 15 16  1  0  0  0  0
 15 17  1  0  0  0  0
 15 31  1  0  0  0  0
 16 18  1  0  0  0  0
 16 32  1  0  0  0  0
 17 19  1  0  0  0  0
 17 33  1  0  0  0  0
 18 20  1  0  0  0  0
 18 34  1  0  0  0  0
 19 35  1  0  0  0  0
 20 36  1  0  0  0  0
 20 37  1  0  0  0  0
 21 22  1  0  0  0  0
 22 23  1  0  0  0  0
 22 41  1  0  0  0  0
 22 42  1  0  0  0  0
 23 24  1  0  0  0  0
 23 26  2  0  0  0  0
 24 25  2  0  0  0  0
 24 27  1  0  0  0  0
 25 28  1  0  0  0  0
 26 44  1  0  0  0  0
 27 29  2  0  0  0  0
 28 30  2  0  0  0  0
 28 46  1  0  0  0  0
 29 30  1  0  0  0  0
 29 47  1  0  0  0  0
 30 48  1  0  0  0  0
M  END
>  <PUBCHEM_COMPOUND_CID>
6828855

>  <PUBCHEM_COMPOUND_CANONICALIZED>
1

>  <PUBCHEM_CACTVS_COMPLEXITY>
717

>  <PUBCHEM_CACTVS_HBOND_ACCEPTOR>
12

>  <PUBCHEM_CACTVS_HBOND_DONOR>
7

>  <PUBCHEM_CACTVS_ROTATABLE_BOND>
7

>  <PUBCHEM_CACTVS_SUBSKEYS>
AAADceB7PABgAAAAAAAAAAAAAAAAAWAAAAA0QAAAAAAAAFgB8AAAHgQUCAAADBzl3ga8xvLZloigAzRnRDCCgCAxIjAI2aA+bJgJNuLikZOGcAhn0Bnr2Afw8OcOgAAAAgAKAAAAAAAEABQAAAAAAAAAAA==

>  <PUBCHEM_IUPAC_OPENEYE_NAME>
[3,4,5-trihydroxy-6-(hydroxymethyl)tetrahydropyran-2-yl] (1E)-2-(4-hydroxy-1H-indol-3-yl)-N-sulfooxy-ethanimidothioate

>  <PUBCHEM_IUPAC_CAS_NAME>
(1E)-2-(4-hydroxy-1H-indol-3-yl)-N-sulfooxyethanimidothioic acid [3,4,5-trihydroxy-6-(hydroxymethyl)-2-oxanyl] ester

>  <PUBCHEM_IUPAC_NAME>
[3,4,5-trihydroxy-6-(hydroxymethyl)oxan-2-yl] (1E)-2-(4-hydroxy-1H-indol-3-yl)-N-sulfooxyethanimidothioate

>  <PUBCHEM_IUPAC_SYSTEMATIC_NAME>
[6-(hydroxymethyl)-3,4,5-tris(oxidanyl)oxan-2-yl] (1E)-2-(4-oxidanyl-1H-indol-3-yl)-N-sulfooxy-ethanimidothioate

>  <PUBCHEM_IUPAC_TRADITIONAL_NAME>
(1E)-2-(4-hydroxy-1H-indol-3-yl)-N-sulfoxy-thioacetimidic acid (3,4,5-trihydroxy-6-methylol-tetrahydropyran-2-yl) ester

>  <PUBCHEM_IUPAC_INCHI>
InChI=1S/C16H20N2O10S2/c19-6-10-13(21)14(22)15(23)16(27-10)29-11(18-28-30(24,25)26)4-7-5-17-8-2-1-3-9(20)12(7)8/h1-3,5,10,13-17,19-23H,4,6H2,(H,24,25,26)/b18-11+

>  <PUBCHEM_IUPAC_INCHIKEY>
CSMYCLLHRFFFLG-WOJGMQOQSA-N

>  <PUBCHEM_XLOGP3_AA>
-0.4

>  <PUBCHEM_EXACT_MASS>
464.056

>  <PUBCHEM_MOLECULAR_FORMULA>
C16H20N2O10S2

>  <PUBCHEM_MOLECULAR_WEIGHT>
464.46

>  <PUBCHEM_OPENEYE_CAN_SMILES>
C1=CC2=C(C(=C1)O)C(=CN2)CC(=NOS(=O)(=O)O)SC3C(C(C(C(O3)CO)O)O)O

>  <PUBCHEM_OPENEYE_ISO_SMILES>
C1=CC2=C(C(=C1)O)C(=CN2)C/C(=N\OS(=O)(=O)O)/SC3C(C(C(C(O3)CO)O)O)O

>  <PUBCHEM_CACTVS_TPSA>
236

>  <PUBCHEM_MONOISOTOPIC_WEIGHT>
464.056

>  <PUBCHEM_TOTAL_CHARGE>
0

>  <PUBCHEM_HEAVY_ATOM_COUNT>
30

>  <PUBCHEM_ATOM_DEF_STEREO_COUNT>
0

>  <PUBCHEM_ATOM_UDEF_STEREO_COUNT>
5

>  <PUBCHEM_BOND_DEF_STEREO_COUNT>
1

>  <PUBCHEM_BOND_UDEF_STEREO_COUNT>
0

>  <PUBCHEM_ISOTOPIC_ATOM_COUNT>
0

>  <PUBCHEM_COMPONENT_COUNT>
1

>  <PUBCHEM_CACTVS_TAUTO_COUNT>
27

>  <PUBCHEM_COORDINATE_TYPE>
1
5
255

>  <PUBCHEM_BONDANNOTATIONS>
19  1  3
13  25  8
13  26  8
18  20  3
23  24  8
23  26  8
24  25  8
24  27  8
25  28  8
27  29  8
28  30  8
29  30  8
15  4  3
16  5  3
17  6  3

$$$$
