6850730
 OpenBabel06101807152D

168167  0  0  1  0  0  0  0  0999 V2000
   17.5885    6.0000    0.0000 O   0  0  0  0  0  0  0  0  0  0  0  0
   18.4545    4.5000    0.0000 O   0  0  0  0  0  0  0  0  0  0  0  0
   20.1865    6.5000    0.0000 O   0  0  0  0  0  0  0  0  0  0  0  0
   16.7224    7.5000    0.0000 O   0  0  0  0  0  0  0  0  0  0  0  0
   19.3205    3.0000    0.0000 O   0  0  0  0  0  0  0  0  0  0  0  0
   21.9186    7.5000    0.0000 O   0  0  0  0  0  0  0  0  0  0  0  0
    9.7942    6.5000    0.0000 C   0  0  0  0  0  0  0  0  0  0  0  0
    8.9282    6.0000    0.0000 C   0  0  0  0  0  0  0  0  0  0  0  0
   10.6603    6.0000    0.0000 C   0  0  0  0  0  0  0  0  0  0  0  0
    8.0622    6.5000    0.0000 C   0  0  0  0  0  0  0  0  0  0  0  0
   11.5263    6.5000    0.0000 C   0  0  0  0  0  0  0  0  0  0  0  0
    7.1962    6.0000    0.0000 C   0  0  0  0  0  0  0  0  0  0  0  0
    6.3301    6.5000    0.0000 C   0  0  0  0  0  0  0  0  0  0  0  0
   12.3923    6.0000    0.0000 C   0  0  0  0  0  0  0  0  0  0  0  0
   14.9904   -1.5000    0.0000 C   0  0  0  0  0  0  0  0  0  0  0  0
   14.9904   -2.5000    0.0000 C   0  0  0  0  0  0  0  0  0  0  0  0
   14.1244   -3.0000    0.0000 C   0  0  0  0  0  0  0  0  0  0  0  0
   15.8564   -1.0000    0.0000 C   0  0  0  0  0  0  0  0  0  0  0  0
    5.4641    6.0000    0.0000 C   0  0  0  0  0  0  0  0  0  0  0  0
   13.2583    6.5000    0.0000 C   0  0  0  0  0  0  0  0  0  0  0  0
   14.1244   -4.0000    0.0000 C   0  0  0  0  0  0  0  0  0  0  0  0
   15.8564    0.0000    0.0000 C   0  0  0  0  0  0  0  0  0  0  0  0
   13.2583   -4.5000    0.0000 C   0  0  0  0  0  0  0  0  0  0  0  0
   16.7224    0.5000    0.0000 C   0  0  0  0  0  0  0  0  0  0  0  0
    4.5981    6.5000    0.0000 C   0  0  0  0  0  0  0  0  0  0  0  0
   14.1244    6.0000    0.0000 C   0  0  0  0  0  0  0  0  0  0  0  0
   13.2583   -5.5000    0.0000 C   0  0  0  0  0  0  0  0  0  0  0  0
   16.7224    1.5000    0.0000 C   0  0  0  0  0  0  0  0  0  0  0  0
    3.7320    6.0000    0.0000 C   0  0  0  0  0  0  0  0  0  0  0  0
   14.9904    6.5000    0.0000 C   0  0  0  0  0  0  0  0  0  0  0  0
   12.3923   -6.0000    0.0000 C   0  0  0  0  0  0  0  0  0  0  0  0
   17.5885    2.0000    0.0000 C   0  0  0  0  0  0  0  0  0  0  0  0
    2.8660    6.5000    0.0000 C   0  0  0  0  0  0  0  0  0  0  0  0
   15.8564    6.0000    0.0000 C   0  0  0  0  0  0  0  0  0  0  0  0
   12.3923   -7.0000    0.0000 C   0  0  0  0  0  0  0  0  0  0  0  0
   17.5885    3.0000    0.0000 C   0  0  0  0  0  0  0  0  0  0  0  0
    2.0000    6.0000    0.0000 C   0  0  0  0  0  0  0  0  0  0  0  0
   25.3827    6.5000    0.0000 C   0  0  0  0  0  0  0  0  0  0  0  0
   24.5167    6.0000    0.0000 C   0  0  0  0  0  0  0  0  0  0  0  0
   26.2487    6.0000    0.0000 C   0  0  0  0  0  0  0  0  0  0  0  0
   16.7224    6.5000    0.0000 C   0  0  0  0  0  0  0  0  0  0  0  0
   11.5263   -7.5000    0.0000 C   0  0  0  0  0  0  0  0  0  0  0  0
   19.3205    6.0000    0.0000 C   0  0  3  0  0  0  0  0  0  0  0  0
   23.6506    6.5000    0.0000 C   0  0  0  0  0  0  0  0  0  0  0  0
   27.1147    6.5000    0.0000 C   0  0  0  0  0  0  0  0  0  0  0  0
   18.4545    3.5000    0.0000 C   0  0  0  0  0  0  0  0  0  0  0  0
   30.5788    3.5000    0.0000 C   0  0  0  0  0  0  0  0  0  0  0  0
   31.4449    3.0000    0.0000 C   0  0  0  0  0  0  0  0  0  0  0  0
   18.4545    6.5000    0.0000 C   0  0  0  0  0  0  0  0  0  0  0  0
   30.5788    4.5000    0.0000 C   0  0  0  0  0  0  0  0  0  0  0  0
   31.4449    2.0000    0.0000 C   0  0  0  0  0  0  0  0  0  0  0  0
   19.3205    5.0000    0.0000 C   0  0  0  0  0  0  0  0  0  0  0  0
   22.7846    6.0000    0.0000 C   0  0  0  0  0  0  0  0  0  0  0  0
   27.9808    6.0000    0.0000 C   0  0  0  0  0  0  0  0  0  0  0  0
   29.7128    5.0000    0.0000 C   0  0  0  0  0  0  0  0  0  0  0  0
   32.3109    1.5000    0.0000 C   0  0  0  0  0  0  0  0  0  0  0  0
   21.9186    6.5000    0.0000 C   0  0  0  0  0  0  0  0  0  0  0  0
   21.0526    6.0000    0.0000 C   0  0  0  0  0  0  0  0  0  0  0  0
   28.8468    6.5000    0.0000 C   0  0  0  0  0  0  0  0  0  0  0  0
   29.7128    6.0000    0.0000 C   0  0  0  0  0  0  0  0  0  0  0  0
   32.3109    0.5000    0.0000 C   0  0  0  0  0  0  0  0  0  0  0  0
   33.1769    0.0000    0.0000 C   0  0  0  0  0  0  0  0  0  0  0  0
   10.1928    6.9750    0.0000 H   0  0  0  0  0  0  0  0  0  0  0  0
    9.3957    6.9750    0.0000 H   0  0  0  0  0  0  0  0  0  0  0  0
    8.5297    5.5250    0.0000 H   0  0  0  0  0  0  0  0  0  0  0  0
    9.3267    5.5250    0.0000 H   0  0  0  0  0  0  0  0  0  0  0  0
   10.2617    5.5250    0.0000 H   0  0  0  0  0  0  0  0  0  0  0  0
   11.0588    5.5250    0.0000 H   0  0  0  0  0  0  0  0  0  0  0  0
    8.4607    6.9750    0.0000 H   0  0  0  0  0  0  0  0  0  0  0  0
    7.6636    6.9750    0.0000 H   0  0  0  0  0  0  0  0  0  0  0  0
   11.9248    6.9750    0.0000 H   0  0  0  0  0  0  0  0  0  0  0  0
   11.1278    6.9750    0.0000 H   0  0  0  0  0  0  0  0  0  0  0  0
    6.7976    5.5250    0.0000 H   0  0  0  0  0  0  0  0  0  0  0  0
    7.5947    5.5250    0.0000 H   0  0  0  0  0  0  0  0  0  0  0  0
    6.7287    6.9750    0.0000 H   0  0  0  0  0  0  0  0  0  0  0  0
    5.9316    6.9750    0.0000 H   0  0  0  0  0  0  0  0  0  0  0  0
   11.9938    5.5250    0.0000 H   0  0  0  0  0  0  0  0  0  0  0  0
   12.7908    5.5250    0.0000 H   0  0  0  0  0  0  0  0  0  0  0  0
   14.7783   -0.9174    0.0000 H   0  0  0  0  0  0  0  0  0  0  0  0
   14.3798   -1.6077    0.0000 H   0  0  0  0  0  0  0  0  0  0  0  0
   15.2024   -3.0826    0.0000 H   0  0  0  0  0  0  0  0  0  0  0  0
   15.6010   -2.3923    0.0000 H   0  0  0  0  0  0  0  0  0  0  0  0
   13.9123   -2.4174    0.0000 H   0  0  0  0  0  0  0  0  0  0  0  0
   13.5138   -3.1077    0.0000 H   0  0  0  0  0  0  0  0  0  0  0  0
   16.0685   -1.5826    0.0000 H   0  0  0  0  0  0  0  0  0  0  0  0
   16.4670   -0.8923    0.0000 H   0  0  0  0  0  0  0  0  0  0  0  0
    5.0656    5.5250    0.0000 H   0  0  0  0  0  0  0  0  0  0  0  0
    5.8626    5.5250    0.0000 H   0  0  0  0  0  0  0  0  0  0  0  0
   13.6569    6.9750    0.0000 H   0  0  0  0  0  0  0  0  0  0  0  0
   12.8598    6.9750    0.0000 H   0  0  0  0  0  0  0  0  0  0  0  0
   14.3364   -4.5826    0.0000 H   0  0  0  0  0  0  0  0  0  0  0  0
   14.7349   -3.8923    0.0000 H   0  0  0  0  0  0  0  0  0  0  0  0
   15.6444    0.5826    0.0000 H   0  0  0  0  0  0  0  0  0  0  0  0
   15.2458   -0.1077    0.0000 H   0  0  0  0  0  0  0  0  0  0  0  0
   13.0463   -3.9174    0.0000 H   0  0  0  0  0  0  0  0  0  0  0  0
   12.6477   -4.6077    0.0000 H   0  0  0  0  0  0  0  0  0  0  0  0
   16.9345   -0.0826    0.0000 H   0  0  0  0  0  0  0  0  0  0  0  0
   17.3330    0.6077    0.0000 H   0  0  0  0  0  0  0  0  0  0  0  0
    4.9966    6.9750    0.0000 H   0  0  0  0  0  0  0  0  0  0  0  0
    4.1996    6.9750    0.0000 H   0  0  0  0  0  0  0  0  0  0  0  0
   13.7258    5.5250    0.0000 H   0  0  0  0  0  0  0  0  0  0  0  0
   14.5229    5.5250    0.0000 H   0  0  0  0  0  0  0  0  0  0  0  0
   13.4704   -6.0826    0.0000 H   0  0  0  0  0  0  0  0  0  0  0  0
   13.8689   -5.3923    0.0000 H   0  0  0  0  0  0  0  0  0  0  0  0
   16.5104    2.0826    0.0000 H   0  0  0  0  0  0  0  0  0  0  0  0
   16.1119    1.3923    0.0000 H   0  0  0  0  0  0  0  0  0  0  0  0
    3.3335    5.5250    0.0000 H   0  0  0  0  0  0  0  0  0  0  0  0
    4.1306    5.5250    0.0000 H   0  0  0  0  0  0  0  0  0  0  0  0
   15.3889    6.9750    0.0000 H   0  0  0  0  0  0  0  0  0  0  0  0
   14.5919    6.9750    0.0000 H   0  0  0  0  0  0  0  0  0  0  0  0
   12.1803   -5.4174    0.0000 H   0  0  0  0  0  0  0  0  0  0  0  0
   11.7817   -6.1077    0.0000 H   0  0  0  0  0  0  0  0  0  0  0  0
   17.8005    1.4174    0.0000 H   0  0  0  0  0  0  0  0  0  0  0  0
   18.1990    2.1077    0.0000 H   0  0  0  0  0  0  0  0  0  0  0  0
    3.2646    6.9750    0.0000 H   0  0  0  0  0  0  0  0  0  0  0  0
    2.4675    6.9750    0.0000 H   0  0  0  0  0  0  0  0  0  0  0  0
   15.4579    5.5250    0.0000 H   0  0  0  0  0  0  0  0  0  0  0  0
   16.2549    5.5250    0.0000 H   0  0  0  0  0  0  0  0  0  0  0  0
   12.6044   -7.5826    0.0000 H   0  0  0  0  0  0  0  0  0  0  0  0
   13.0029   -6.8923    0.0000 H   0  0  0  0  0  0  0  0  0  0  0  0
   17.3764    3.5826    0.0000 H   0  0  0  0  0  0  0  0  0  0  0  0
   16.9779    2.8923    0.0000 H   0  0  0  0  0  0  0  0  0  0  0  0
   25.7812    6.9750    0.0000 H   0  0  0  0  0  0  0  0  0  0  0  0
   24.9842    6.9750    0.0000 H   0  0  0  0  0  0  0  0  0  0  0  0
    1.6900    6.5369    0.0000 H   0  0  0  0  0  0  0  0  0  0  0  0
    1.4631    5.6900    0.0000 H   0  0  0  0  0  0  0  0  0  0  0  0
    2.3100    5.4631    0.0000 H   0  0  0  0  0  0  0  0  0  0  0  0
   24.1181    5.5250    0.0000 H   0  0  0  0  0  0  0  0  0  0  0  0
   24.9152    5.5250    0.0000 H   0  0  0  0  0  0  0  0  0  0  0  0
   25.8502    5.5250    0.0000 H   0  0  0  0  0  0  0  0  0  0  0  0
   26.6472    5.5250    0.0000 H   0  0  0  0  0  0  0  0  0  0  0  0
   11.2163   -6.9631    0.0000 H   0  0  0  0  0  0  0  0  0  0  0  0
   10.9893   -7.8100    0.0000 H   0  0  0  0  0  0  0  0  0  0  0  0
   11.8363   -8.0369    0.0000 H   0  0  0  0  0  0  0  0  0  0  0  0
   24.0492    6.9750    0.0000 H   0  0  0  0  0  0  0  0  0  0  0  0
   23.2521    6.9750    0.0000 H   0  0  0  0  0  0  0  0  0  0  0  0
   19.8574    5.6900    0.0000 H   0  0  0  0  0  0  0  0  0  0  0  0
   27.5133    6.9750    0.0000 H   0  0  0  0  0  0  0  0  0  0  0  0
   26.7162    6.9750    0.0000 H   0  0  0  0  0  0  0  0  0  0  0  0
   29.9683    3.6077    0.0000 H   0  0  0  0  0  0  0  0  0  0  0  0
   30.3668    2.9174    0.0000 H   0  0  0  0  0  0  0  0  0  0  0  0
   32.0554    2.8923    0.0000 H   0  0  0  0  0  0  0  0  0  0  0  0
   31.6569    3.5826    0.0000 H   0  0  0  0  0  0  0  0  0  0  0  0
   31.1894    4.3923    0.0000 H   0  0  0  0  0  0  0  0  0  0  0  0
   30.7909    5.0826    0.0000 H   0  0  0  0  0  0  0  0  0  0  0  0
   18.8530    6.9750    0.0000 H   0  0  0  0  0  0  0  0  0  0  0  0
   18.0560    6.9750    0.0000 H   0  0  0  0  0  0  0  0  0  0  0  0
   30.8343    2.1077    0.0000 H   0  0  0  0  0  0  0  0  0  0  0  0
   31.2328    1.4174    0.0000 H   0  0  0  0  0  0  0  0  0  0  0  0
   19.5326    4.4174    0.0000 H   0  0  0  0  0  0  0  0  0  0  0  0
   19.9311    5.1077    0.0000 H   0  0  0  0  0  0  0  0  0  0  0  0
   22.3861    5.5250    0.0000 H   0  0  0  0  0  0  0  0  0  0  0  0
   23.1831    5.5250    0.0000 H   0  0  0  0  0  0  0  0  0  0  0  0
   27.5822    5.5250    0.0000 H   0  0  0  0  0  0  0  0  0  0  0  0
   28.3793    5.5250    0.0000 H   0  0  0  0  0  0  0  0  0  0  0  0
   29.1022    5.1077    0.0000 H   0  0  0  0  0  0  0  0  0  0  0  0
   29.5008    4.4174    0.0000 H   0  0  0  0  0  0  0  0  0  0  0  0
   32.9215    1.3923    0.0000 H   0  0  0  0  0  0  0  0  0  0  0  0
   32.5229    2.0826    0.0000 H   0  0  0  0  0  0  0  0  0  0  0  0
   20.6540    5.5250    0.0000 H   0  0  0  0  0  0  0  0  0  0  0  0
   21.4511    5.5250    0.0000 H   0  0  0  0  0  0  0  0  0  0  0  0
   28.8468    7.1200    0.0000 H   0  0  0  0  0  0  0  0  0  0  0  0
   30.2497    6.3100    0.0000 H   0  0  0  0  0  0  0  0  0  0  0  0
   31.7003    0.6077    0.0000 H   0  0  0  0  0  0  0  0  0  0  0  0
   32.0988   -0.0826    0.0000 H   0  0  0  0  0  0  0  0  0  0  0  0
   32.8669   -0.5369    0.0000 H   0  0  0  0  0  0  0  0  0  0  0  0
   33.7138   -0.3100    0.0000 H   0  0  0  0  0  0  0  0  0  0  0  0
   33.4869    0.5369    0.0000 H   0  0  0  0  0  0  0  0  0  0  0  0
  1 41  1  0  0  0  0
  1 49  1  0  0  0  0
  2 46  1  0  0  0  0
  2 52  1  0  0  0  0
  3 43  1  0  0  0  0
  3 58  1  0  0  0  0
  4 41  2  0  0  0  0
  5 46  2  0  0  0  0
  6 57  2  0  0  0  0
  7  8  1  0  0  0  0
  7  9  1  0  0  0  0
  7 63  1  0  0  0  0
  7 64  1  0  0  0  0
  8 10  1  0  0  0  0
  8 65  1  0  0  0  0
  8 66  1  0  0  0  0
  9 11  1  0  0  0  0
  9 67  1  0  0  0  0
  9 68  1  0  0  0  0
 10 12  1  0  0  0  0
 10 69  1  0  0  0  0
 10 70  1  0  0  0  0
 11 14  1  0  0  0  0
 11 71  1  0  0  0  0
 11 72  1  0  0  0  0
 12 13  1  0  0  0  0
 12 73  1  0  0  0  0
 12 74  1  0  0  0  0
 13 19  1  0  0  0  0
 13 75  1  0  0  0  0
 13 76  1  0  0  0  0
 14 20  1  0  0  0  0
 14 77  1  0  0  0  0
 14 78  1  0  0  0  0
 15 16  1  0  0  0  0
 15 18  1  0  0  0  0
 15 79  1  0  0  0  0
 15 80  1  0  0  0  0
 16 17  1  0  0  0  0
 16 81  1  0  0  0  0
 16 82  1  0  0  0  0
 17 21  1  0  0  0  0
 17 83  1  0  0  0  0
 17 84  1  0  0  0  0
 18 22  1  0  0  0  0
 18 85  1  0  0  0  0
 18 86  1  0  0  0  0
 19 25  1  0  0  0  0
 19 87  1  0  0  0  0
 19 88  1  0  0  0  0
 20 26  1  0  0  0  0
 20 89  1  0  0  0  0
 20 90  1  0  0  0  0
 21 23  1  0  0  0  0
 21 91  1  0  0  0  0
 21 92  1  0  0  0  0
 22 24  1  0  0  0  0
 22 93  1  0  0  0  0
 22 94  1  0  0  0  0
 23 27  1  0  0  0  0
 23 95  1  0  0  0  0
 23 96  1  0  0  0  0
 24 28  1  0  0  0  0
 24 97  1  0  0  0  0
 24 98  1  0  0  0  0
 25 29  1  0  0  0  0
 25 99  1  0  0  0  0
 25100  1  0  0  0  0
 26 30  1  0  0  0  0
 26101  1  0  0  0  0
 26102  1  0  0  0  0
 27 31  1  0  0  0  0
 27103  1  0  0  0  0
 27104  1  0  0  0  0
 28 32  1  0  0  0  0
 28105  1  0  0  0  0
 28106  1  0  0  0  0
 29 33  1  0  0  0  0
 29107  1  0  0  0  0
 29108  1  0  0  0  0
 30 34  1  0  0  0  0
 30109  1  0  0  0  0
 30110  1  0  0  0  0
 31 35  1  0  0  0  0
 31111  1  0  0  0  0
 31112  1  0  0  0  0
 32 36  1  0  0  0  0
 32113  1  0  0  0  0
 32114  1  0  0  0  0
 33 37  1  0  0  0  0
 33115  1  0  0  0  0
 33116  1  0  0  0  0
 34 41  1  0  0  0  0
 34117  1  0  0  0  0
 34118  1  0  0  0  0
 35 42  1  0  0  0  0
 35119  1  0  0  0  0
 35120  1  0  0  0  0
 36 46  1  0  0  0  0
 36121  1  0  0  0  0
 36122  1  0  0  0  0
 37125  1  0  0  0  0
 37126  1  0  0  0  0
 37127  1  0  0  0  0
 38 39  1  0  0  0  0
 38 40  1  0  0  0  0
 38123  1  0  0  0  0
 38124  1  0  0  0  0
 39 44  1  0  0  0  0
 39128  1  0  0  0  0
 39129  1  0  0  0  0
 40 45  1  0  0  0  0
 40130  1  0  0  0  0
 40131  1  0  0  0  0
 42132  1  0  0  0  0
 42133  1  0  0  0  0
 42134  1  0  0  0  0
 43 49  1  0  0  0  0
 43 52  1  0  0  0  0
 43137  1  0  0  0  0
 44 53  1  0  0  0  0
 44135  1  0  0  0  0
 44136  1  0  0  0  0
 45 54  1  0  0  0  0
 45138  1  0  0  0  0
 45139  1  0  0  0  0
 47 48  1  0  0  0  0
 47 50  1  0  0  0  0
 47140  1  0  0  0  0
 47141  1  0  0  0  0
 48 51  1  0  0  0  0
 48142  1  0  0  0  0
 48143  1  0  0  0  0
 49146  1  0  0  0  0
 49147  1  0  0  0  0
 50 55  1  0  0  0  0
 50144  1  0  0  0  0
 50145  1  0  0  0  0
 51 56  1  0  0  0  0
 51148  1  0  0  0  0
 51149  1  0  0  0  0
 52150  1  0  0  0  0
 52151  1  0  0  0  0
 53 57  1  0  0  0  0
 53152  1  0  0  0  0
 53153  1  0  0  0  0
 54 59  1  0  0  0  0
 54154  1  0  0  0  0
 54155  1  0  0  0  0
 55 60  1  0  0  0  0
 55156  1  0  0  0  0
 55157  1  0  0  0  0
 56 61  1  0  0  0  0
 56158  1  0  0  0  0
 56159  1  0  0  0  0
 57 58  1  0  0  0  0
 58160  1  0  0  0  0
 58161  1  0  0  0  0
 59 60  2  0  0  0  0
 59162  1  0  0  0  0
 60163  1  0  0  0  0
 61 62  1  0  0  0  0
 61164  1  0  0  0  0
 61165  1  0  0  0  0
 62166  1  0  0  0  0
 62167  1  0  0  0  0
 62168  1  0  0  0  0
M  END
>  <PUBCHEM_COMPOUND_CID>
6850730

>  <PUBCHEM_COMPOUND_CANONICALIZED>
1

>  <PUBCHEM_CACTVS_COMPLEXITY>
962

>  <PUBCHEM_CACTVS_HBOND_ACCEPTOR>
6

>  <PUBCHEM_CACTVS_HBOND_DONOR>
0

>  <PUBCHEM_CACTVS_ROTATABLE_BOND>
54

>  <PUBCHEM_CACTVS_SUBSKEYS>
AAADcfB8OAAAAAAAAAAAAAAAAAAAAAAAAAAAAAAAAAAAAAAAAAAAGgAAAAAACBSggAICCAAABACIAKDSCAIAAAAgAAAICAFAAAgBABIAAQQCAAAFgAAKAAOIyKCAAAAAAAAAAAAAAAAAAAAAAAAAAAAAAA==

>  <PUBCHEM_IUPAC_OPENEYE_NAME>
[3-hexadecanoyloxy-2-[(Z)-2-oxononadec-10-enoxy]propyl] octadecanoate

>  <PUBCHEM_IUPAC_CAS_NAME>
octadecanoic acid [3-(1-oxohexadecoxy)-2-[(Z)-2-oxononadec-10-enoxy]propyl] ester

>  <PUBCHEM_IUPAC_NAME>
[3-hexadecanoyloxy-2-[(Z)-2-oxononadec-10-enoxy]propyl] octadecanoate

>  <PUBCHEM_IUPAC_SYSTEMATIC_NAME>
[3-hexadecanoyloxy-2-[(Z)-2-oxidanylidenenonadec-10-enoxy]propyl] octadecanoate

>  <PUBCHEM_IUPAC_TRADITIONAL_NAME>
stearic acid [3-hexadecanoyloxy-2-[(Z)-2-ketononadec-10-enoxy]propyl] ester

>  <PUBCHEM_IUPAC_INCHI>
InChI=1S/C56H106O6/c1-4-7-10-13-16-19-22-25-27-30-32-35-38-41-44-47-53(57)50-60-54(51-61-55(58)48-45-42-39-36-33-29-24-21-18-15-12-9-6-3)52-62-56(59)49-46-43-40-37-34-31-28-26-23-20-17-14-11-8-5-2/h25,27,54H,4-24,26,28-52H2,1-3H3/b27-25-

>  <PUBCHEM_IUPAC_INCHIKEY>
JOHGUOMDFLEFNX-RFBIWTDZSA-N

>  <PUBCHEM_XLOGP3_AA>
22.9

>  <PUBCHEM_EXACT_MASS>
874.799

>  <PUBCHEM_MOLECULAR_FORMULA>
C56H106O6

>  <PUBCHEM_MOLECULAR_WEIGHT>
875.458

>  <PUBCHEM_OPENEYE_CAN_SMILES>
CCCCCCCCCCCCCCCCCC(=O)OCC(COC(=O)CCCCCCCCCCCCCCC)OCC(=O)CCCCCCCC=CCCCCCCCC

>  <PUBCHEM_OPENEYE_ISO_SMILES>
CCCCCCCCCCCCCCCCCC(=O)OCC(COC(=O)CCCCCCCCCCCCCCC)OCC(=O)CCCCCCC/C=C\CCCCCCCC

>  <PUBCHEM_CACTVS_TPSA>
78.9

>  <PUBCHEM_MONOISOTOPIC_WEIGHT>
874.799

>  <PUBCHEM_TOTAL_CHARGE>
0

>  <PUBCHEM_HEAVY_ATOM_COUNT>
62

>  <PUBCHEM_ATOM_DEF_STEREO_COUNT>
0

>  <PUBCHEM_ATOM_UDEF_STEREO_COUNT>
1

>  <PUBCHEM_BOND_DEF_STEREO_COUNT>
1

>  <PUBCHEM_BOND_UDEF_STEREO_COUNT>
0

>  <PUBCHEM_ISOTOPIC_ATOM_COUNT>
0

>  <PUBCHEM_COMPONENT_COUNT>
1

>  <PUBCHEM_CACTVS_TAUTO_COUNT>
3

>  <PUBCHEM_COORDINATE_TYPE>
1
5
255

>  <PUBCHEM_BONDANNOTATIONS>
43  52  3

$$$$
