68633080
 OpenBabel06101807152D

 60 64  0  0  0  0  0  0  0  0999 V2000
    9.6297    1.8047    0.0000 N   0  0  0  0  0  0  0  0  0  0  0  0
    9.6297    7.1104    0.0000 N   0  0  0  0  0  0  0  0  0  0  0  0
    3.2152    7.1104    0.0000 N   0  0  0  0  0  0  0  0  0  0  0  0
    9.6297   12.4161    0.0000 N   0  0  0  0  0  0  0  0  0  0  0  0
    9.6297    0.1953    0.0000 N   0  0  0  0  0  0  0  0  0  0  0  0
    9.6297    5.5010    0.0000 N   0  0  0  0  0  0  0  0  0  0  0  0
    3.2152    5.5010    0.0000 N   0  0  0  0  0  0  0  0  0  0  0  0
    9.6297   10.8067    0.0000 N   0  0  0  0  0  0  0  0  0  0  0  0
    7.8175   10.6114    0.0000 N   0  0  0  0  0  0  0  0  0  0  0  0
    1.4030    5.3057    0.0000 N   0  0  0  0  0  0  0  0  0  0  0  0
    7.8175    5.3057    0.0000 N   0  0  0  0  0  0  0  0  0  0  0  0
    7.8175    0.0000    0.0000 N   0  0  0  0  0  0  0  0  0  0  0  0
    6.9514    1.5000    0.0000 N   0  0  0  0  0  0  0  0  0  0  0  0
    6.9514    6.8057    0.0000 N   0  0  0  0  0  0  0  0  0  0  0  0
    0.5369    6.8057    0.0000 N   0  0  0  0  0  0  0  0  0  0  0  0
    6.9514   12.1114    0.0000 N   0  0  0  0  0  0  0  0  0  0  0  0
    7.8175    3.0000    0.0000 N   0  0  0  0  0  0  0  0  0  0  0  0
    7.8175    8.3057    0.0000 N   0  0  0  0  0  0  0  0  0  0  0  0
    1.4030    8.3057    0.0000 N   0  0  0  0  0  0  0  0  0  0  0  0
    7.8175   13.6114    0.0000 N   0  0  0  0  0  0  0  0  0  0  0  0
    8.6835    1.5000    0.0000 C   0  0  0  0  0  0  0  0  0  0  0  0
    8.6835    6.8057    0.0000 C   0  0  0  0  0  0  0  0  0  0  0  0
    2.2690    6.8057    0.0000 C   0  0  0  0  0  0  0  0  0  0  0  0
    8.6835   12.1114    0.0000 C   0  0  0  0  0  0  0  0  0  0  0  0
    8.6835   11.1114    0.0000 C   0  0  0  0  0  0  0  0  0  0  0  0
    2.2690    5.8057    0.0000 C   0  0  0  0  0  0  0  0  0  0  0  0
    8.6835    5.8057    0.0000 C   0  0  0  0  0  0  0  0  0  0  0  0
    8.6835    0.5000    0.0000 C   0  0  0  0  0  0  0  0  0  0  0  0
    7.8175    2.0000    0.0000 C   0  0  0  0  0  0  0  0  0  0  0  0
    7.8175    7.3057    0.0000 C   0  0  0  0  0  0  0  0  0  0  0  0
    1.4030    7.3057    0.0000 C   0  0  0  0  0  0  0  0  0  0  0  0
    7.8175   12.6114    0.0000 C   0  0  0  0  0  0  0  0  0  0  0  0
   10.2133    1.0000    0.0000 C   0  0  0  0  0  0  0  0  0  0  0  0
   10.2133    6.3057    0.0000 C   0  0  0  0  0  0  0  0  0  0  0  0
    3.7988    6.3057    0.0000 C   0  0  0  0  0  0  0  0  0  0  0  0
   10.2133   11.6114    0.0000 C   0  0  0  0  0  0  0  0  0  0  0  0
    6.9514    0.5000    0.0000 C   0  0  0  0  0  0  0  0  0  0  0  0
    6.9514    5.8057    0.0000 C   0  0  0  0  0  0  0  0  0  0  0  0
    0.5369    5.8057    0.0000 C   0  0  0  0  0  0  0  0  0  0  0  0
    6.9514   11.1114    0.0000 C   0  0  0  0  0  0  0  0  0  0  0  0
    9.8223   13.0054    0.0000 H   0  0  0  0  0  0  0  0  0  0  0  0
    3.4078    7.6998    0.0000 H   0  0  0  0  0  0  0  0  0  0  0  0
    9.8223    7.6998    0.0000 H   0  0  0  0  0  0  0  0  0  0  0  0
    9.8223    2.3940    0.0000 H   0  0  0  0  0  0  0  0  0  0  0  0
   10.8333    1.0000    0.0000 H   0  0  0  0  0  0  0  0  0  0  0  0
   10.8333    6.3057    0.0000 H   0  0  0  0  0  0  0  0  0  0  0  0
    4.4188    6.3057    0.0000 H   0  0  0  0  0  0  0  0  0  0  0  0
   10.8333   11.6114    0.0000 H   0  0  0  0  0  0  0  0  0  0  0  0
    6.4145    0.1900    0.0000 H   0  0  0  0  0  0  0  0  0  0  0  0
    6.4145    5.4957    0.0000 H   0  0  0  0  0  0  0  0  0  0  0  0
    0.0000    5.4957    0.0000 H   0  0  0  0  0  0  0  0  0  0  0  0
    6.4145   10.8014    0.0000 H   0  0  0  0  0  0  0  0  0  0  0  0
    0.8660    8.6157    0.0000 H   0  0  0  0  0  0  0  0  0  0  0  0
    1.9399    8.6157    0.0000 H   0  0  0  0  0  0  0  0  0  0  0  0
    7.2805   13.9214    0.0000 H   0  0  0  0  0  0  0  0  0  0  0  0
    8.3544   13.9214    0.0000 H   0  0  0  0  0  0  0  0  0  0  0  0
    7.2805    8.6157    0.0000 H   0  0  0  0  0  0  0  0  0  0  0  0
    8.3544    8.6157    0.0000 H   0  0  0  0  0  0  0  0  0  0  0  0
    7.2805    3.3100    0.0000 H   0  0  0  0  0  0  0  0  0  0  0  0
    8.3544    3.3100    0.0000 H   0  0  0  0  0  0  0  0  0  0  0  0
  1 21  1  0  0  0  0
  1 33  1  0  0  0  0
  1 44  1  0  0  0  0
  2 22  1  0  0  0  0
  2 34  1  0  0  0  0
  2 43  1  0  0  0  0
  3 23  1  0  0  0  0
  3 35  1  0  0  0  0
  3 42  1  0  0  0  0
  4 24  1  0  0  0  0
  4 36  1  0  0  0  0
  4 41  1  0  0  0  0
  5 28  1  0  0  0  0
  5 33  2  0  0  0  0
  6 27  1  0  0  0  0
  6 34  2  0  0  0  0
  7 26  1  0  0  0  0
  7 35  2  0  0  0  0
  8 25  1  0  0  0  0
  8 36  2  0  0  0  0
  9 25  2  0  0  0  0
  9 40  1  0  0  0  0
 10 26  2  0  0  0  0
 10 39  1  0  0  0  0
 11 27  2  0  0  0  0
 11 38  1  0  0  0  0
 12 28  2  0  0  0  0
 12 37  1  0  0  0  0
 13 29  1  0  0  0  0
 13 37  2  0  0  0  0
 14 30  1  0  0  0  0
 14 38  2  0  0  0  0
 15 31  1  0  0  0  0
 15 39  2  0  0  0  0
 16 32  1  0  0  0  0
 16 40  2  0  0  0  0
 17 29  1  0  0  0  0
 17 59  1  0  0  0  0
 17 60  1  0  0  0  0
 18 30  1  0  0  0  0
 18 57  1  0  0  0  0
 18 58  1  0  0  0  0
 19 31  1  0  0  0  0
 19 53  1  0  0  0  0
 19 54  1  0  0  0  0
 20 32  1  0  0  0  0
 20 55  1  0  0  0  0
 20 56  1  0  0  0  0
 21 28  1  0  0  0  0
 21 29  2  0  0  0  0
 22 27  1  0  0  0  0
 22 30  2  0  0  0  0
 23 26  1  0  0  0  0
 23 31  2  0  0  0  0
 24 25  1  0  0  0  0
 24 32  2  0  0  0  0
 33 45  1  0  0  0  0
 34 46  1  0  0  0  0
 35 47  1  0  0  0  0
 36 48  1  0  0  0  0
 37 49  1  0  0  0  0
 38 50  1  0  0  0  0
 39 51  1  0  0  0  0
 40 52  1  0  0  0  0
M  END
>  <PUBCHEM_COMPOUND_CID>
68633080

>  <PUBCHEM_COMPOUND_CANONICALIZED>
1

>  <PUBCHEM_CACTVS_COMPLEXITY>
127

>  <PUBCHEM_CACTVS_HBOND_ACCEPTOR>
16

>  <PUBCHEM_CACTVS_HBOND_DONOR>
8

>  <PUBCHEM_CACTVS_ROTATABLE_BOND>
0

>  <PUBCHEM_CACTVS_SUBSKEYS>
AAADceB7wAAAAAAAAAAAAAAAAAAAAWLFiwAsWLFgAAAAAFgB/gAAHAAQAAAACAgBFwQF8L7JkACgAQZhZACAgC2REKABUaAoVBCASABASEAUBAgIAAJAACAAAAAAAAAAAAAAAAAAAAAAAAAAAAAAAAAAAA==

>  <PUBCHEM_IUPAC_OPENEYE_NAME>
7H-purin-6-amine

>  <PUBCHEM_IUPAC_CAS_NAME>
7H-purin-6-amine

>  <PUBCHEM_IUPAC_NAME>
7H-purin-6-amine

>  <PUBCHEM_IUPAC_SYSTEMATIC_NAME>
7H-purin-6-amine

>  <PUBCHEM_IUPAC_TRADITIONAL_NAME>
7H-adenine

>  <PUBCHEM_IUPAC_INCHI>
InChI=1S/4C5H5N5/c4*6-4-3-5(9-1-7-3)10-2-8-4/h4*1-2H,(H3,6,7,8,9,10)

>  <PUBCHEM_IUPAC_INCHIKEY>
ZSIFYVSPMACPJY-UHFFFAOYSA-N

>  <PUBCHEM_EXACT_MASS>
540.218

>  <PUBCHEM_MOLECULAR_FORMULA>
C20H20N20

>  <PUBCHEM_MOLECULAR_WEIGHT>
540.52

>  <PUBCHEM_OPENEYE_CAN_SMILES>
C1=NC2=C(N1)C(=NC=N2)N.C1=NC2=C(N1)C(=NC=N2)N.C1=NC2=C(N1)C(=NC=N2)N.C1=NC2=C(N1)C(=NC=N2)N

>  <PUBCHEM_OPENEYE_ISO_SMILES>
C1=NC2=C(N1)C(=NC=N2)N.C1=NC2=C(N1)C(=NC=N2)N.C1=NC2=C(N1)C(=NC=N2)N.C1=NC2=C(N1)C(=NC=N2)N

>  <PUBCHEM_CACTVS_TPSA>
322

>  <PUBCHEM_MONOISOTOPIC_WEIGHT>
540.218

>  <PUBCHEM_TOTAL_CHARGE>
0

>  <PUBCHEM_HEAVY_ATOM_COUNT>
40

>  <PUBCHEM_ATOM_DEF_STEREO_COUNT>
0

>  <PUBCHEM_ATOM_UDEF_STEREO_COUNT>
0

>  <PUBCHEM_BOND_DEF_STEREO_COUNT>
0

>  <PUBCHEM_BOND_UDEF_STEREO_COUNT>
0

>  <PUBCHEM_ISOTOPIC_ATOM_COUNT>
0

>  <PUBCHEM_COMPONENT_COUNT>
4

>  <PUBCHEM_CACTVS_TAUTO_COUNT>
330

>  <PUBCHEM_COORDINATE_TYPE>
1
5
255

>  <PUBCHEM_BONDANNOTATIONS>
1  21  8
1  33  8
10  26  8
10  39  8
11  27  8
11  38  8
12  28  8
12  37  8
13  29  8
13  37  8
14  30  8
14  38  8
15  31  8
15  39  8
16  32  8
16  40  8
2  22  8
2  34  8
21  28  8
21  29  8
22  27  8
22  30  8
23  26  8
23  31  8
24  25  8
24  32  8
3  23  8
3  35  8
4  24  8
4  36  8
5  28  8
5  33  8
6  27  8
6  34  8
7  26  8
7  35  8
8  25  8
8  36  8
9  25  8
9  40  8

$$$$
