69736
 OpenBabel06101807152D

 21 22  0  0  0  0  0  0  0  0999 V2000
    8.6671    0.3375    0.0000 O   0  0  0  0  0  0  0  0  0  0  0  0
    4.2690    1.8100    0.0000 O   0  0  0  0  0  0  0  0  0  0  0  0
    4.2690   -1.1900    0.0000 N   0  0  0  0  0  0  0  0  0  0  0  0
    6.0290    0.8447    0.0000 N   0  0  0  0  0  0  0  0  0  0  0  0
    6.0290   -1.2247    0.0000 N   0  0  0  0  0  0  0  0  0  0  0  0
    3.4030    0.3100    0.0000 N   0  0  0  0  0  0  0  0  0  0  0  0
    2.5369   -1.1900    0.0000 N   0  0  0  0  0  0  0  0  0  0  0  0
    5.1350   -0.6900    0.0000 C   0  0  0  0  0  0  0  0  0  0  0  0
    5.1350    0.3100    0.0000 C   0  0  0  0  0  0  0  0  0  0  0  0
    6.9350    0.3308    0.0000 C   0  0  0  0  0  0  0  0  0  0  0  0
    4.2690    0.8100    0.0000 C   0  0  0  0  0  0  0  0  0  0  0  0
    3.4030   -0.6900    0.0000 C   0  0  0  0  0  0  0  0  0  0  0  0
    6.9350   -0.7108    0.0000 C   0  0  0  0  0  0  0  0  0  0  0  0
    7.7991    0.8342    0.0000 C   0  0  0  0  0  0  0  0  0  0  0  0
    4.2690   -1.8100    0.0000 H   0  0  0  0  0  0  0  0  0  0  0  0
    7.4708   -1.0229    0.0000 H   0  0  0  0  0  0  0  0  0  0  0  0
    8.1958    1.3106    0.0000 H   0  0  0  0  0  0  0  0  0  0  0  0
    7.3988    1.3076    0.0000 H   0  0  0  0  0  0  0  0  0  0  0  0
    2.0000   -0.8800    0.0000 H   0  0  0  0  0  0  0  0  0  0  0  0
    2.5369   -1.8100    0.0000 H   0  0  0  0  0  0  0  0  0  0  0  0
    9.2028    0.6496    0.0000 H   0  0  0  0  0  0  0  0  0  0  0  0
  1 14  1  0  0  0  0
  1 21  1  0  0  0  0
  2 11  2  0  0  0  0
  3  8  1  0  0  0  0
  3 12  1  0  0  0  0
  3 15  1  0  0  0  0
  4  9  2  0  0  0  0
  4 10  1  0  0  0  0
  5  8  2  0  0  0  0
  5 13  1  0  0  0  0
  6 11  1  0  0  0  0
  6 12  2  0  0  0  0
  7 12  1  0  0  0  0
  7 19  1  0  0  0  0
  7 20  1  0  0  0  0
  8  9  1  0  0  0  0
  9 11  1  0  0  0  0
 10 13  2  0  0  0  0
 10 14  1  0  0  0  0
 13 16  1  0  0  0  0
 14 17  1  0  0  0  0
 14 18  1  0  0  0  0
M  END
>  <PUBCHEM_COMPOUND_CID>
69736

>  <PUBCHEM_COMPOUND_CANONICALIZED>
1

>  <PUBCHEM_CACTVS_COMPLEXITY>
279

>  <PUBCHEM_CACTVS_HBOND_ACCEPTOR>
4

>  <PUBCHEM_CACTVS_HBOND_DONOR>
3

>  <PUBCHEM_CACTVS_ROTATABLE_BOND>
1

>  <PUBCHEM_CACTVS_SUBSKEYS>
AAADcYBjsAAAAAAAAAAAAAAAAAAAAAAAAAAsQAAAAAAAAACBgAAAHgAQCAAACAjhlgYtsBLIEgCoARd3dASAgC0XEiABUAG4fECCVEhASSAUQIAKAALQEGAAAAAAAAAAAAAAAAAAAAAAAAAAAAAAAAAAAA==

>  <PUBCHEM_IUPAC_OPENEYE_NAME>
2-amino-6-(hydroxymethyl)-1H-pteridin-4-one

>  <PUBCHEM_IUPAC_CAS_NAME>
2-amino-6-(hydroxymethyl)-1H-pteridin-4-one

>  <PUBCHEM_IUPAC_NAME>
2-amino-6-(hydroxymethyl)-1H-pteridin-4-one

>  <PUBCHEM_IUPAC_SYSTEMATIC_NAME>
2-azanyl-6-(hydroxymethyl)-1H-pteridin-4-one

>  <PUBCHEM_IUPAC_TRADITIONAL_NAME>
2-amino-6-methylol-1H-pteridin-4-one

>  <PUBCHEM_IUPAC_INCHI>
InChI=1S/C7H7N5O2/c8-7-11-5-4(6(14)12-7)10-3(2-13)1-9-5/h1,13H,2H2,(H3,8,9,11,12,14)

>  <PUBCHEM_IUPAC_INCHIKEY>
XGWIBNWDLMIPNF-UHFFFAOYSA-N

>  <PUBCHEM_XLOGP3_AA>
-2.2

>  <PUBCHEM_EXACT_MASS>
193.06

>  <PUBCHEM_MOLECULAR_FORMULA>
C7H7N5O2

>  <PUBCHEM_MOLECULAR_WEIGHT>
193.166

>  <PUBCHEM_OPENEYE_CAN_SMILES>
C1=C(N=C2C(=N1)NC(=NC2=O)N)CO

>  <PUBCHEM_OPENEYE_ISO_SMILES>
C1=C(N=C2C(=N1)NC(=NC2=O)N)CO

>  <PUBCHEM_CACTVS_TPSA>
114

>  <PUBCHEM_MONOISOTOPIC_WEIGHT>
193.06

>  <PUBCHEM_TOTAL_CHARGE>
0

>  <PUBCHEM_HEAVY_ATOM_COUNT>
14

>  <PUBCHEM_ATOM_DEF_STEREO_COUNT>
0

>  <PUBCHEM_ATOM_UDEF_STEREO_COUNT>
0

>  <PUBCHEM_BOND_DEF_STEREO_COUNT>
0

>  <PUBCHEM_BOND_UDEF_STEREO_COUNT>
0

>  <PUBCHEM_ISOTOPIC_ATOM_COUNT>
0

>  <PUBCHEM_COMPONENT_COUNT>
1

>  <PUBCHEM_CACTVS_TAUTO_COUNT>
12

>  <PUBCHEM_COORDINATE_TYPE>
1
5
255

>  <PUBCHEM_BONDANNOTATIONS>
10  13  8
3  12  8
3  8  8
4  10  8
4  9  8
5  13  8
5  8  8
6  11  8
6  12  8
8  9  8
9  11  8

$$$$
