6992093
 OpenBabel06101807152D

 27 27  0  0  1  0  0  0  0  0999 V2000
    8.4813   -1.1373    0.0000 S   0  0  0  0  0  0  0  0  0  0  0  0
    9.2903   -0.5495    0.0000 S   0  0  0  0  0  0  0  0  0  0  0  0
    3.1249   -1.1164    0.0000 O   0  0  0  0  0  0  0  0  0  0  0  0
    2.5896    0.5308    0.0000 N   0  0  0  0  0  0  0  0  0  0  0  0
    7.6723   -0.5495    0.0000 C   0  0  2  0  0  0  0  0  0  0  0  0
    6.7212   -0.8585    0.0000 C   0  0  0  0  0  0  0  0  0  0  0  0
    7.9813    0.4016    0.0000 C   0  0  0  0  0  0  0  0  0  0  0  0
    5.9781   -0.1894    0.0000 C   0  0  0  0  0  0  0  0  0  0  0  0
    5.0270   -0.4984    0.0000 C   0  0  0  0  0  0  0  0  0  0  0  0
    8.9813    0.4016    0.0000 C   0  0  0  0  0  0  0  0  0  0  0  0
    4.2839    0.1707    0.0000 C   0  0  0  0  0  0  0  0  0  0  0  0
    3.3328   -0.1383    0.0000 C   0  0  0  0  0  0  0  0  0  0  0  0
    7.5753   -1.1619    0.0000 H   0  0  0  0  0  0  0  0  0  0  0  0
    6.2326   -1.2402    0.0000 H   0  0  0  0  0  0  0  0  0  0  0  0
    7.0123   -1.4060    0.0000 H   0  0  0  0  0  0  0  0  0  0  0  0
    8.0461    1.0182    0.0000 H   0  0  0  0  0  0  0  0  0  0  0  0
    7.3748    0.5305    0.0000 H   0  0  0  0  0  0  0  0  0  0  0  0
    6.4666    0.1923    0.0000 H   0  0  0  0  0  0  0  0  0  0  0  0
    5.6870    0.3580    0.0000 H   0  0  0  0  0  0  0  0  0  0  0  0
    4.5384   -0.8801    0.0000 H   0  0  0  0  0  0  0  0  0  0  0  0
    5.3181   -1.0458    0.0000 H   0  0  0  0  0  0  0  0  0  0  0  0
    9.5877    0.5305    0.0000 H   0  0  0  0  0  0  0  0  0  0  0  0
    8.9165    1.0182    0.0000 H   0  0  0  0  0  0  0  0  0  0  0  0
    4.7724    0.5524    0.0000 H   0  0  0  0  0  0  0  0  0  0  0  0
    3.9928    0.7182    0.0000 H   0  0  0  0  0  0  0  0  0  0  0  0
    2.0000    0.3392    0.0000 H   0  0  0  0  0  0  0  0  0  0  0  0
    2.7186    1.1373    0.0000 H   0  0  0  0  0  0  0  0  0  0  0  0
  1  2  1  0  0  0  0
  1  5  1  0  0  0  0
  2 10  1  0  0  0  0
  3 12  2  0  0  0  0
  4 12  1  0  0  0  0
  4 26  1  0  0  0  0
  4 27  1  0  0  0  0
  5  6  1  0  0  0  0
  5  7  1  0  0  0  0
  5 13  1  1  0  0  0
  6  8  1  0  0  0  0
  6 14  1  0  0  0  0
  6 15  1  0  0  0  0
  7 10  1  0  0  0  0
  7 16  1  0  0  0  0
  7 17  1  0  0  0  0
  8  9  1  0  0  0  0
  8 18  1  0  0  0  0
  8 19  1  0  0  0  0
  9 11  1  0  0  0  0
  9 20  1  0  0  0  0
  9 21  1  0  0  0  0
 10 22  1  0  0  0  0
 10 23  1  0  0  0  0
 11 12  1  0  0  0  0
 11 24  1  0  0  0  0
 11 25  1  0  0  0  0
M  END
>  <PUBCHEM_COMPOUND_CID>
6992093

>  <PUBCHEM_COMPOUND_CANONICALIZED>
1

>  <PUBCHEM_CACTVS_COMPLEXITY>
152

>  <PUBCHEM_CACTVS_HBOND_ACCEPTOR>
3

>  <PUBCHEM_CACTVS_HBOND_DONOR>
1

>  <PUBCHEM_CACTVS_ROTATABLE_BOND>
5

>  <PUBCHEM_CACTVS_SUBSKEYS>
AAADccByIABgAAAAAAAAAAAAAAAAASAAAAAAAAAAAAAAAAAAAAAAHgQQAAAACACFwACAAABAAAAIAAEQEAAAAAAAAAAAAAEAAAAAABIAgAAAAAAAEAAAAAEYiICAAAAAAAAAAAAAAAAAAAAAAAAAAAAAAA==

>  <PUBCHEM_IUPAC_OPENEYE_NAME>
5-[(3R)-dithiolan-3-yl]pentanamide

>  <PUBCHEM_IUPAC_CAS_NAME>
5-[(3R)-3-dithiolanyl]pentanamide

>  <PUBCHEM_IUPAC_NAME>
5-[(3R)-dithiolan-3-yl]pentanamide

>  <PUBCHEM_IUPAC_SYSTEMATIC_NAME>
5-[(3R)-1,2-dithiolan-3-yl]pentanamide

>  <PUBCHEM_IUPAC_TRADITIONAL_NAME>
5-[(3R)-dithiolan-3-yl]valeramide

>  <PUBCHEM_IUPAC_INCHI>
InChI=1S/C8H15NOS2/c9-8(10)4-2-1-3-7-5-6-11-12-7/h7H,1-6H2,(H2,9,10)/t7-/m1/s1

>  <PUBCHEM_IUPAC_INCHIKEY>
FCCDDURTIIUXBY-SSDOTTSWSA-N

>  <PUBCHEM_XLOGP3_AA>
1

>  <PUBCHEM_EXACT_MASS>
205.06

>  <PUBCHEM_MOLECULAR_FORMULA>
C8H15NOS2

>  <PUBCHEM_MOLECULAR_WEIGHT>
205.334

>  <PUBCHEM_OPENEYE_CAN_SMILES>
C1CSSC1CCCCC(=O)N

>  <PUBCHEM_OPENEYE_ISO_SMILES>
C1CSS[C@@H]1CCCCC(=O)N

>  <PUBCHEM_CACTVS_TPSA>
93.7

>  <PUBCHEM_MONOISOTOPIC_WEIGHT>
205.06

>  <PUBCHEM_TOTAL_CHARGE>
0

>  <PUBCHEM_HEAVY_ATOM_COUNT>
12

>  <PUBCHEM_ATOM_DEF_STEREO_COUNT>
1

>  <PUBCHEM_ATOM_UDEF_STEREO_COUNT>
0

>  <PUBCHEM_BOND_DEF_STEREO_COUNT>
0

>  <PUBCHEM_BOND_UDEF_STEREO_COUNT>
0

>  <PUBCHEM_ISOTOPIC_ATOM_COUNT>
0

>  <PUBCHEM_COMPONENT_COUNT>
1

>  <PUBCHEM_CACTVS_TAUTO_COUNT>
3

>  <PUBCHEM_COORDINATE_TYPE>
1
5
255

>  <PUBCHEM_BONDANNOTATIONS>
5  6  6

$$$$
