71307295
 OpenBabel06101807152D

 42 45  0  0  1  0  0  0  0  0999 V2000
    6.3981   -1.0223    0.0000 O   0  0  0  0  0  0  0  0  0  0  0  0
    8.1301    0.9777    0.0000 O   0  0  0  0  0  0  0  0  0  0  0  0
    4.6497    2.0123    0.0000 O   0  0  0  0  0  0  0  0  0  0  0  0
   10.8084   -0.7176    0.0000 O   0  0  0  0  0  0  0  0  0  0  0  0
   10.8084   -2.3270    0.0000 O   0  0  0  0  0  0  0  0  0  0  0  0
    2.8680   -1.0464    0.0000 O   0  0  0  0  0  0  0  0  0  0  0  0
    7.2641   -0.5223    0.0000 C   0  0  3  0  0  0  0  0  0  0  0  0
    7.2641    0.4777    0.0000 C   0  0  3  0  0  0  0  0  0  0  0  0
    6.3981    0.9777    0.0000 C   0  0  0  0  0  0  0  0  0  0  0  0
    5.5320    0.4777    0.0000 C   0  0  0  0  0  0  0  0  0  0  0  0
    8.1301   -1.0223    0.0000 C   0  0  0  0  0  0  0  0  0  0  0  0
    5.5320   -0.5223    0.0000 C   0  0  0  0  0  0  0  0  0  0  0  0
    4.6381    1.0124    0.0000 C   0  0  0  0  0  0  0  0  0  0  0  0
    8.9962   -0.5223    0.0000 C   0  0  0  0  0  0  0  0  0  0  0  0
    8.1301   -2.0223    0.0000 C   0  0  0  0  0  0  0  0  0  0  0  0
    4.6381   -1.0570    0.0000 C   0  0  0  0  0  0  0  0  0  0  0  0
    9.8622   -1.0223    0.0000 C   0  0  0  0  0  0  0  0  0  0  0  0
    3.7320    0.4985    0.0000 C   0  0  0  0  0  0  0  0  0  0  0  0
    3.7320   -0.5431    0.0000 C   0  0  0  0  0  0  0  0  0  0  0  0
    9.8622   -2.0223    0.0000 C   0  0  0  0  0  0  0  0  0  0  0  0
    8.9962   -2.5223    0.0000 C   0  0  0  0  0  0  0  0  0  0  0  0
   11.3920   -1.5223    0.0000 C   0  0  0  0  0  0  0  0  0  0  0  0
    3.7895    2.5223    0.0000 C   0  0  0  0  0  0  0  0  0  0  0  0
    2.0000   -0.5498    0.0000 C   0  0  0  0  0  0  0  0  0  0  0  0
    7.8010   -0.2123    0.0000 H   0  0  0  0  0  0  0  0  0  0  0  0
    7.2641    1.0977    0.0000 H   0  0  0  0  0  0  0  0  0  0  0  0
    6.7966    1.4527    0.0000 H   0  0  0  0  0  0  0  0  0  0  0  0
    5.9995    1.4527    0.0000 H   0  0  0  0  0  0  0  0  0  0  0  0
    8.9962    0.0977    0.0000 H   0  0  0  0  0  0  0  0  0  0  0  0
    7.5932   -2.3323    0.0000 H   0  0  0  0  0  0  0  0  0  0  0  0
    4.6453   -1.6769    0.0000 H   0  0  0  0  0  0  0  0  0  0  0  0
    8.1301    1.5977    0.0000 H   0  0  0  0  0  0  0  0  0  0  0  0
    3.1963    0.8106    0.0000 H   0  0  0  0  0  0  0  0  0  0  0  0
    8.9962   -3.1423    0.0000 H   0  0  0  0  0  0  0  0  0  0  0  0
   11.8529   -1.9370    0.0000 H   0  0  0  0  0  0  0  0  0  0  0  0
   11.8529   -1.1076    0.0000 H   0  0  0  0  0  0  0  0  0  0  0  0
    4.1057    3.0556    0.0000 H   0  0  0  0  0  0  0  0  0  0  0  0
    3.2562    2.8385    0.0000 H   0  0  0  0  0  0  0  0  0  0  0  0
    3.4733    1.9890    0.0000 H   0  0  0  0  0  0  0  0  0  0  0  0
    2.3079   -0.0117    0.0000 H   0  0  0  0  0  0  0  0  0  0  0  0
    1.4619   -0.2419    0.0000 H   0  0  0  0  0  0  0  0  0  0  0  0
    1.6921   -1.0879    0.0000 H   0  0  0  0  0  0  0  0  0  0  0  0
  1  7  1  0  0  0  0
  1 12  1  0  0  0  0
  2  8  1  0  0  0  0
  2 32  1  0  0  0  0
  3 13  1  0  0  0  0
  3 23  1  0  0  0  0
  4 17  1  0  0  0  0
  4 22  1  0  0  0  0
  5 20  1  0  0  0  0
  5 22  1  0  0  0  0
  6 19  1  0  0  0  0
  6 24  1  0  0  0  0
  7  8  1  0  0  0  0
  7 11  1  0  0  0  0
  7 25  1  0  0  0  0
  8  9  1  0  0  0  0
  8 26  1  0  0  0  0
  9 10  1  0  0  0  0
  9 27  1  0  0  0  0
  9 28  1  0  0  0  0
 10 12  2  0  0  0  0
 10 13  1  0  0  0  0
 11 14  2  0  0  0  0
 11 15  1  0  0  0  0
 12 16  1  0  0  0  0
 13 18  2  0  0  0  0
 14 17  1  0  0  0  0
 14 29  1  0  0  0  0
 15 21  2  0  0  0  0
 15 30  1  0  0  0  0
 16 19  2  0  0  0  0
 16 31  1  0  0  0  0
 17 20  2  0  0  0  0
 18 19  1  0  0  0  0
 18 33  1  0  0  0  0
 20 21  1  0  0  0  0
 21 34  1  0  0  0  0
 22 35  1  0  0  0  0
 22 36  1  0  0  0  0
 23 37  1  0  0  0  0
 23 38  1  0  0  0  0
 23 39  1  0  0  0  0
 24 40  1  0  0  0  0
 24 41  1  0  0  0  0
 24 42  1  0  0  0  0
M  END
>  <PUBCHEM_COMPOUND_CID>
71307295

>  <PUBCHEM_COMPOUND_CANONICALIZED>
1

>  <PUBCHEM_CACTVS_COMPLEXITY>
432

>  <PUBCHEM_CACTVS_HBOND_ACCEPTOR>
6

>  <PUBCHEM_CACTVS_HBOND_DONOR>
1

>  <PUBCHEM_CACTVS_ROTATABLE_BOND>
3

>  <PUBCHEM_CACTVS_SUBSKEYS>
AAADceB4OAAAAAAAAAAAAAAAAAAAASAAAAA0YIAAAAAAAEiRQAAAGgAACAAADBSgmAMyDoAABgCAAiBCAAACCAAgIAAIiAAGiIgdNyKEMRqieCKlwBUPqAfA4PwOIAABCAAIQABAAAIQABCAAAAAAAAAAA==

>  <PUBCHEM_IUPAC_OPENEYE_NAME>
2-(1,3-benzodioxol-5-yl)-5,7-dimethoxy-chroman-3-ol

>  <PUBCHEM_IUPAC_CAS_NAME>
2-(1,3-benzodioxol-5-yl)-5,7-dimethoxy-3,4-dihydro-2H-1-benzopyran-3-ol

>  <PUBCHEM_IUPAC_NAME>
2-(1,3-benzodioxol-5-yl)-5,7-dimethoxy-3,4-dihydro-2H-chromen-3-ol

>  <PUBCHEM_IUPAC_SYSTEMATIC_NAME>
2-(1,3-benzodioxol-5-yl)-5,7-dimethoxy-3,4-dihydro-2H-chromen-3-ol

>  <PUBCHEM_IUPAC_TRADITIONAL_NAME>
2-(1,3-benzodioxol-5-yl)-5,7-dimethoxy-chroman-3-ol

>  <PUBCHEM_IUPAC_INCHI>
InChI=1S/C18H18O6/c1-20-11-6-15(21-2)12-8-13(19)18(24-16(12)7-11)10-3-4-14-17(5-10)23-9-22-14/h3-7,13,18-19H,8-9H2,1-2H3

>  <PUBCHEM_IUPAC_INCHIKEY>
MMKQEVQTCAAXTI-UHFFFAOYSA-N

>  <PUBCHEM_XLOGP3_AA>
2.6

>  <PUBCHEM_EXACT_MASS>
330.11

>  <PUBCHEM_MOLECULAR_FORMULA>
C18H18O6

>  <PUBCHEM_MOLECULAR_WEIGHT>
330.336

>  <PUBCHEM_OPENEYE_CAN_SMILES>
COC1=CC(=C2CC(C(OC2=C1)C3=CC4=C(C=C3)OCO4)O)OC

>  <PUBCHEM_OPENEYE_ISO_SMILES>
COC1=CC(=C2CC(C(OC2=C1)C3=CC4=C(C=C3)OCO4)O)OC

>  <PUBCHEM_CACTVS_TPSA>
66.4

>  <PUBCHEM_MONOISOTOPIC_WEIGHT>
330.11

>  <PUBCHEM_TOTAL_CHARGE>
0

>  <PUBCHEM_HEAVY_ATOM_COUNT>
24

>  <PUBCHEM_ATOM_DEF_STEREO_COUNT>
0

>  <PUBCHEM_ATOM_UDEF_STEREO_COUNT>
2

>  <PUBCHEM_BOND_DEF_STEREO_COUNT>
0

>  <PUBCHEM_BOND_UDEF_STEREO_COUNT>
0

>  <PUBCHEM_ISOTOPIC_ATOM_COUNT>
0

>  <PUBCHEM_COMPONENT_COUNT>
1

>  <PUBCHEM_CACTVS_TAUTO_COUNT>
1

>  <PUBCHEM_COORDINATE_TYPE>
1
5
255

>  <PUBCHEM_BONDANNOTATIONS>
10  12  8
10  13  8
11  14  8
11  15  8
12  16  8
13  18  8
14  17  8
15  21  8
16  19  8
17  20  8
18  19  8
8  2  3
20  21  8
7  11  3

$$$$
