71436830
 OpenBabel06101807152D

 55 56  0  0  1  0  0  0  0  0999 V2000
    8.0901   -0.8069    0.0000 O   0  0  0  0  0  0  0  0  0  0  0  0
    6.3301    2.2278    0.0000 O   0  0  0  0  0  0  0  0  0  0  0  0
    4.5981   -0.7723    0.0000 O   0  0  0  0  0  0  0  0  0  0  0  0
    4.5981    2.2278    0.0000 O   0  0  0  0  0  0  0  0  0  0  0  0
    9.8602   -0.7964    0.0000 O   0  0  0  0  0  0  0  0  0  0  0  0
    7.1962    0.7277    0.0000 C   0  0  0  0  0  0  0  0  0  0  0  0
    3.7320    0.7277    0.0000 C   0  0  3  0  0  0  0  0  0  0  0  0
    5.4641    0.7277    0.0000 C   0  0  0  0  0  0  0  0  0  0  0  0
    6.3301   -0.7723    0.0000 C   0  0  0  0  0  0  0  0  0  0  0  0
    7.1962   -0.2723    0.0000 C   0  0  0  0  0  0  0  0  0  0  0  0
    8.0901    1.2624    0.0000 C   0  0  0  0  0  0  0  0  0  0  0  0
    6.3301    1.2277    0.0000 C   0  0  0  0  0  0  0  0  0  0  0  0
    5.4641   -0.2723    0.0000 C   0  0  0  0  0  0  0  0  0  0  0  0
    4.5981    1.2277    0.0000 C   0  0  0  0  0  0  0  0  0  0  0  0
    8.0785    2.2623    0.0000 C   0  0  0  0  0  0  0  0  0  0  0  0
    2.8660    1.2277    0.0000 C   0  0  0  0  0  0  0  0  0  0  0  0
    6.3301   -1.7722    0.0000 C   0  0  0  0  0  0  0  0  0  0  0  0
    3.7320   -0.2723    0.0000 C   0  0  0  0  0  0  0  0  0  0  0  0
    8.9387    2.7723    0.0000 C   0  0  0  0  0  0  0  0  0  0  0  0
    8.9962    0.7486    0.0000 C   0  0  0  0  0  0  0  0  0  0  0  0
    8.9962   -0.2931    0.0000 C   0  0  0  0  0  0  0  0  0  0  0  0
    2.0000    0.7277    0.0000 C   0  0  0  0  0  0  0  0  0  0  0  0
    5.4641   -2.2722    0.0000 C   0  0  0  0  0  0  0  0  0  0  0  0
    8.9271    3.7722    0.0000 C   0  0  0  0  0  0  0  0  0  0  0  0
    5.4641   -3.2722    0.0000 C   0  0  0  0  0  0  0  0  0  0  0  0
    4.5981   -3.7722    0.0000 C   0  0  0  0  0  0  0  0  0  0  0  0
    6.3301   -3.7722    0.0000 C   0  0  0  0  0  0  0  0  0  0  0  0
    4.2690    0.4177    0.0000 H   0  0  0  0  0  0  0  0  0  0  0  0
    7.8598    2.8425    0.0000 H   0  0  0  0  0  0  0  0  0  0  0  0
    7.4692    2.1476    0.0000 H   0  0  0  0  0  0  0  0  0  0  0  0
    3.2646    1.7027    0.0000 H   0  0  0  0  0  0  0  0  0  0  0  0
    2.4675    1.7027    0.0000 H   0  0  0  0  0  0  0  0  0  0  0  0
    6.5422   -2.3549    0.0000 H   0  0  0  0  0  0  0  0  0  0  0  0
    6.9407   -1.6646    0.0000 H   0  0  0  0  0  0  0  0  0  0  0  0
    3.1120   -0.2723    0.0000 H   0  0  0  0  0  0  0  0  0  0  0  0
    3.7320   -0.8923    0.0000 H   0  0  0  0  0  0  0  0  0  0  0  0
    4.3520   -0.2723    0.0000 H   0  0  0  0  0  0  0  0  0  0  0  0
    9.1575    2.1922    0.0000 H   0  0  0  0  0  0  0  0  0  0  0  0
    9.5480    2.8870    0.0000 H   0  0  0  0  0  0  0  0  0  0  0  0
    9.5319    1.0606    0.0000 H   0  0  0  0  0  0  0  0  0  0  0  0
    1.6900    1.2647    0.0000 H   0  0  0  0  0  0  0  0  0  0  0  0
    1.4631    0.4177    0.0000 H   0  0  0  0  0  0  0  0  0  0  0  0
    2.3100    0.1908    0.0000 H   0  0  0  0  0  0  0  0  0  0  0  0
    4.9272   -1.9622    0.0000 H   0  0  0  0  0  0  0  0  0  0  0  0
    9.5471    3.7794    0.0000 H   0  0  0  0  0  0  0  0  0  0  0  0
    8.9200    4.3922    0.0000 H   0  0  0  0  0  0  0  0  0  0  0  0
    8.3072    3.7651    0.0000 H   0  0  0  0  0  0  0  0  0  0  0  0
    5.7932    2.5378    0.0000 H   0  0  0  0  0  0  0  0  0  0  0  0
    4.5981   -1.3922    0.0000 H   0  0  0  0  0  0  0  0  0  0  0  0
    4.2881   -3.2353    0.0000 H   0  0  0  0  0  0  0  0  0  0  0  0
    4.0611   -4.0822    0.0000 H   0  0  0  0  0  0  0  0  0  0  0  0
    4.9081   -4.3092    0.0000 H   0  0  0  0  0  0  0  0  0  0  0  0
    6.0201   -4.3092    0.0000 H   0  0  0  0  0  0  0  0  0  0  0  0
    6.8671   -4.0822    0.0000 H   0  0  0  0  0  0  0  0  0  0  0  0
    6.6401   -3.2353    0.0000 H   0  0  0  0  0  0  0  0  0  0  0  0
  1 10  1  0  0  0  0
  1 21  1  0  0  0  0
  2 12  1  0  0  0  0
  2 48  1  0  0  0  0
  3 13  1  0  0  0  0
  3 49  1  0  0  0  0
  4 14  2  0  0  0  0
  5 21  2  0  0  0  0
  6 10  2  0  0  0  0
  6 11  1  0  0  0  0
  6 12  1  0  0  0  0
  7 14  1  0  0  0  0
  7 16  1  0  0  0  0
  7 18  1  0  0  0  0
  7 28  1  0  0  0  0
  8 12  2  0  0  0  0
  8 13  1  0  0  0  0
  8 14  1  0  0  0  0
  9 10  1  0  0  0  0
  9 13  2  0  0  0  0
  9 17  1  0  0  0  0
 11 15  1  0  0  0  0
 11 20  2  0  0  0  0
 15 19  1  0  0  0  0
 15 29  1  0  0  0  0
 15 30  1  0  0  0  0
 16 22  1  0  0  0  0
 16 31  1  0  0  0  0
 16 32  1  0  0  0  0
 17 23  1  0  0  0  0
 17 33  1  0  0  0  0
 17 34  1  0  0  0  0
 18 35  1  0  0  0  0
 18 36  1  0  0  0  0
 18 37  1  0  0  0  0
 19 24  1  0  0  0  0
 19 38  1  0  0  0  0
 19 39  1  0  0  0  0
 20 21  1  0  0  0  0
 20 40  1  0  0  0  0
 22 41  1  0  0  0  0
 22 42  1  0  0  0  0
 22 43  1  0  0  0  0
 23 25  2  0  0  0  0
 23 44  1  0  0  0  0
 24 45  1  0  0  0  0
 24 46  1  0  0  0  0
 24 47  1  0  0  0  0
 25 26  1  0  0  0  0
 25 27  1  0  0  0  0
 26 50  1  0  0  0  0
 26 51  1  0  0  0  0
 26 52  1  0  0  0  0
 27 53  1  0  0  0  0
 27 54  1  0  0  0  0
 27 55  1  0  0  0  0
M  END
>  <PUBCHEM_COMPOUND_CID>
71436830

>  <PUBCHEM_COMPOUND_CANONICALIZED>
1

>  <PUBCHEM_CACTVS_COMPLEXITY>
616

>  <PUBCHEM_CACTVS_HBOND_ACCEPTOR>
5

>  <PUBCHEM_CACTVS_HBOND_DONOR>
2

>  <PUBCHEM_CACTVS_ROTATABLE_BOND>
7

>  <PUBCHEM_CACTVS_SUBSKEYS>
AAADceB4OAAAAAAAAAAAAAAAAAAAAAAAAAAwQAAAAAAAAACBAAAAGgAACAAADQSAmAACDoAABgCIAqDSCAACCAAkIAAAiAEECMgMJzaGNRqCe2Cl4BUIuQeI7OzOIAACCAAIAABAAAQQABAAAAAAAAAAAA==

>  <PUBCHEM_IUPAC_OPENEYE_NAME>
5,7-dihydroxy-6-(2-methylbutanoyl)-8-(3-methylbut-2-enyl)-4-propyl-chromen-2-one

>  <PUBCHEM_IUPAC_CAS_NAME>
5,7-dihydroxy-8-(3-methylbut-2-enyl)-6-(2-methyl-1-oxobutyl)-4-propyl-1-benzopyran-2-one

>  <PUBCHEM_IUPAC_NAME>
5,7-dihydroxy-6-(2-methylbutanoyl)-8-(3-methylbut-2-enyl)-4-propylchromen-2-one

>  <PUBCHEM_IUPAC_SYSTEMATIC_NAME>
6-(2-methylbutanoyl)-8-(3-methylbut-2-enyl)-5,7-bis(oxidanyl)-4-propyl-chromen-2-one

>  <PUBCHEM_IUPAC_TRADITIONAL_NAME>
5,7-dihydroxy-6-(2-methylbutanoyl)-8-(3-methylbut-2-enyl)-4-propyl-coumarin

>  <PUBCHEM_IUPAC_INCHI>
InChI=1S/C22H28O5/c1-6-8-14-11-16(23)27-22-15(10-9-12(3)4)20(25)18(21(26)17(14)22)19(24)13(5)7-2/h9,11,13,25-26H,6-8,10H2,1-5H3

>  <PUBCHEM_IUPAC_INCHIKEY>
PQMOXTJVIYEOQL-UHFFFAOYSA-N

>  <PUBCHEM_XLOGP3_AA>
5.6

>  <PUBCHEM_EXACT_MASS>
372.194

>  <PUBCHEM_MOLECULAR_FORMULA>
C22H28O5

>  <PUBCHEM_MOLECULAR_WEIGHT>
372.461

>  <PUBCHEM_OPENEYE_CAN_SMILES>
CCCC1=CC(=O)OC2=C1C(=C(C(=C2CC=C(C)C)O)C(=O)C(C)CC)O

>  <PUBCHEM_OPENEYE_ISO_SMILES>
CCCC1=CC(=O)OC2=C1C(=C(C(=C2CC=C(C)C)O)C(=O)C(C)CC)O

>  <PUBCHEM_CACTVS_TPSA>
83.8

>  <PUBCHEM_MONOISOTOPIC_WEIGHT>
372.194

>  <PUBCHEM_TOTAL_CHARGE>
0

>  <PUBCHEM_HEAVY_ATOM_COUNT>
27

>  <PUBCHEM_ATOM_DEF_STEREO_COUNT>
0

>  <PUBCHEM_ATOM_UDEF_STEREO_COUNT>
1

>  <PUBCHEM_BOND_DEF_STEREO_COUNT>
0

>  <PUBCHEM_BOND_UDEF_STEREO_COUNT>
0

>  <PUBCHEM_ISOTOPIC_ATOM_COUNT>
0

>  <PUBCHEM_COMPONENT_COUNT>
1

>  <PUBCHEM_CACTVS_TAUTO_COUNT>
80

>  <PUBCHEM_COORDINATE_TYPE>
1
5
255

>  <PUBCHEM_BONDANNOTATIONS>
1  10  8
1  21  8
11  20  8
20  21  8
6  10  8
6  11  8
6  12  8
7  18  3
8  12  8
8  13  8
9  10  8
9  13  8

$$$$
