71430550
 OpenBabel06101807152D

 26 26  0  0  0  0  0  0  0  0999 V2000
    5.4543   -0.8242    0.0000 O   0  0  0  0  0  0  0  0  0  0  0  0
    7.4223   -1.5236    0.0000 O   0  0  0  0  0  0  0  0  0  0  0  0
    2.9511    0.1237    0.0000 C   0  0  0  0  0  0  0  0  0  0  0  0
    3.6942   -0.5455    0.0000 C   0  0  0  0  0  0  0  0  0  0  0  0
    4.6453   -0.2365    0.0000 C   0  0  0  0  0  0  0  0  0  0  0  0
    2.0000   -0.1854    0.0000 C   0  0  0  0  0  0  0  0  0  0  0  0
    3.1590    1.1018    0.0000 C   0  0  0  0  0  0  0  0  0  0  0  0
    4.9543    0.7146    0.0000 C   0  0  0  0  0  0  0  0  0  0  0  0
    5.9543    0.7146    0.0000 C   0  0  0  0  0  0  0  0  0  0  0  0
    6.2633   -0.2365    0.0000 C   0  0  0  0  0  0  0  0  0  0  0  0
    6.5421    1.5236    0.0000 C   0  0  0  0  0  0  0  0  0  0  0  0
    7.2144   -0.5455    0.0000 C   0  0  0  0  0  0  0  0  0  0  0  0
    2.4903    0.5385    0.0000 H   0  0  0  0  0  0  0  0  0  0  0  0
    3.2056   -0.9272    0.0000 H   0  0  0  0  0  0  0  0  0  0  0  0
    3.9853   -1.0929    0.0000 H   0  0  0  0  0  0  0  0  0  0  0  0
    1.8084    0.4043    0.0000 H   0  0  0  0  0  0  0  0  0  0  0  0
    1.4103   -0.3769    0.0000 H   0  0  0  0  0  0  0  0  0  0  0  0
    2.1916   -0.7750    0.0000 H   0  0  0  0  0  0  0  0  0  0  0  0
    3.7654    0.9729    0.0000 H   0  0  0  0  0  0  0  0  0  0  0  0
    3.2879    1.7083    0.0000 H   0  0  0  0  0  0  0  0  0  0  0  0
    2.5525    1.2307    0.0000 H   0  0  0  0  0  0  0  0  0  0  0  0
    4.5898    1.2162    0.0000 H   0  0  0  0  0  0  0  0  0  0  0  0
    7.0436    1.1592    0.0000 H   0  0  0  0  0  0  0  0  0  0  0  0
    6.9065    2.0252    0.0000 H   0  0  0  0  0  0  0  0  0  0  0  0
    6.0405    1.8880    0.0000 H   0  0  0  0  0  0  0  0  0  0  0  0
    7.6751   -0.1306    0.0000 H   0  0  0  0  0  0  0  0  0  0  0  0
  1  5  1  0  0  0  0
  1 10  1  0  0  0  0
  2 12  2  0  0  0  0
  3  4  1  0  0  0  0
  3  6  1  0  0  0  0
  3  7  1  0  0  0  0
  3 13  1  0  0  0  0
  4  5  1  0  0  0  0
  4 14  1  0  0  0  0
  4 15  1  0  0  0  0
  5  8  2  0  0  0  0
  6 16  1  0  0  0  0
  6 17  1  0  0  0  0
  6 18  1  0  0  0  0
  7 19  1  0  0  0  0
  7 20  1  0  0  0  0
  7 21  1  0  0  0  0
  8  9  1  0  0  0  0
  8 22  1  0  0  0  0
  9 10  2  0  0  0  0
  9 11  1  0  0  0  0
 10 12  1  0  0  0  0
 11 23  1  0  0  0  0
 11 24  1  0  0  0  0
 11 25  1  0  0  0  0
 12 26  1  0  0  0  0
M  END
>  <PUBCHEM_COMPOUND_CID>
71430550

>  <PUBCHEM_COMPOUND_CANONICALIZED>
1

>  <PUBCHEM_CACTVS_COMPLEXITY>
154

>  <PUBCHEM_CACTVS_HBOND_ACCEPTOR>
2

>  <PUBCHEM_CACTVS_HBOND_DONOR>
0

>  <PUBCHEM_CACTVS_ROTATABLE_BOND>
3

>  <PUBCHEM_CACTVS_SUBSKEYS>
AAADccBwMAAAAAAAAAAAAAAAAAAAASAAAAAAAAAAAAAAAAABgAAAGgAAAAAADQSgmAIyBIAABECIAqhSgAICCAAkIAAAiAFGCMgMJjKENR6CGSCkwBEIqYeIzuDuAAAAAAAAAAAAAAAAAAAAAAAAAAAAAA==

>  <PUBCHEM_IUPAC_OPENEYE_NAME>
5-isobutyl-3-methyl-furan-2-carbaldehyde

>  <PUBCHEM_IUPAC_CAS_NAME>
3-methyl-5-(2-methylpropyl)-2-furancarboxaldehyde

>  <PUBCHEM_IUPAC_NAME>
3-methyl-5-(2-methylpropyl)furan-2-carbaldehyde

>  <PUBCHEM_IUPAC_SYSTEMATIC_NAME>
3-methyl-5-(2-methylpropyl)furan-2-carbaldehyde

>  <PUBCHEM_IUPAC_TRADITIONAL_NAME>
5-isobutyl-3-methyl-furfural

>  <PUBCHEM_IUPAC_INCHI>
InChI=1S/C10H14O2/c1-7(2)4-9-5-8(3)10(6-11)12-9/h5-7H,4H2,1-3H3

>  <PUBCHEM_IUPAC_INCHIKEY>
QMLNYDORMWTLNR-UHFFFAOYSA-N

>  <PUBCHEM_XLOGP3_AA>
2.8

>  <PUBCHEM_EXACT_MASS>
166.099

>  <PUBCHEM_MOLECULAR_FORMULA>
C10H14O2

>  <PUBCHEM_MOLECULAR_WEIGHT>
166.22

>  <PUBCHEM_OPENEYE_CAN_SMILES>
CC1=C(OC(=C1)CC(C)C)C=O

>  <PUBCHEM_OPENEYE_ISO_SMILES>
CC1=C(OC(=C1)CC(C)C)C=O

>  <PUBCHEM_CACTVS_TPSA>
30.2

>  <PUBCHEM_MONOISOTOPIC_WEIGHT>
166.099

>  <PUBCHEM_TOTAL_CHARGE>
0

>  <PUBCHEM_HEAVY_ATOM_COUNT>
12

>  <PUBCHEM_ATOM_DEF_STEREO_COUNT>
0

>  <PUBCHEM_ATOM_UDEF_STEREO_COUNT>
0

>  <PUBCHEM_BOND_DEF_STEREO_COUNT>
0

>  <PUBCHEM_BOND_UDEF_STEREO_COUNT>
0

>  <PUBCHEM_ISOTOPIC_ATOM_COUNT>
0

>  <PUBCHEM_COMPONENT_COUNT>
1

>  <PUBCHEM_CACTVS_TAUTO_COUNT>
4

>  <PUBCHEM_COORDINATE_TYPE>
1
5
255

>  <PUBCHEM_BONDANNOTATIONS>
1  10  8
1  5  8
5  8  8
8  9  8
9  10  8

$$$$
