71587386
 OpenBabel06101807152D

 27 28  0  0  0  0  0  0  0  0999 V2000
    5.9150   -0.4197    0.0000 S   0  0  0  0  0  0  0  0  0  0  0  0
    8.4841    0.4468    0.0000 S   0  0  0  0  0  0  0  0  0  0  0  0
    3.9470   -1.1191    0.0000 O   0  0  0  0  0  0  0  0  0  0  0  0
    2.4608    0.2192    0.0000 O   0  0  0  0  0  0  0  0  0  0  0  0
    6.7240    0.1681    0.0000 C   0  0  0  0  0  0  0  0  0  0  0  0
    7.6751   -0.1410    0.0000 C   0  0  0  0  0  0  0  0  0  0  0  0
    5.1060    0.1681    0.0000 C   0  0  0  0  0  0  0  0  0  0  0  0
    6.4150    1.1191    0.0000 C   0  0  0  0  0  0  0  0  0  0  0  0
    5.4150    1.1191    0.0000 C   0  0  0  0  0  0  0  0  0  0  0  0
    7.9841   -1.0920    0.0000 C   0  0  0  0  0  0  0  0  0  0  0  0
    4.1550   -0.1410    0.0000 C   0  0  0  0  0  0  0  0  0  0  0  0
    8.9841   -1.0920    0.0000 C   0  0  0  0  0  0  0  0  0  0  0  0
    9.2931   -0.1410    0.0000 C   0  0  0  0  0  0  0  0  0  0  0  0
    3.4118    0.5282    0.0000 C   0  0  0  0  0  0  0  0  0  0  0  0
   10.2442    0.1681    0.0000 C   0  0  0  0  0  0  0  0  0  0  0  0
   11.1952    0.4771    0.0000 C   0  0  0  0  0  0  0  0  0  0  0  0
   12.1463    0.7861    0.0000 C   0  0  0  0  0  0  0  0  0  0  0  0
    6.7794    1.6207    0.0000 H   0  0  0  0  0  0  0  0  0  0  0  0
    5.0506    1.6207    0.0000 H   0  0  0  0  0  0  0  0  0  0  0  0
    7.6197   -1.5936    0.0000 H   0  0  0  0  0  0  0  0  0  0  0  0
    9.3485   -1.5936    0.0000 H   0  0  0  0  0  0  0  0  0  0  0  0
    3.9004    0.9099    0.0000 H   0  0  0  0  0  0  0  0  0  0  0  0
    3.1207    1.0756    0.0000 H   0  0  0  0  0  0  0  0  0  0  0  0
    2.0000    0.6340    0.0000 H   0  0  0  0  0  0  0  0  0  0  0  0
   12.3379    0.1964    0.0000 H   0  0  0  0  0  0  0  0  0  0  0  0
   12.7360    0.9777    0.0000 H   0  0  0  0  0  0  0  0  0  0  0  0
   11.9547    1.3757    0.0000 H   0  0  0  0  0  0  0  0  0  0  0  0
  1  5  1  0  0  0  0
  1  7  1  0  0  0  0
  2  6  1  0  0  0  0
  2 13  1  0  0  0  0
  3 11  2  0  0  0  0
  4 14  1  0  0  0  0
  4 24  1  0  0  0  0
  5  6  1  0  0  0  0
  5  8  2  0  0  0  0
  6 10  2  0  0  0  0
  7  9  2  0  0  0  0
  7 11  1  0  0  0  0
  8  9  1  0  0  0  0
  8 18  1  0  0  0  0
  9 19  1  0  0  0  0
 10 12  1  0  0  0  0
 10 20  1  0  0  0  0
 11 14  1  0  0  0  0
 12 13  2  0  0  0  0
 12 21  1  0  0  0  0
 13 15  1  0  0  0  0
 14 22  1  0  0  0  0
 14 23  1  0  0  0  0
 15 16  3  0  0  0  0
 16 17  1  0  0  0  0
 17 25  1  0  0  0  0
 17 26  1  0  0  0  0
 17 27  1  0  0  0  0
M  END
>  <PUBCHEM_COMPOUND_CID>
71587386

>  <PUBCHEM_COMPOUND_CANONICALIZED>
1

>  <PUBCHEM_CACTVS_COMPLEXITY>
355

>  <PUBCHEM_CACTVS_HBOND_ACCEPTOR>
4

>  <PUBCHEM_CACTVS_HBOND_DONOR>
1

>  <PUBCHEM_CACTVS_ROTATABLE_BOND>
4

>  <PUBCHEM_CACTVS_SUBSKEYS>
AAADccBwMABgAAAAAAAAAAAAAAAAASJAAAAAAAAAAAAAAAAB4AAAGgQACAAACASg0AIyAYAAAgjMEKBSAAoDAIAkCBBIiBlAAMgIMDKgFBCAYQAkwAEoiYeIyKCAAAAAAAAAAAAAAAAAAAAAAAAAAAAAAA==

>  <PUBCHEM_IUPAC_OPENEYE_NAME>
2-hydroxy-1-[5-(5-prop-1-ynyl-2-thienyl)-2-thienyl]ethanone

>  <PUBCHEM_IUPAC_CAS_NAME>
2-hydroxy-1-[5-(5-prop-1-ynyl-2-thiophenyl)-2-thiophenyl]ethanone

>  <PUBCHEM_IUPAC_NAME>
2-hydroxy-1-[5-(5-prop-1-ynylthiophen-2-yl)thiophen-2-yl]ethanone

>  <PUBCHEM_IUPAC_SYSTEMATIC_NAME>
2-oxidanyl-1-[5-(5-prop-1-ynylthiophen-2-yl)thiophen-2-yl]ethanone

>  <PUBCHEM_IUPAC_TRADITIONAL_NAME>
2-hydroxy-1-[5-(5-prop-1-ynyl-2-thienyl)-2-thienyl]ethanone

>  <PUBCHEM_IUPAC_INCHI>
InChI=1S/C13H10O2S2/c1-2-3-9-4-5-12(16-9)13-7-6-11(17-13)10(15)8-14/h4-7,14H,8H2,1H3

>  <PUBCHEM_IUPAC_INCHIKEY>
SZHJGTIWJLCSCZ-UHFFFAOYSA-N

>  <PUBCHEM_XLOGP3_AA>
3.1

>  <PUBCHEM_EXACT_MASS>
262.012

>  <PUBCHEM_MOLECULAR_FORMULA>
C13H10O2S2

>  <PUBCHEM_MOLECULAR_WEIGHT>
262.341

>  <PUBCHEM_OPENEYE_CAN_SMILES>
CC#CC1=CC=C(S1)C2=CC=C(S2)C(=O)CO

>  <PUBCHEM_OPENEYE_ISO_SMILES>
CC#CC1=CC=C(S1)C2=CC=C(S2)C(=O)CO

>  <PUBCHEM_CACTVS_TPSA>
93.8

>  <PUBCHEM_MONOISOTOPIC_WEIGHT>
262.012

>  <PUBCHEM_TOTAL_CHARGE>
0

>  <PUBCHEM_HEAVY_ATOM_COUNT>
17

>  <PUBCHEM_ATOM_DEF_STEREO_COUNT>
0

>  <PUBCHEM_ATOM_UDEF_STEREO_COUNT>
0

>  <PUBCHEM_BOND_DEF_STEREO_COUNT>
0

>  <PUBCHEM_BOND_UDEF_STEREO_COUNT>
0

>  <PUBCHEM_ISOTOPIC_ATOM_COUNT>
0

>  <PUBCHEM_COMPONENT_COUNT>
1

>  <PUBCHEM_CACTVS_TAUTO_COUNT>
3

>  <PUBCHEM_COORDINATE_TYPE>
1
5
255

>  <PUBCHEM_BONDANNOTATIONS>
1  5  8
1  7  8
10  12  8
12  13  8
2  13  8
2  6  8
5  8  8
6  10  8
7  9  8
8  9  8

$$$$
