71618826
 OpenBabel06101807152D

 56 61  0  0  0  0  0  0  0  0999 V2000
    6.0682   -1.7500    0.0000 O   0  0  0  0  0  0  0  0  0  0  0  0
   13.8625    1.7500    0.0000 O   0  0  0  0  0  0  0  0  0  0  0  0
   10.3984    1.7500    0.0000 O   0  0  0  0  0  0  0  0  0  0  0  0
    9.5323   -1.7500    0.0000 O   0  0  0  0  0  0  0  0  0  0  0  0
    6.0682    1.2500    0.0000 O   0  0  0  0  0  0  0  0  0  0  0  0
   13.8625   -1.2500    0.0000 O   0  0  0  0  0  0  0  0  0  0  0  0
    2.5381   -1.7742    0.0000 O   0  0  0  0  0  0  0  0  0  0  0  0
   17.3926    1.7742    0.0000 O   0  0  0  0  0  0  0  0  0  0  0  0
   10.3984   -0.2500    0.0000 C   0  0  0  0  0  0  0  0  0  0  0  0
    9.5323    0.2500    0.0000 C   0  0  0  0  0  0  0  0  0  0  0  0
   12.1304   -0.2500    0.0000 C   0  0  0  0  0  0  0  0  0  0  0  0
    7.8003    0.2500    0.0000 C   0  0  0  0  0  0  0  0  0  0  0  0
   11.2644    0.2500    0.0000 C   0  0  0  0  0  0  0  0  0  0  0  0
    8.6663   -0.2500    0.0000 C   0  0  0  0  0  0  0  0  0  0  0  0
    6.9343   -0.2500    0.0000 C   0  0  0  0  0  0  0  0  0  0  0  0
   12.9965    0.2500    0.0000 C   0  0  0  0  0  0  0  0  0  0  0  0
    9.5323    1.2500    0.0000 C   0  0  0  0  0  0  0  0  0  0  0  0
   10.3984   -1.2500    0.0000 C   0  0  0  0  0  0  0  0  0  0  0  0
    7.8003    1.2500    0.0000 C   0  0  0  0  0  0  0  0  0  0  0  0
   12.1304   -1.2500    0.0000 C   0  0  0  0  0  0  0  0  0  0  0  0
   14.7285    0.2500    0.0000 C   0  0  0  0  0  0  0  0  0  0  0  0
    5.2022   -0.2500    0.0000 C   0  0  0  0  0  0  0  0  0  0  0  0
    6.0682    0.2500    0.0000 C   0  0  0  0  0  0  0  0  0  0  0  0
   13.8625   -0.2500    0.0000 C   0  0  0  0  0  0  0  0  0  0  0  0
    8.6663    1.7500    0.0000 C   0  0  0  0  0  0  0  0  0  0  0  0
   11.2644   -1.7500    0.0000 C   0  0  0  0  0  0  0  0  0  0  0  0
   14.7285    1.2500    0.0000 C   0  0  0  0  0  0  0  0  0  0  0  0
    5.2022   -1.2500    0.0000 C   0  0  0  0  0  0  0  0  0  0  0  0
   12.9965    1.2500    0.0000 C   0  0  0  0  0  0  0  0  0  0  0  0
    6.9343   -1.2500    0.0000 C   0  0  0  0  0  0  0  0  0  0  0  0
    4.3083    0.2847    0.0000 C   0  0  0  0  0  0  0  0  0  0  0  0
   15.6224   -0.2847    0.0000 C   0  0  0  0  0  0  0  0  0  0  0  0
    4.3083   -1.7847    0.0000 C   0  0  0  0  0  0  0  0  0  0  0  0
   15.6224    1.7847    0.0000 C   0  0  0  0  0  0  0  0  0  0  0  0
    3.4022   -0.2292    0.0000 C   0  0  0  0  0  0  0  0  0  0  0  0
   16.5285    0.2292    0.0000 C   0  0  0  0  0  0  0  0  0  0  0  0
   16.5285    1.2708    0.0000 C   0  0  0  0  0  0  0  0  0  0  0  0
    3.4022   -1.2708    0.0000 C   0  0  0  0  0  0  0  0  0  0  0  0
   11.2644    0.8700    0.0000 H   0  0  0  0  0  0  0  0  0  0  0  0
    8.6663   -0.8700    0.0000 H   0  0  0  0  0  0  0  0  0  0  0  0
    7.2634    1.5600    0.0000 H   0  0  0  0  0  0  0  0  0  0  0  0
   12.6674   -1.5600    0.0000 H   0  0  0  0  0  0  0  0  0  0  0  0
   11.2644   -2.3700    0.0000 H   0  0  0  0  0  0  0  0  0  0  0  0
    8.6663    2.3700    0.0000 H   0  0  0  0  0  0  0  0  0  0  0  0
   12.4595    1.5600    0.0000 H   0  0  0  0  0  0  0  0  0  0  0  0
    7.4712   -1.5600    0.0000 H   0  0  0  0  0  0  0  0  0  0  0  0
   15.6153   -0.9046    0.0000 H   0  0  0  0  0  0  0  0  0  0  0  0
    4.3154    0.9046    0.0000 H   0  0  0  0  0  0  0  0  0  0  0  0
   15.6153    2.4046    0.0000 H   0  0  0  0  0  0  0  0  0  0  0  0
    4.3154   -2.4046    0.0000 H   0  0  0  0  0  0  0  0  0  0  0  0
   17.0643   -0.0829    0.0000 H   0  0  0  0  0  0  0  0  0  0  0  0
    2.8665    0.0829    0.0000 H   0  0  0  0  0  0  0  0  0  0  0  0
   10.3984    2.3700    0.0000 H   0  0  0  0  0  0  0  0  0  0  0  0
    9.5323   -2.3700    0.0000 H   0  0  0  0  0  0  0  0  0  0  0  0
   17.9307    1.4662    0.0000 H   0  0  0  0  0  0  0  0  0  0  0  0
    2.0000   -1.4662    0.0000 H   0  0  0  0  0  0  0  0  0  0  0  0
  1 28  1  0  0  0  0
  1 30  1  0  0  0  0
  2 27  1  0  0  0  0
  2 29  1  0  0  0  0
  3 17  1  0  0  0  0
  3 53  1  0  0  0  0
  4 18  1  0  0  0  0
  4 54  1  0  0  0  0
  5 23  2  0  0  0  0
  6 24  2  0  0  0  0
  7 38  1  0  0  0  0
  7 56  1  0  0  0  0
  8 37  1  0  0  0  0
  8 55  1  0  0  0  0
  9 10  1  0  0  0  0
  9 13  1  0  0  0  0
  9 18  2  0  0  0  0
 10 14  1  0  0  0  0
 10 17  2  0  0  0  0
 11 13  2  0  0  0  0
 11 16  1  0  0  0  0
 11 20  1  0  0  0  0
 12 14  2  0  0  0  0
 12 15  1  0  0  0  0
 12 19  1  0  0  0  0
 13 39  1  0  0  0  0
 14 40  1  0  0  0  0
 15 23  1  0  0  0  0
 15 30  2  0  0  0  0
 16 24  1  0  0  0  0
 16 29  2  0  0  0  0
 17 25  1  0  0  0  0
 18 26  1  0  0  0  0
 19 25  2  0  0  0  0
 19 41  1  0  0  0  0
 20 26  2  0  0  0  0
 20 42  1  0  0  0  0
 21 24  1  0  0  0  0
 21 27  2  0  0  0  0
 21 32  1  0  0  0  0
 22 23  1  0  0  0  0
 22 28  2  0  0  0  0
 22 31  1  0  0  0  0
 25 44  1  0  0  0  0
 26 43  1  0  0  0  0
 27 34  1  0  0  0  0
 28 33  1  0  0  0  0
 29 45  1  0  0  0  0
 30 46  1  0  0  0  0
 31 35  2  0  0  0  0
 31 48  1  0  0  0  0
 32 36  2  0  0  0  0
 32 47  1  0  0  0  0
 33 38  2  0  0  0  0
 33 50  1  0  0  0  0
 34 37  2  0  0  0  0
 34 49  1  0  0  0  0
 35 38  1  0  0  0  0
 35 52  1  0  0  0  0
 36 37  1  0  0  0  0
 36 51  1  0  0  0  0
M  END
>  <PUBCHEM_COMPOUND_CID>
71618826

>  <PUBCHEM_COMPOUND_CANONICALIZED>
1

>  <PUBCHEM_CACTVS_COMPLEXITY>
911

>  <PUBCHEM_CACTVS_HBOND_ACCEPTOR>
8

>  <PUBCHEM_CACTVS_HBOND_DONOR>
4

>  <PUBCHEM_CACTVS_ROTATABLE_BOND>
3

>  <PUBCHEM_CACTVS_SUBSKEYS>
AAADceB4PAAAAAAAAAAAAAAAAAAAAAAAAAAwYMGCAAAAAACBVAAAGgAACAAADASgmAIwBoAABgCIAqBSAAACCAAkIAAIiAEGCMgMJzaGNRqAcWAl4BUIuYfI7PzOoAACCAAIAABAAAQQABAAAAAAAAAAAA==

>  <PUBCHEM_IUPAC_OPENEYE_NAME>
7-hydroxy-3-[4-hydroxy-3-[2-hydroxy-5-(7-hydroxy-4-oxo-chromen-3-yl)phenyl]phenyl]chromen-4-one

>  <PUBCHEM_IUPAC_CAS_NAME>
7-hydroxy-3-[4-hydroxy-3-[2-hydroxy-5-(7-hydroxy-4-oxo-1-benzopyran-3-yl)phenyl]phenyl]-1-benzopyran-4-one

>  <PUBCHEM_IUPAC_NAME>
7-hydroxy-3-[4-hydroxy-3-[2-hydroxy-5-(7-hydroxy-4-oxochromen-3-yl)phenyl]phenyl]chromen-4-one

>  <PUBCHEM_IUPAC_SYSTEMATIC_NAME>
7-oxidanyl-3-[4-oxidanyl-3-[2-oxidanyl-5-(7-oxidanyl-4-oxidanylidene-chromen-3-yl)phenyl]phenyl]chromen-4-one

>  <PUBCHEM_IUPAC_TRADITIONAL_NAME>
7-hydroxy-3-[4-hydroxy-3-[2-hydroxy-5-(7-hydroxy-4-keto-chromen-3-yl)phenyl]phenyl]chromone

>  <PUBCHEM_IUPAC_INCHI>
InChI=1S/C30H18O8/c31-17-3-5-19-27(11-17)37-13-23(29(19)35)15-1-7-25(33)21(9-15)22-10-16(2-8-26(22)34)24-14-38-28-12-18(32)4-6-20(28)30(24)36/h1-14,31-34H

>  <PUBCHEM_IUPAC_INCHIKEY>
PQOXGHFIRAKOKL-UHFFFAOYSA-N

>  <PUBCHEM_XLOGP3_AA>
4.6

>  <PUBCHEM_EXACT_MASS>
506.1

>  <PUBCHEM_MOLECULAR_FORMULA>
C30H18O8

>  <PUBCHEM_MOLECULAR_WEIGHT>
506.466

>  <PUBCHEM_OPENEYE_CAN_SMILES>
C1=CC(=C(C=C1C2=COC3=C(C2=O)C=CC(=C3)O)C4=C(C=CC(=C4)C5=COC6=C(C5=O)C=CC(=C6)O)O)O

>  <PUBCHEM_OPENEYE_ISO_SMILES>
C1=CC(=C(C=C1C2=COC3=C(C2=O)C=CC(=C3)O)C4=C(C=CC(=C4)C5=COC6=C(C5=O)C=CC(=C6)O)O)O

>  <PUBCHEM_CACTVS_TPSA>
134

>  <PUBCHEM_MONOISOTOPIC_WEIGHT>
506.1

>  <PUBCHEM_TOTAL_CHARGE>
0

>  <PUBCHEM_HEAVY_ATOM_COUNT>
38

>  <PUBCHEM_ATOM_DEF_STEREO_COUNT>
0

>  <PUBCHEM_ATOM_UDEF_STEREO_COUNT>
0

>  <PUBCHEM_BOND_DEF_STEREO_COUNT>
0

>  <PUBCHEM_BOND_UDEF_STEREO_COUNT>
0

>  <PUBCHEM_ISOTOPIC_ATOM_COUNT>
0

>  <PUBCHEM_COMPONENT_COUNT>
1

>  <PUBCHEM_CACTVS_TAUTO_COUNT>
155

>  <PUBCHEM_COORDINATE_TYPE>
1
5
255

>  <PUBCHEM_BONDANNOTATIONS>
1  28  8
1  30  8
10  14  8
10  17  8
11  13  8
11  20  8
12  14  8
12  19  8
15  23  8
15  30  8
16  24  8
16  29  8
17  25  8
18  26  8
19  25  8
2  27  8
2  29  8
20  26  8
21  24  8
21  27  8
21  32  8
22  23  8
22  28  8
22  31  8
27  34  8
28  33  8
31  35  8
32  36  8
33  38  8
34  37  8
35  38  8
36  37  8
9  13  8
9  18  8

$$$$
