72188972
 OpenBabel06101807152D

 76 80  0  0  1  0  0  0  0  0999 V2000
    5.1459   -2.6330    0.0000 O   0  0  0  0  0  0  0  0  0  0  0  0
    5.1396    4.4396    0.0000 O   0  0  0  0  0  0  0  0  0  0  0  0
    6.8779   -2.6330    0.0000 O   0  0  0  0  0  0  0  0  0  0  0  0
    5.1459   -5.6330    0.0000 O   0  0  0  0  0  0  0  0  0  0  0  0
    3.4138   -4.6330    0.0000 O   0  0  0  0  0  0  0  0  0  0  0  0
    5.9998    2.9363    0.0000 O   0  0  0  0  0  0  0  0  0  0  0  0
    6.8779   -4.6330    0.0000 O   0  0  0  0  0  0  0  0  0  0  0  0
    2.5357    2.9496    0.0000 O   0  0  0  0  0  0  0  0  0  0  0  0
    2.5434    4.9496    0.0000 O   0  0  0  0  0  0  0  0  0  0  0  0
    4.2639    1.9430    0.0000 O   0  0  0  0  0  0  0  0  0  0  0  0
    2.5478   -3.1330    0.0000 O   0  0  0  0  0  0  0  0  0  0  0  0
    7.7440   -0.1330    0.0000 O   0  0  0  0  0  0  0  0  0  0  0  0
    5.1459   -1.6329    0.0000 O   0  0  0  0  0  0  0  0  0  0  0  0
    4.2417   -0.1361    0.0000 O   0  0  0  0  0  0  0  0  0  0  0  0
   11.2081   -1.1329    0.0000 O   0  0  0  0  0  0  0  0  0  0  0  0
   11.2081   -3.1330    0.0000 O   0  0  0  0  0  0  0  0  0  0  0  0
    5.1459   -4.6330    0.0000 C   0  0  1  0  0  0  0  0  0  0  0  0
    4.2799   -4.1330    0.0000 C   0  0  1  0  0  0  0  0  0  0  0  0
    6.0119   -4.1330    0.0000 C   0  0  2  0  0  0  0  0  0  0  0  0
    4.2799   -3.1330    0.0000 C   0  0  1  0  0  0  0  0  0  0  0  0
    3.4037    3.4463    0.0000 C   0  0  2  0  0  0  0  0  0  0  0  0
    3.4075    4.4463    0.0000 C   0  0  2  0  0  0  0  0  0  0  0  0
    6.0119   -3.1330    0.0000 C   0  0  1  0  0  0  0  0  0  0  0  0
    4.2678    2.9430    0.0000 C   0  0  2  0  0  0  0  0  0  0  0  0
    4.2755    4.9430    0.0000 C   0  0  2  0  0  0  0  0  0  0  0  0
    5.1357    3.4396    0.0000 C   0  0  1  0  0  0  0  0  0  0  0  0
    3.4138   -2.6330    0.0000 C   0  0  0  0  0  0  0  0  0  0  0  0
    4.2793    5.9430    0.0000 C   0  0  0  0  0  0  0  0  0  0  0  0
    6.8779   -1.6329    0.0000 C   0  0  0  0  0  0  0  0  0  0  0  0
    5.9960    1.9363    0.0000 C   0  0  0  0  0  0  0  0  0  0  0  0
    6.0119   -0.1330    0.0000 C   0  0  0  0  0  0  0  0  0  0  0  0
    6.0119   -1.1329    0.0000 C   0  0  0  0  0  0  0  0  0  0  0  0
    7.7440   -1.1329    0.0000 C   0  0  0  0  0  0  0  0  0  0  0  0
    6.8779    0.3670    0.0000 C   0  0  0  0  0  0  0  0  0  0  0  0
    6.8940    1.4086    0.0000 C   0  0  0  0  0  0  0  0  0  0  0  0
    5.0939    1.4155    0.0000 C   0  0  0  0  0  0  0  0  0  0  0  0
    5.1019    0.3739    0.0000 C   0  0  0  0  0  0  0  0  0  0  0  0
    8.6100   -1.6329    0.0000 C   0  0  0  0  0  0  0  0  0  0  0  0
    9.4760   -1.1329    0.0000 C   0  0  0  0  0  0  0  0  0  0  0  0
    8.6100   -2.6330    0.0000 C   0  0  0  0  0  0  0  0  0  0  0  0
   10.3420   -1.6329    0.0000 C   0  0  0  0  0  0  0  0  0  0  0  0
    9.4760   -3.1330    0.0000 C   0  0  0  0  0  0  0  0  0  0  0  0
   10.3420   -2.6330    0.0000 C   0  0  0  0  0  0  0  0  0  0  0  0
   11.2081   -0.1330    0.0000 C   0  0  0  0  0  0  0  0  0  0  0  0
    5.6828   -4.9430    0.0000 H   0  0  0  0  0  0  0  0  0  0  0  0
    3.7429   -3.8230    0.0000 H   0  0  0  0  0  0  0  0  0  0  0  0
    6.5488   -3.8230    0.0000 H   0  0  0  0  0  0  0  0  0  0  0  0
    4.2799   -2.5130    0.0000 H   0  0  0  0  0  0  0  0  0  0  0  0
    2.8680    3.7584    0.0000 H   0  0  0  0  0  0  0  0  0  0  0  0
    3.4099    5.0663    0.0000 H   0  0  0  0  0  0  0  0  0  0  0  0
    6.0119   -2.5130    0.0000 H   0  0  0  0  0  0  0  0  0  0  0  0
    3.7296    2.6350    0.0000 H   0  0  0  0  0  0  0  0  0  0  0  0
    4.8136    5.2509    0.0000 H   0  0  0  0  0  0  0  0  0  0  0  0
    5.1333    2.8196    0.0000 H   0  0  0  0  0  0  0  0  0  0  0  0
    3.8124   -2.1580    0.0000 H   0  0  0  0  0  0  0  0  0  0  0  0
    3.0153   -2.1580    0.0000 H   0  0  0  0  0  0  0  0  0  0  0  0
    4.8993    5.9406    0.0000 H   0  0  0  0  0  0  0  0  0  0  0  0
    4.2817    6.5630    0.0000 H   0  0  0  0  0  0  0  0  0  0  0  0
    3.6593    5.9453    0.0000 H   0  0  0  0  0  0  0  0  0  0  0  0
    4.6090   -5.9430    0.0000 H   0  0  0  0  0  0  0  0  0  0  0  0
    3.4138   -5.2530    0.0000 H   0  0  0  0  0  0  0  0  0  0  0  0
    6.8779   -5.2530    0.0000 H   0  0  0  0  0  0  0  0  0  0  0  0
    2.0000    3.2617    0.0000 H   0  0  0  0  0  0  0  0  0  0  0  0
    2.5458    5.5696    0.0000 H   0  0  0  0  0  0  0  0  0  0  0  0
    3.7258    1.6351    0.0000 H   0  0  0  0  0  0  0  0  0  0  0  0
    2.0109   -2.8230    0.0000 H   0  0  0  0  0  0  0  0  0  0  0  0
    7.4345    1.7123    0.0000 H   0  0  0  0  0  0  0  0  0  0  0  0
    4.5558    1.7234    0.0000 H   0  0  0  0  0  0  0  0  0  0  0  0
    9.4760   -0.5130    0.0000 H   0  0  0  0  0  0  0  0  0  0  0  0
    8.0730   -2.9430    0.0000 H   0  0  0  0  0  0  0  0  0  0  0  0
    3.7012    0.1677    0.0000 H   0  0  0  0  0  0  0  0  0  0  0  0
    9.4760   -3.7530    0.0000 H   0  0  0  0  0  0  0  0  0  0  0  0
   11.2081   -3.7530    0.0000 H   0  0  0  0  0  0  0  0  0  0  0  0
   11.8281   -0.1330    0.0000 H   0  0  0  0  0  0  0  0  0  0  0  0
   11.2081    0.4870    0.0000 H   0  0  0  0  0  0  0  0  0  0  0  0
   10.5881   -0.1330    0.0000 H   0  0  0  0  0  0  0  0  0  0  0  0
  1 20  1  0  0  0  0
  1 23  1  0  0  0  0
  2 25  1  0  0  0  0
  2 26  1  0  0  0  0
  3 29  1  0  0  0  0
  4 60  1  0  0  0  0
  5 61  1  0  0  0  0
  6 30  1  0  0  0  0
  7 62  1  0  0  0  0
  8 63  1  0  0  0  0
  9 64  1  0  0  0  0
 10 65  1  0  0  0  0
 11 27  1  0  0  0  0
 11 66  1  0  0  0  0
 12 33  1  0  0  0  0
 12 34  1  0  0  0  0
 13 32  2  0  0  0  0
 14 37  1  0  0  0  0
 14 71  1  0  0  0  0
 15 41  1  0  0  0  0
 15 44  1  0  0  0  0
 16 43  1  0  0  0  0
 16 73  1  0  0  0  0
 17  4  1  0  0  0  0
 17 18  1  6  0  0  0
 17 45  1  0  0  0  0
 18  5  1  0  0  0  0
 18 20  1  6  0  0  0
 18 46  1  0  0  0  0
 19  7  1  0  0  0  0
 19 17  1  1  0  0  0
 19 47  1  0  0  0  0
 20 27  1  0  0  0  0
 20 48  1  6  0  0  0
 21  8  1  0  0  0  0
 21 22  1  6  0  0  0
 21 49  1  0  0  0  0
 22  9  1  0  0  0  0
 22 25  1  1  0  0  0
 22 50  1  0  0  0  0
 23  3  1  0  0  0  0
 23 19  1  6  0  0  0
 23 51  1  0  0  0  0
 24 10  1  0  0  0  0
 24 21  1  6  0  0  0
 24 52  1  0  0  0  0
 25 28  1  0  0  0  0
 25 53  1  1  0  0  0
 26  6  1  0  0  0  0
 26 24  1  1  0  0  0
 26 54  1  0  0  0  0
 27 55  1  0  0  0  0
 27 56  1  0  0  0  0
 28 57  1  0  0  0  0
 28 58  1  0  0  0  0
 28 59  1  0  0  0  0
 29 32  1  0  0  0  0
 29 33  2  0  0  0  0
 30 35  1  0  0  0  0
 30 36  2  0  0  0  0
 31 32  1  0  0  0  0
 31 34  1  0  0  0  0
 31 37  2  0  0  0  0
 33 38  1  0  0  0  0
 34 35  2  0  0  0  0
 35 67  1  0  0  0  0
 36 37  1  0  0  0  0
 36 68  1  0  0  0  0
 38 39  2  0  0  0  0
 38 40  1  0  0  0  0
 39 41  1  0  0  0  0
 39 69  1  0  0  0  0
 40 42  2  0  0  0  0
 40 70  1  0  0  0  0
 41 43  2  0  0  0  0
 42 43  1  0  0  0  0
 42 72  1  0  0  0  0
 44 74  1  0  0  0  0
 44 75  1  0  0  0  0
 44 76  1  0  0  0  0
M  END
>  <PUBCHEM_COMPOUND_CID>
72188972

>  <PUBCHEM_COMPOUND_CANONICALIZED>
1

>  <PUBCHEM_CACTVS_COMPLEXITY>
1040

>  <PUBCHEM_CACTVS_HBOND_ACCEPTOR>
16

>  <PUBCHEM_CACTVS_HBOND_DONOR>
9

>  <PUBCHEM_CACTVS_ROTATABLE_BOND>
7

>  <PUBCHEM_CACTVS_SUBSKEYS>
AAADcfB4PgAAAAAAAAAAAAAAAAAAAAAAAAA0aIECAAAAAACBQAAAGgAACAAADBSwmAMyDoAABgCIAqBSAAICCAAkIAAIiAFGiMgdNzaGNR6ieWOl4BUPuQfI7LzOIAABCAAIQABAAAIQABCAAAAAAAAAAA==

>  <PUBCHEM_IUPAC_OPENEYE_NAME>
5-hydroxy-2-(4-hydroxy-3-methoxy-phenyl)-3-[(2S,3R,4S,5S,6R)-3,4,5-trihydroxy-6-(hydroxymethyl)tetrahydropyran-2-yl]oxy-7-[(2S,3R,4R,5R,6S)-3,4,5-trihydroxy-6-methyl-tetrahydropyran-2-yl]oxy-chromen-4-one

>  <PUBCHEM_IUPAC_CAS_NAME>
5-hydroxy-2-(4-hydroxy-3-methoxyphenyl)-3-[[(2S,3R,4S,5S,6R)-3,4,5-trihydroxy-6-(hydroxymethyl)-2-oxanyl]oxy]-7-[[(2S,3R,4R,5R,6S)-3,4,5-trihydroxy-6-methyl-2-oxanyl]oxy]-1-benzopyran-4-one

>  <PUBCHEM_IUPAC_NAME>
5-hydroxy-2-(4-hydroxy-3-methoxyphenyl)-3-[(2S,3R,4S,5S,6R)-3,4,5-trihydroxy-6-(hydroxymethyl)oxan-2-yl]oxy-7-[(2S,3R,4R,5R,6S)-3,4,5-trihydroxy-6-methyloxan-2-yl]oxychromen-4-one

>  <PUBCHEM_IUPAC_SYSTEMATIC_NAME>
3-[(2S,3R,4S,5S,6R)-6-(hydroxymethyl)-3,4,5-tris(oxidanyl)oxan-2-yl]oxy-2-(3-methoxy-4-oxidanyl-phenyl)-7-[(2S,3R,4R,5R,6S)-6-methyl-3,4,5-tris(oxidanyl)oxan-2-yl]oxy-5-oxidanyl-chromen-4-one

>  <PUBCHEM_IUPAC_TRADITIONAL_NAME>
5-hydroxy-2-(4-hydroxy-3-methoxy-phenyl)-3-[(2S,3R,4S,5S,6R)-3,4,5-trihydroxy-6-methylol-tetrahydropyran-2-yl]oxy-7-[(2S,3R,4R,5R,6S)-3,4,5-trihydroxy-6-methyl-tetrahydropyran-2-yl]oxy-chromone

>  <PUBCHEM_IUPAC_INCHI>
InChI=1S/C28H32O16/c1-9-18(32)21(35)23(37)27(40-9)41-11-6-13(31)17-15(7-11)42-25(10-3-4-12(30)14(5-10)39-2)26(20(17)34)44-28-24(38)22(36)19(33)16(8-29)43-28/h3-7,9,16,18-19,21-24,27-33,35-38H,8H2,1-2H3/t9-,16+,18-,19+,21+,22-,23+,24+,27-,28-/m0/s1

>  <PUBCHEM_IUPAC_INCHIKEY>
NEJKEXUJCSYMCC-PXBUXKMDSA-N

>  <PUBCHEM_XLOGP3_AA>
-0.6

>  <PUBCHEM_EXACT_MASS>
624.169

>  <PUBCHEM_MOLECULAR_FORMULA>
C28H32O16

>  <PUBCHEM_MOLECULAR_WEIGHT>
624.548

>  <PUBCHEM_OPENEYE_CAN_SMILES>
CC1C(C(C(C(O1)OC2=CC(=C3C(=C2)OC(=C(C3=O)OC4C(C(C(C(O4)CO)O)O)O)C5=CC(=C(C=C5)O)OC)O)O)O)O

>  <PUBCHEM_OPENEYE_ISO_SMILES>
C[C@H]1[C@@H]([C@H]([C@H]([C@@H](O1)OC2=CC(=C3C(=C2)OC(=C(C3=O)O[C@H]4[C@@H]([C@H]([C@@H]([C@H](O4)CO)O)O)O)C5=CC(=C(C=C5)O)OC)O)O)O)O

>  <PUBCHEM_CACTVS_TPSA>
255

>  <PUBCHEM_MONOISOTOPIC_WEIGHT>
624.169

>  <PUBCHEM_TOTAL_CHARGE>
0

>  <PUBCHEM_HEAVY_ATOM_COUNT>
44

>  <PUBCHEM_ATOM_DEF_STEREO_COUNT>
10

>  <PUBCHEM_ATOM_UDEF_STEREO_COUNT>
0

>  <PUBCHEM_BOND_DEF_STEREO_COUNT>
0

>  <PUBCHEM_BOND_UDEF_STEREO_COUNT>
0

>  <PUBCHEM_ISOTOPIC_ATOM_COUNT>
0

>  <PUBCHEM_COMPONENT_COUNT>
1

>  <PUBCHEM_CACTVS_TAUTO_COUNT>
29

>  <PUBCHEM_COORDINATE_TYPE>
1
5
255

>  <PUBCHEM_BONDANNOTATIONS>
24  10  6
12  33  8
12  34  8
20  27  5
25  28  6
29  32  8
29  33  8
23  3  5
30  35  8
30  36  8
31  32  8
31  34  8
31  37  8
34  35  8
36  37  8
38  39  8
38  40  8
39  41  8
17  4  5
40  42  8
41  43  8
42  43  8
18  5  6
26  6  5
19  7  6
21  8  6
22  9  5

$$$$
