72547804
 OpenBabel06101807152D

 87 91  0  0  1  0  0  0  0  0999 V2000
   10.5680    0.4493    0.0000 O   0  0  0  0  0  0  0  0  0  0  0  0
   14.2741   -2.6332    0.0000 O   0  0  0  0  0  0  0  0  0  0  0  0
    9.8100   -3.3653    0.0000 O   0  0  0  0  0  0  0  0  0  0  0  0
    9.8100    0.0988    0.0000 O   0  0  0  0  0  0  0  0  0  0  0  0
   10.6500    1.6858    0.0000 O   0  0  0  0  0  0  0  0  0  0  0  0
   16.0062    0.3668    0.0000 O   0  0  0  0  0  0  0  0  0  0  0  0
   13.9052    2.8706    0.0000 O   0  0  0  0  0  0  0  0  0  0  0  0
    8.3100   -4.2312    0.0000 O   0  0  0  0  0  0  0  0  0  0  0  0
    2.3100   -4.2313    0.0000 O   0  0  0  0  0  0  0  0  0  0  0  0
   11.6760   -1.1332    0.0000 C   0  0  3  0  0  0  0  0  0  0  0  0
   12.5421   -1.6332    0.0000 C   0  0  3  0  0  0  0  0  0  0  0  0
   10.8100   -1.6332    0.0000 C   0  0  3  0  0  0  0  0  0  0  0  0
   12.5421   -2.6332    0.0000 C   0  0  0  0  0  0  0  0  0  0  0  0
   11.6760   -3.1332    0.0000 C   0  0  0  0  0  0  0  0  0  0  0  0
   10.8100   -2.6332    0.0000 C   0  0  0  0  0  0  0  0  0  0  0  0
   13.4081   -1.1332    0.0000 C   0  0  0  0  0  0  0  0  0  0  0  0
    9.8100   -1.6332    0.0000 C   0  0  0  0  0  0  0  0  0  0  0  0
   11.3340   -0.1935    0.0000 C   0  0  0  0  0  0  0  0  0  0  0  0
   11.6760   -4.1332    0.0000 C   0  0  0  0  0  0  0  0  0  0  0  0
   11.9768    0.5725    0.0000 C   0  0  0  0  0  0  0  0  0  0  0  0
   14.2741   -1.6332    0.0000 C   0  0  0  0  0  0  0  0  0  0  0  0
    9.3100   -2.4992    0.0000 C   0  0  0  0  0  0  0  0  0  0  0  0
   13.4081   -0.1332    0.0000 C   0  0  0  0  0  0  0  0  0  0  0  0
    9.3100   -0.7672    0.0000 C   0  0  0  0  0  0  0  0  0  0  0  0
    8.3100   -2.4992    0.0000 C   0  0  0  0  0  0  0  0  0  0  0  0
   11.6348    1.5122    0.0000 C   0  0  0  0  0  0  0  0  0  0  0  0
   15.1401   -1.1332    0.0000 C   0  0  0  0  0  0  0  0  0  0  0  0
   14.2741    0.3668    0.0000 C   0  0  0  0  0  0  0  0  0  0  0  0
    8.3100   -0.7672    0.0000 C   0  0  0  0  0  0  0  0  0  0  0  0
   12.9616    0.3989    0.0000 C   0  0  0  0  0  0  0  0  0  0  0  0
    7.8100   -1.6332    0.0000 C   0  0  0  0  0  0  0  0  0  0  0  0
   15.1401   -0.1332    0.0000 C   0  0  0  0  0  0  0  0  0  0  0  0
   12.2776    2.2782    0.0000 C   0  0  0  0  0  0  0  0  0  0  0  0
   13.6044    1.1649    0.0000 C   0  0  0  0  0  0  0  0  0  0  0  0
   13.2624    2.1046    0.0000 C   0  0  0  0  0  0  0  0  0  0  0  0
    7.8100   -3.3652    0.0000 C   0  0  0  0  0  0  0  0  0  0  0  0
   11.9355    3.2179    0.0000 C   0  0  0  0  0  0  0  0  0  0  0  0
    6.8100   -3.3653    0.0000 C   0  0  0  0  0  0  0  0  0  0  0  0
   10.9507    3.3916    0.0000 C   0  0  0  0  0  0  0  0  0  0  0  0
   10.6087    4.3313    0.0000 C   0  0  0  0  0  0  0  0  0  0  0  0
    6.3100   -4.2312    0.0000 C   0  0  0  0  0  0  0  0  0  0  0  0
   11.2515    5.0973    0.0000 C   0  0  0  0  0  0  0  0  0  0  0  0
    9.6239    4.5049    0.0000 C   0  0  0  0  0  0  0  0  0  0  0  0
    5.3100   -4.2313    0.0000 C   0  0  0  0  0  0  0  0  0  0  0  0
    4.8100   -5.0972    0.0000 C   0  0  0  0  0  0  0  0  0  0  0  0
    4.8100   -3.3653    0.0000 C   0  0  0  0  0  0  0  0  0  0  0  0
    3.8100   -5.0973    0.0000 C   0  0  0  0  0  0  0  0  0  0  0  0
    3.8100   -3.3653    0.0000 C   0  0  0  0  0  0  0  0  0  0  0  0
    3.3100   -4.2313    0.0000 C   0  0  0  0  0  0  0  0  0  0  0  0
   12.1510   -0.7347    0.0000 H   0  0  0  0  0  0  0  0  0  0  0  0
   12.5421   -1.0132    0.0000 H   0  0  0  0  0  0  0  0  0  0  0  0
   10.6495   -1.0344    0.0000 H   0  0  0  0  0  0  0  0  0  0  0  0
   12.7541   -3.2158    0.0000 H   0  0  0  0  0  0  0  0  0  0  0  0
   13.1526   -2.5256    0.0000 H   0  0  0  0  0  0  0  0  0  0  0  0
   10.2731   -2.9432    0.0000 H   0  0  0  0  0  0  0  0  0  0  0  0
   11.0560   -4.1332    0.0000 H   0  0  0  0  0  0  0  0  0  0  0  0
   11.6760   -4.7532    0.0000 H   0  0  0  0  0  0  0  0  0  0  0  0
   12.2960   -4.1332    0.0000 H   0  0  0  0  0  0  0  0  0  0  0  0
   12.8711    0.1768    0.0000 H   0  0  0  0  0  0  0  0  0  0  0  0
   15.6771   -1.4432    0.0000 H   0  0  0  0  0  0  0  0  0  0  0  0
   14.2741    0.9868    0.0000 H   0  0  0  0  0  0  0  0  0  0  0  0
    8.0000   -0.2303    0.0000 H   0  0  0  0  0  0  0  0  0  0  0  0
   13.1737   -0.1837    0.0000 H   0  0  0  0  0  0  0  0  0  0  0  0
    7.1900   -1.6332    0.0000 H   0  0  0  0  0  0  0  0  0  0  0  0
   14.8110   -2.9432    0.0000 H   0  0  0  0  0  0  0  0  0  0  0  0
    9.5000   -3.9022    0.0000 H   0  0  0  0  0  0  0  0  0  0  0  0
    9.5000    0.6358    0.0000 H   0  0  0  0  0  0  0  0  0  0  0  0
   14.2150    1.0572    0.0000 H   0  0  0  0  0  0  0  0  0  0  0  0
   12.5461    3.3256    0.0000 H   0  0  0  0  0  0  0  0  0  0  0  0
   11.9355    3.8379    0.0000 H   0  0  0  0  0  0  0  0  0  0  0  0
   10.4379    2.2685    0.0000 H   0  0  0  0  0  0  0  0  0  0  0  0
   16.5431    0.0568    0.0000 H   0  0  0  0  0  0  0  0  0  0  0  0
    6.5000   -2.8283    0.0000 H   0  0  0  0  0  0  0  0  0  0  0  0
   10.5522    2.9166    0.0000 H   0  0  0  0  0  0  0  0  0  0  0  0
   14.5157    2.7630    0.0000 H   0  0  0  0  0  0  0  0  0  0  0  0
    6.6200   -4.7682    0.0000 H   0  0  0  0  0  0  0  0  0  0  0  0
   11.7264    4.6988    0.0000 H   0  0  0  0  0  0  0  0  0  0  0  0
   11.6500    5.5723    0.0000 H   0  0  0  0  0  0  0  0  0  0  0  0
   10.7766    5.4959    0.0000 H   0  0  0  0  0  0  0  0  0  0  0  0
    9.7316    5.1155    0.0000 H   0  0  0  0  0  0  0  0  0  0  0  0
    9.0133    4.6126    0.0000 H   0  0  0  0  0  0  0  0  0  0  0  0
    9.5162    3.8944    0.0000 H   0  0  0  0  0  0  0  0  0  0  0  0
    5.1200   -5.6342    0.0000 H   0  0  0  0  0  0  0  0  0  0  0  0
    5.1200   -2.8283    0.0000 H   0  0  0  0  0  0  0  0  0  0  0  0
    3.5000   -5.6343    0.0000 H   0  0  0  0  0  0  0  0  0  0  0  0
    3.5000   -2.8283    0.0000 H   0  0  0  0  0  0  0  0  0  0  0  0
    2.0000   -4.7682    0.0000 H   0  0  0  0  0  0  0  0  0  0  0  0
  1 18  2  0  0  0  0
  2 21  1  0  0  0  0
  2 65  1  0  0  0  0
  3 22  1  0  0  0  0
  3 66  1  0  0  0  0
  4 24  1  0  0  0  0
  4 67  1  0  0  0  0
  5 26  1  0  0  0  0
  5 71  1  0  0  0  0
  6 32  1  0  0  0  0
  6 72  1  0  0  0  0
  7 35  1  0  0  0  0
  7 75  1  0  0  0  0
  8 36  2  0  0  0  0
  9 49  1  0  0  0  0
  9 87  1  0  0  0  0
 10 11  1  0  0  0  0
 10 12  1  0  0  0  0
 10 18  1  0  0  0  0
 10 50  1  0  0  0  0
 11 13  1  0  0  0  0
 11 16  1  0  0  0  0
 11 51  1  0  0  0  0
 12 15  1  0  0  0  0
 12 17  1  0  0  0  0
 12 52  1  0  0  0  0
 13 14  1  0  0  0  0
 13 53  1  0  0  0  0
 13 54  1  0  0  0  0
 14 15  2  0  0  0  0
 14 19  1  0  0  0  0
 15 55  1  0  0  0  0
 16 21  2  0  0  0  0
 16 23  1  0  0  0  0
 17 22  1  0  0  0  0
 17 24  2  0  0  0  0
 18 20  1  0  0  0  0
 19 56  1  0  0  0  0
 19 57  1  0  0  0  0
 19 58  1  0  0  0  0
 20 26  2  0  0  0  0
 20 30  1  0  0  0  0
 21 27  1  0  0  0  0
 22 25  2  0  0  0  0
 23 28  2  0  0  0  0
 23 59  1  0  0  0  0
 24 29  1  0  0  0  0
 25 31  1  0  0  0  0
 25 36  1  0  0  0  0
 26 33  1  0  0  0  0
 27 32  2  0  0  0  0
 27 60  1  0  0  0  0
 28 32  1  0  0  0  0
 28 61  1  0  0  0  0
 29 31  2  0  0  0  0
 29 62  1  0  0  0  0
 30 34  2  0  0  0  0
 30 63  1  0  0  0  0
 31 64  1  0  0  0  0
 33 35  2  0  0  0  0
 33 37  1  0  0  0  0
 34 35  1  0  0  0  0
 34 68  1  0  0  0  0
 36 38  1  0  0  0  0
 37 39  1  0  0  0  0
 37 69  1  0  0  0  0
 37 70  1  0  0  0  0
 38 41  2  0  0  0  0
 38 73  1  0  0  0  0
 39 40  2  0  0  0  0
 39 74  1  0  0  0  0
 40 42  1  0  0  0  0
 40 43  1  0  0  0  0
 41 44  1  0  0  0  0
 41 76  1  0  0  0  0
 42 77  1  0  0  0  0
 42 78  1  0  0  0  0
 42 79  1  0  0  0  0
 43 80  1  0  0  0  0
 43 81  1  0  0  0  0
 43 82  1  0  0  0  0
 44 45  2  0  0  0  0
 44 46  1  0  0  0  0
 45 47  1  0  0  0  0
 45 83  1  0  0  0  0
 46 48  2  0  0  0  0
 46 84  1  0  0  0  0
 47 49  2  0  0  0  0
 47 85  1  0  0  0  0
 48 49  1  0  0  0  0
 48 86  1  0  0  0  0
M  END
>  <PUBCHEM_COMPOUND_CID>
72547804

>  <PUBCHEM_COMPOUND_CANONICALIZED>
1

>  <PUBCHEM_CACTVS_COMPLEXITY>
1230

>  <PUBCHEM_CACTVS_HBOND_ACCEPTOR>
9

>  <PUBCHEM_CACTVS_HBOND_DONOR>
7

>  <PUBCHEM_CACTVS_ROTATABLE_BOND>
9

>  <PUBCHEM_CACTVS_SUBSKEYS>
AAADcfB8PAAAAAAAAAAAAAAAAAAAAAAAAAAwYMGCAAAAAAABVAAAGgAACAAADQSAmAAyBoAAAgCIAqBSAAACAAAkIAAIiAEGCMgIJzaCFRKAcUAl4BUImYeI7PTOoAACCAAIAABAAAQQABAAAAAAAAAAAA==

>  <PUBCHEM_IUPAC_OPENEYE_NAME>
(E)-1-[3-[6-[2,4-dihydroxy-3-(3-methylbut-2-enyl)benzoyl]-5-(2,4-dihydroxyphenyl)-3-methyl-cyclohex-2-en-1-yl]-2,4-dihydroxy-phenyl]-3-(4-hydroxyphenyl)prop-2-en-1-one

>  <PUBCHEM_IUPAC_CAS_NAME>
(E)-1-[3-[6-[[2,4-dihydroxy-3-(3-methylbut-2-enyl)phenyl]-oxomethyl]-5-(2,4-dihydroxyphenyl)-3-methyl-1-cyclohex-2-enyl]-2,4-dihydroxyphenyl]-3-(4-hydroxyphenyl)-2-propen-1-one

>  <PUBCHEM_IUPAC_NAME>
(E)-1-[3-[6-[2,4-dihydroxy-3-(3-methylbut-2-enyl)benzoyl]-5-(2,4-dihydroxyphenyl)-3-methylcyclohex-2-en-1-yl]-2,4-dihydroxyphenyl]-3-(4-hydroxyphenyl)prop-2-en-1-one

>  <PUBCHEM_IUPAC_SYSTEMATIC_NAME>
(E)-1-[3-[5-[2,4-bis(oxidanyl)phenyl]-3-methyl-6-[3-(3-methylbut-2-enyl)-2,4-bis(oxidanyl)phenyl]carbonyl-cyclohex-2-en-1-yl]-2,4-bis(oxidanyl)phenyl]-3-(4-hydroxyphenyl)prop-2-en-1-one

>  <PUBCHEM_IUPAC_TRADITIONAL_NAME>
(E)-1-[3-[6-[2,4-dihydroxy-3-(3-methylbut-2-enyl)benzoyl]-5-(2,4-dihydroxyphenyl)-3-methyl-cyclohex-2-en-1-yl]-2,4-dihydroxy-phenyl]-3-(4-hydroxyphenyl)prop-2-en-1-one

>  <PUBCHEM_IUPAC_INCHI>
InChI=1S/C40H38O9/c1-21(2)4-11-27-33(44)16-14-29(38(27)47)40(49)36-30(26-12-10-25(42)20-35(26)46)18-22(3)19-31(36)37-34(45)17-13-28(39(37)48)32(43)15-7-23-5-8-24(41)9-6-23/h4-10,12-17,19-20,30-31,36,41-42,44-48H,11,18H2,1-3H3/b15-7+

>  <PUBCHEM_IUPAC_INCHIKEY>
LSWPUMCBBKEXMW-VIZOYTHASA-N

>  <PUBCHEM_XLOGP3_AA>
8.2

>  <PUBCHEM_EXACT_MASS>
662.252

>  <PUBCHEM_MOLECULAR_FORMULA>
C40H38O9

>  <PUBCHEM_MOLECULAR_WEIGHT>
662.735

>  <PUBCHEM_OPENEYE_CAN_SMILES>
CC1=CC(C(C(C1)C2=C(C=C(C=C2)O)O)C(=O)C3=C(C(=C(C=C3)O)CC=C(C)C)O)C4=C(C=CC(=C4O)C(=O)C=CC5=CC=C(C=C5)O)O

>  <PUBCHEM_OPENEYE_ISO_SMILES>
CC1=CC(C(C(C1)C2=C(C=C(C=C2)O)O)C(=O)C3=C(C(=C(C=C3)O)CC=C(C)C)O)C4=C(C=CC(=C4O)C(=O)/C=C/C5=CC=C(C=C5)O)O

>  <PUBCHEM_CACTVS_TPSA>
176

>  <PUBCHEM_MONOISOTOPIC_WEIGHT>
662.252

>  <PUBCHEM_TOTAL_CHARGE>
0

>  <PUBCHEM_HEAVY_ATOM_COUNT>
49

>  <PUBCHEM_ATOM_DEF_STEREO_COUNT>
0

>  <PUBCHEM_ATOM_UDEF_STEREO_COUNT>
3

>  <PUBCHEM_BOND_DEF_STEREO_COUNT>
1

>  <PUBCHEM_BOND_UDEF_STEREO_COUNT>
0

>  <PUBCHEM_ISOTOPIC_ATOM_COUNT>
0

>  <PUBCHEM_COMPONENT_COUNT>
1

>  <PUBCHEM_CACTVS_TAUTO_COUNT>
994

>  <PUBCHEM_COORDINATE_TYPE>
1
5
255

>  <PUBCHEM_BONDANNOTATIONS>
10  18  3
11  16  3
12  17  3
16  21  8
16  23  8
17  22  8
17  24  8
20  26  8
20  30  8
21  27  8
22  25  8
23  28  8
24  29  8
25  31  8
26  33  8
27  32  8
28  32  8
29  31  8
30  34  8
33  35  8
34  35  8
44  45  8
44  46  8
45  47  8
46  48  8
47  49  8
48  49  8

$$$$
