72796416
 OpenBabel06101807152D

 38 39  0  0  1  0  0  0  0  0999 V2000
    5.5301   -1.1900    0.0000 O   0  0  0  0  0  0  0  0  0  0  0  0
    8.1282   -1.6900    0.0000 O   0  0  0  0  0  0  0  0  0  0  0  0
    2.0000    0.8342    0.0000 O   0  0  0  0  0  0  0  0  0  0  0  0
    6.3961   -0.6900    0.0000 C   0  0  3  0  0  0  0  0  0  0  0  0
    6.3961    0.3100    0.0000 C   0  0  0  0  0  0  0  0  0  0  0  0
    7.2622   -1.1900    0.0000 C   0  0  0  0  0  0  0  0  0  0  0  0
    5.5301    0.8100    0.0000 C   0  0  3  0  0  0  0  0  0  0  0  0
    4.6641    0.3100    0.0000 C   0  0  0  0  0  0  0  0  0  0  0  0
    4.6641   -0.6900    0.0000 C   0  0  0  0  0  0  0  0  0  0  0  0
    7.7622   -0.3240    0.0000 C   0  0  0  0  0  0  0  0  0  0  0  0
    6.7622   -2.0560    0.0000 C   0  0  0  0  0  0  0  0  0  0  0  0
    5.5301    1.8100    0.0000 C   0  0  0  0  0  0  0  0  0  0  0  0
    3.7702    0.8447    0.0000 C   0  0  0  0  0  0  0  0  0  0  0  0
    3.7702   -1.2247    0.0000 C   0  0  0  0  0  0  0  0  0  0  0  0
    2.8641   -0.7108    0.0000 C   0  0  0  0  0  0  0  0  0  0  0  0
    2.8641    0.3308    0.0000 C   0  0  0  0  0  0  0  0  0  0  0  0
    6.3961    2.3100    0.0000 C   0  0  0  0  0  0  0  0  0  0  0  0
    2.0000   -1.2142    0.0000 C   0  0  0  0  0  0  0  0  0  0  0  0
    6.3961   -1.3100    0.0000 H   0  0  0  0  0  0  0  0  0  0  0  0
    7.0067    0.2023    0.0000 H   0  0  0  0  0  0  0  0  0  0  0  0
    6.6082    0.8926    0.0000 H   0  0  0  0  0  0  0  0  0  0  0  0
    6.0671    1.1200    0.0000 H   0  0  0  0  0  0  0  0  0  0  0  0
    8.2991   -0.6340    0.0000 H   0  0  0  0  0  0  0  0  0  0  0  0
    8.0722    0.2130    0.0000 H   0  0  0  0  0  0  0  0  0  0  0  0
    7.2252   -0.0140    0.0000 H   0  0  0  0  0  0  0  0  0  0  0  0
    6.2252   -1.7460    0.0000 H   0  0  0  0  0  0  0  0  0  0  0  0
    6.4522   -2.5930    0.0000 H   0  0  0  0  0  0  0  0  0  0  0  0
    7.2991   -2.3660    0.0000 H   0  0  0  0  0  0  0  0  0  0  0  0
    4.9932    2.1200    0.0000 H   0  0  0  0  0  0  0  0  0  0  0  0
    3.7773    1.4646    0.0000 H   0  0  0  0  0  0  0  0  0  0  0  0
    3.7773   -1.8446    0.0000 H   0  0  0  0  0  0  0  0  0  0  0  0
    8.1282   -2.3100    0.0000 H   0  0  0  0  0  0  0  0  0  0  0  0
    6.9331    2.0000    0.0000 H   0  0  0  0  0  0  0  0  0  0  0  0
    6.3961    2.9300    0.0000 H   0  0  0  0  0  0  0  0  0  0  0  0
    1.6879   -0.6784    0.0000 H   0  0  0  0  0  0  0  0  0  0  0  0
    1.4643   -1.5262    0.0000 H   0  0  0  0  0  0  0  0  0  0  0  0
    2.3121   -1.7499    0.0000 H   0  0  0  0  0  0  0  0  0  0  0  0
    2.0024    1.4542    0.0000 H   0  0  0  0  0  0  0  0  0  0  0  0
  1  4  1  0  0  0  0
  1  9  1  0  0  0  0
  2  6  1  0  0  0  0
  2 32  1  0  0  0  0
  3 16  1  0  0  0  0
  3 38  1  0  0  0  0
  4  5  1  0  0  0  0
  4  6  1  0  0  0  0
  4 19  1  0  0  0  0
  5  7  1  0  0  0  0
  5 20  1  0  0  0  0
  5 21  1  0  0  0  0
  6 10  1  0  0  0  0
  6 11  1  0  0  0  0
  7  8  1  0  0  0  0
  7 12  1  0  0  0  0
  7 22  1  0  0  0  0
  8  9  2  0  0  0  0
  8 13  1  0  0  0  0
  9 14  1  0  0  0  0
 10 23  1  0  0  0  0
 10 24  1  0  0  0  0
 10 25  1  0  0  0  0
 11 26  1  0  0  0  0
 11 27  1  0  0  0  0
 11 28  1  0  0  0  0
 12 17  2  0  0  0  0
 12 29  1  0  0  0  0
 13 16  2  0  0  0  0
 13 30  1  0  0  0  0
 14 15  2  0  0  0  0
 14 31  1  0  0  0  0
 15 16  1  0  0  0  0
 15 18  1  0  0  0  0
 17 33  1  0  0  0  0
 17 34  1  0  0  0  0
 18 35  1  0  0  0  0
 18 36  1  0  0  0  0
 18 37  1  0  0  0  0
M  END
>  <PUBCHEM_COMPOUND_CID>
72796416

>  <PUBCHEM_COMPOUND_CANONICALIZED>
1

>  <PUBCHEM_CACTVS_COMPLEXITY>
313

>  <PUBCHEM_CACTVS_HBOND_ACCEPTOR>
3

>  <PUBCHEM_CACTVS_HBOND_DONOR>
2

>  <PUBCHEM_CACTVS_ROTATABLE_BOND>
2

>  <PUBCHEM_CACTVS_SUBSKEYS>
AAADceBwMAAAAAAAAAAAAAAAAAAAAAAAAAA0QAAAAAAAAACRAAAAGgAACAAADVSgmAIyBoAABgCAAiBCAAACCAAgIAAIiAAGCIgNJiKGMRqCeCCkwBELuAfAwPAOwQABAAAIAACCAAIAABAAAAAAAAAAAA==

>  <PUBCHEM_IUPAC_OPENEYE_NAME>
2-(1-hydroxy-1-methyl-ethyl)-7-methyl-4-vinyl-chroman-6-ol

>  <PUBCHEM_IUPAC_CAS_NAME>
4-ethenyl-2-(2-hydroxypropan-2-yl)-7-methyl-3,4-dihydro-2H-1-benzopyran-6-ol

>  <PUBCHEM_IUPAC_NAME>
4-ethenyl-2-(2-hydroxypropan-2-yl)-7-methyl-3,4-dihydro-2H-chromen-6-ol

>  <PUBCHEM_IUPAC_SYSTEMATIC_NAME>
4-ethenyl-7-methyl-2-(2-oxidanylpropan-2-yl)-3,4-dihydro-2H-chromen-6-ol

>  <PUBCHEM_IUPAC_TRADITIONAL_NAME>
2-(1-hydroxy-1-methyl-ethyl)-7-methyl-4-vinyl-chroman-6-ol

>  <PUBCHEM_IUPAC_INCHI>
InChI=1S/C15H20O3/c1-5-10-7-14(15(3,4)17)18-13-6-9(2)12(16)8-11(10)13/h5-6,8,10,14,16-17H,1,7H2,2-4H3

>  <PUBCHEM_IUPAC_INCHIKEY>
USPLMZMYYNDHOT-UHFFFAOYSA-N

>  <PUBCHEM_XLOGP3_AA>
2.9

>  <PUBCHEM_EXACT_MASS>
248.141

>  <PUBCHEM_MOLECULAR_FORMULA>
C15H20O3

>  <PUBCHEM_MOLECULAR_WEIGHT>
248.322

>  <PUBCHEM_OPENEYE_CAN_SMILES>
CC1=C(C=C2C(CC(OC2=C1)C(C)(C)O)C=C)O

>  <PUBCHEM_OPENEYE_ISO_SMILES>
CC1=C(C=C2C(CC(OC2=C1)C(C)(C)O)C=C)O

>  <PUBCHEM_CACTVS_TPSA>
49.7

>  <PUBCHEM_MONOISOTOPIC_WEIGHT>
248.141

>  <PUBCHEM_TOTAL_CHARGE>
0

>  <PUBCHEM_HEAVY_ATOM_COUNT>
18

>  <PUBCHEM_ATOM_DEF_STEREO_COUNT>
0

>  <PUBCHEM_ATOM_UDEF_STEREO_COUNT>
2

>  <PUBCHEM_BOND_DEF_STEREO_COUNT>
0

>  <PUBCHEM_BOND_UDEF_STEREO_COUNT>
0

>  <PUBCHEM_ISOTOPIC_ATOM_COUNT>
0

>  <PUBCHEM_COMPONENT_COUNT>
1

>  <PUBCHEM_CACTVS_TAUTO_COUNT>
9

>  <PUBCHEM_COORDINATE_TYPE>
1
5
255

>  <PUBCHEM_BONDANNOTATIONS>
13  16  8
14  15  8
15  16  8
4  6  3
7  12  3
8  13  8
8  9  8
9  14  8

$$$$
