73191348
 OpenBabel06101807152D

 43 45  0  0  0  0  0  0  0  0999 V2000
    7.2764   -0.5542    0.0000 O   0  0  0  0  0  0  0  0  0  0  0  0
    3.7320   -0.7495    0.0000 O   0  0  0  0  0  0  0  0  0  0  0  0
    7.5870    2.0058    0.0000 O   0  0  0  0  0  0  0  0  0  0  0  0
    8.8600   -3.2136    0.0000 O   0  0  0  0  0  0  0  0  0  0  0  0
   10.8600   -3.2136    0.0000 O   0  0  0  0  0  0  0  0  0  0  0  0
    6.3301    0.7505    0.0000 C   0  0  0  0  0  0  0  0  0  0  0  0
    4.5981    0.7505    0.0000 C   0  0  0  0  0  0  0  0  0  0  0  0
    6.3301   -0.2495    0.0000 C   0  0  0  0  0  0  0  0  0  0  0  0
    5.4641    1.2505    0.0000 C   0  0  0  0  0  0  0  0  0  0  0  0
    3.7320    1.2505    0.0000 C   0  0  0  0  0  0  0  0  0  0  0  0
    4.5981   -0.2495    0.0000 C   0  0  0  0  0  0  0  0  0  0  0  0
    7.2764    1.0552    0.0000 C   0  0  0  0  0  0  0  0  0  0  0  0
    5.4641   -0.7495    0.0000 C   0  0  0  0  0  0  0  0  0  0  0  0
    7.8600    0.2505    0.0000 C   0  0  0  0  0  0  0  0  0  0  0  0
    3.7320    2.2505    0.0000 C   0  0  0  0  0  0  0  0  0  0  0  0
    8.8600    0.2505    0.0000 C   0  0  0  0  0  0  0  0  0  0  0  0
    9.3600   -0.6155    0.0000 C   0  0  0  0  0  0  0  0  0  0  0  0
    2.8660    2.7505    0.0000 C   0  0  0  0  0  0  0  0  0  0  0  0
    8.8600   -1.4815    0.0000 C   0  0  0  0  0  0  0  0  0  0  0  0
   10.3600   -0.6155    0.0000 C   0  0  0  0  0  0  0  0  0  0  0  0
    2.8660    3.7505    0.0000 C   0  0  0  0  0  0  0  0  0  0  0  0
    2.0000    2.2505    0.0000 C   0  0  0  0  0  0  0  0  0  0  0  0
    9.3600   -2.3476    0.0000 C   0  0  0  0  0  0  0  0  0  0  0  0
   10.8600   -1.4815    0.0000 C   0  0  0  0  0  0  0  0  0  0  0  0
   10.3600   -2.3476    0.0000 C   0  0  0  0  0  0  0  0  0  0  0  0
    5.4641    1.8705    0.0000 H   0  0  0  0  0  0  0  0  0  0  0  0
    3.1215    1.3582    0.0000 H   0  0  0  0  0  0  0  0  0  0  0  0
    3.5200    0.6679    0.0000 H   0  0  0  0  0  0  0  0  0  0  0  0
    5.4641   -1.3695    0.0000 H   0  0  0  0  0  0  0  0  0  0  0  0
    4.2690    2.5605    0.0000 H   0  0  0  0  0  0  0  0  0  0  0  0
    9.1700    0.7875    0.0000 H   0  0  0  0  0  0  0  0  0  0  0  0
    8.2400   -1.4815    0.0000 H   0  0  0  0  0  0  0  0  0  0  0  0
   10.6700   -0.0786    0.0000 H   0  0  0  0  0  0  0  0  0  0  0  0
    3.7320   -1.3695    0.0000 H   0  0  0  0  0  0  0  0  0  0  0  0
    3.4860    3.7505    0.0000 H   0  0  0  0  0  0  0  0  0  0  0  0
    1.6900    2.7875    0.0000 H   0  0  0  0  0  0  0  0  0  0  0  0
    1.4631    1.9405    0.0000 H   0  0  0  0  0  0  0  0  0  0  0  0
    2.3100    1.7136    0.0000 H   0  0  0  0  0  0  0  0  0  0  0  0
    2.8660    4.3705    0.0000 H   0  0  0  0  0  0  0  0  0  0  0  0
    2.2460    3.7505    0.0000 H   0  0  0  0  0  0  0  0  0  0  0  0
   11.4800   -1.4815    0.0000 H   0  0  0  0  0  0  0  0  0  0  0  0
    9.1700   -3.7505    0.0000 H   0  0  0  0  0  0  0  0  0  0  0  0
   11.4800   -3.2136    0.0000 H   0  0  0  0  0  0  0  0  0  0  0  0
  1  8  1  0  0  0  0
  1 14  1  0  0  0  0
  2 11  1  0  0  0  0
  2 34  1  0  0  0  0
  3 12  2  0  0  0  0
  4 23  1  0  0  0  0
  4 42  1  0  0  0  0
  5 25  1  0  0  0  0
  5 43  1  0  0  0  0
  6  8  2  0  0  0  0
  6  9  1  0  0  0  0
  6 12  1  0  0  0  0
  7  9  2  0  0  0  0
  7 10  1  0  0  0  0
  7 11  1  0  0  0  0
  8 13  1  0  0  0  0
  9 26  1  0  0  0  0
 10 15  1  0  0  0  0
 10 27  1  0  0  0  0
 10 28  1  0  0  0  0
 11 13  2  0  0  0  0
 12 14  1  0  0  0  0
 13 29  1  0  0  0  0
 14 16  2  3  0  0  0
 15 18  2  0  0  0  0
 15 30  1  0  0  0  0
 16 17  1  0  0  0  0
 16 31  1  0  0  0  0
 17 19  2  0  0  0  0
 17 20  1  0  0  0  0
 18 21  1  0  0  0  0
 18 22  1  0  0  0  0
 19 23  1  0  0  0  0
 19 32  1  0  0  0  0
 20 24  2  0  0  0  0
 20 33  1  0  0  0  0
 21 35  1  0  0  0  0
 21 39  1  0  0  0  0
 21 40  1  0  0  0  0
 22 36  1  0  0  0  0
 22 37  1  0  0  0  0
 22 38  1  0  0  0  0
 23 25  2  0  0  0  0
 24 25  1  0  0  0  0
 24 41  1  0  0  0  0
M  END
>  <PUBCHEM_COMPOUND_CID>
73191348

>  <PUBCHEM_COMPOUND_CANONICALIZED>
1

>  <PUBCHEM_CACTVS_COMPLEXITY>
562

>  <PUBCHEM_CACTVS_HBOND_ACCEPTOR>
5

>  <PUBCHEM_CACTVS_HBOND_DONOR>
3

>  <PUBCHEM_CACTVS_ROTATABLE_BOND>
3

>  <PUBCHEM_CACTVS_SUBSKEYS>
AAADceB4OAAAAAAAAAAAAAAAAAAAASAAAAAwYAAAAAAAAEgBQAAAGgAACAAADASAmAAyBoAABgCIAqBSAAICCAAkIAAIiAFGiMgNJzaGNR6CeWGl4BUJuYeI7PzOIAADCAAIQABAAAYQABCAAAAAAAAAAA==

>  <PUBCHEM_IUPAC_OPENEYE_NAME>
2-[(3,4-dihydroxyphenyl)methylene]-6-hydroxy-5-(3-methylbut-2-enyl)benzofuran-3-one

>  <PUBCHEM_IUPAC_CAS_NAME>
2-[(3,4-dihydroxyphenyl)methylidene]-6-hydroxy-5-(3-methylbut-2-enyl)-3-benzofuranone

>  <PUBCHEM_IUPAC_NAME>
2-[(3,4-dihydroxyphenyl)methylidene]-6-hydroxy-5-(3-methylbut-2-enyl)-1-benzofuran-3-one

>  <PUBCHEM_IUPAC_SYSTEMATIC_NAME>
2-[[3,4-bis(oxidanyl)phenyl]methylidene]-5-(3-methylbut-2-enyl)-6-oxidanyl-1-benzofuran-3-one

>  <PUBCHEM_IUPAC_TRADITIONAL_NAME>
2-(3,4-dihydroxybenzylidene)-6-hydroxy-5-(3-methylbut-2-enyl)coumaran-3-one

>  <PUBCHEM_IUPAC_INCHI>
InChI=1S/C20H18O5/c1-11(2)3-5-13-9-14-18(10-16(13)22)25-19(20(14)24)8-12-4-6-15(21)17(23)7-12/h3-4,6-10,21-23H,5H2,1-2H3

>  <PUBCHEM_IUPAC_INCHIKEY>
NYCBUBKYUALZIH-UHFFFAOYSA-N

>  <PUBCHEM_XLOGP3_AA>
4.5

>  <PUBCHEM_EXACT_MASS>
338.115

>  <PUBCHEM_MOLECULAR_FORMULA>
C20H18O5

>  <PUBCHEM_MOLECULAR_WEIGHT>
338.359

>  <PUBCHEM_OPENEYE_CAN_SMILES>
CC(=CCC1=C(C=C2C(=C1)C(=O)C(=CC3=CC(=C(C=C3)O)O)O2)O)C

>  <PUBCHEM_OPENEYE_ISO_SMILES>
CC(=CCC1=C(C=C2C(=C1)C(=O)C(=CC3=CC(=C(C=C3)O)O)O2)O)C

>  <PUBCHEM_CACTVS_TPSA>
87

>  <PUBCHEM_MONOISOTOPIC_WEIGHT>
338.115

>  <PUBCHEM_TOTAL_CHARGE>
0

>  <PUBCHEM_HEAVY_ATOM_COUNT>
25

>  <PUBCHEM_ATOM_DEF_STEREO_COUNT>
0

>  <PUBCHEM_ATOM_UDEF_STEREO_COUNT>
0

>  <PUBCHEM_BOND_DEF_STEREO_COUNT>
0

>  <PUBCHEM_BOND_UDEF_STEREO_COUNT>
1

>  <PUBCHEM_ISOTOPIC_ATOM_COUNT>
0

>  <PUBCHEM_COMPONENT_COUNT>
1

>  <PUBCHEM_CACTVS_TAUTO_COUNT>
77

>  <PUBCHEM_COORDINATE_TYPE>
1
5
255

>  <PUBCHEM_BONDANNOTATIONS>
11  13  8
14  16  1
17  19  8
17  20  8
19  23  8
20  24  8
23  25  8
24  25  8
6  8  8
6  9  8
7  11  8
7  9  8
8  13  8

$$$$
