73410547
 OpenBabel06101807152D

 67 68  0  0  1  0  0  0  0  0999 V2000
    7.7331   -0.8450    0.0000 O   0  0  0  0  0  0  0  0  0  0  0  0
    9.4651   -0.8450    0.0000 O   0  0  0  0  0  0  0  0  0  0  0  0
    6.0010    0.1550    0.0000 O   0  0  0  0  0  0  0  0  0  0  0  0
    6.0010   -2.8450    0.0000 O   0  0  0  0  0  0  0  0  0  0  0  0
    7.7331   -3.8450    0.0000 O   0  0  0  0  0  0  0  0  0  0  0  0
    9.4651   -2.8450    0.0000 O   0  0  0  0  0  0  0  0  0  0  0  0
    4.2690    0.1550    0.0000 O   0  0  0  0  0  0  0  0  0  0  0  0
    6.0010    2.1550    0.0000 O   0  0  0  0  0  0  0  0  0  0  0  0
    4.2690    3.1550    0.0000 O   0  0  0  0  0  0  0  0  0  0  0  0
    2.5369    2.1550    0.0000 O   0  0  0  0  0  0  0  0  0  0  0  0
    6.8671   -1.3450    0.0000 C   0  0  3  0  0  0  0  0  0  0  0  0
    6.8671   -2.3450    0.0000 C   0  0  3  0  0  0  0  0  0  0  0  0
    7.7331   -2.8450    0.0000 C   0  0  3  0  0  0  0  0  0  0  0  0
    8.5991   -2.3450    0.0000 C   0  0  3  0  0  0  0  0  0  0  0  0
    8.5991   -1.3450    0.0000 C   0  0  3  0  0  0  0  0  0  0  0  0
    6.0010   -0.8450    0.0000 C   0  0  0  0  0  0  0  0  0  0  0  0
    9.4651    0.1550    0.0000 C   0  0  3  0  0  0  0  0  0  0  0  0
    5.1350    0.6550    0.0000 C   0  0  3  0  0  0  0  0  0  0  0  0
    5.1350    1.6550    0.0000 C   0  0  3  0  0  0  0  0  0  0  0  0
    4.2690    2.1550    0.0000 C   0  0  3  0  0  0  0  0  0  0  0  0
    3.4030    1.6550    0.0000 C   0  0  3  0  0  0  0  0  0  0  0  0
    9.4651    1.1550    0.0000 C   0  0  0  0  0  0  0  0  0  0  0  0
    3.4030    0.6550    0.0000 C   0  0  0  0  0  0  0  0  0  0  0  0
    8.4651    0.1550    0.0000 C   0  0  0  0  0  0  0  0  0  0  0  0
   10.4651    0.1550    0.0000 C   0  0  0  0  0  0  0  0  0  0  0  0
   10.3312    1.6550    0.0000 C   0  0  0  0  0  0  0  0  0  0  0  0
   10.3312    2.6550    0.0000 C   0  0  0  0  0  0  0  0  0  0  0  0
   10.9651   -0.7110    0.0000 C   0  0  0  0  0  0  0  0  0  0  0  0
   11.1972    3.1550    0.0000 C   0  0  0  0  0  0  0  0  0  0  0  0
   11.1972    4.1550    0.0000 C   0  0  0  0  0  0  0  0  0  0  0  0
   12.0632    2.6550    0.0000 C   0  0  0  0  0  0  0  0  0  0  0  0
    6.8671   -0.7250    0.0000 H   0  0  0  0  0  0  0  0  0  0  0  0
    6.8671   -2.9650    0.0000 H   0  0  0  0  0  0  0  0  0  0  0  0
    8.2700   -3.1550    0.0000 H   0  0  0  0  0  0  0  0  0  0  0  0
    9.1360   -2.0350    0.0000 H   0  0  0  0  0  0  0  0  0  0  0  0
    8.5991   -0.7250    0.0000 H   0  0  0  0  0  0  0  0  0  0  0  0
    5.3905   -0.7373    0.0000 H   0  0  0  0  0  0  0  0  0  0  0  0
    5.7890   -1.4276    0.0000 H   0  0  0  0  0  0  0  0  0  0  0  0
    5.6720    0.9650    0.0000 H   0  0  0  0  0  0  0  0  0  0  0  0
    5.1350    2.2750    0.0000 H   0  0  0  0  0  0  0  0  0  0  0  0
    3.7320    2.4650    0.0000 H   0  0  0  0  0  0  0  0  0  0  0  0
    3.9399    1.3450    0.0000 H   0  0  0  0  0  0  0  0  0  0  0  0
    9.2531    1.7376    0.0000 H   0  0  0  0  0  0  0  0  0  0  0  0
    8.8546    1.0473    0.0000 H   0  0  0  0  0  0  0  0  0  0  0  0
    2.7924    0.7627    0.0000 H   0  0  0  0  0  0  0  0  0  0  0  0
    3.1909    0.0724    0.0000 H   0  0  0  0  0  0  0  0  0  0  0  0
    5.4641   -2.5350    0.0000 H   0  0  0  0  0  0  0  0  0  0  0  0
    7.1962   -4.1550    0.0000 H   0  0  0  0  0  0  0  0  0  0  0  0
    9.4651   -3.4650    0.0000 H   0  0  0  0  0  0  0  0  0  0  0  0
    8.4651    0.7750    0.0000 H   0  0  0  0  0  0  0  0  0  0  0  0
    7.8451    0.1550    0.0000 H   0  0  0  0  0  0  0  0  0  0  0  0
    8.4651   -0.4650    0.0000 H   0  0  0  0  0  0  0  0  0  0  0  0
   10.7751    0.6919    0.0000 H   0  0  0  0  0  0  0  0  0  0  0  0
   10.5432    1.0724    0.0000 H   0  0  0  0  0  0  0  0  0  0  0  0
   10.9417    1.7627    0.0000 H   0  0  0  0  0  0  0  0  0  0  0  0
    6.0010    2.7750    0.0000 H   0  0  0  0  0  0  0  0  0  0  0  0
    3.7320    3.4650    0.0000 H   0  0  0  0  0  0  0  0  0  0  0  0
    2.0000    1.8450    0.0000 H   0  0  0  0  0  0  0  0  0  0  0  0
    9.7942    2.9650    0.0000 H   0  0  0  0  0  0  0  0  0  0  0  0
   10.6551   -1.2480    0.0000 H   0  0  0  0  0  0  0  0  0  0  0  0
   11.5851   -0.7110    0.0000 H   0  0  0  0  0  0  0  0  0  0  0  0
   11.7532    2.1181    0.0000 H   0  0  0  0  0  0  0  0  0  0  0  0
   12.6002    2.3450    0.0000 H   0  0  0  0  0  0  0  0  0  0  0  0
   12.3732    3.1919    0.0000 H   0  0  0  0  0  0  0  0  0  0  0  0
   11.8172    4.1550    0.0000 H   0  0  0  0  0  0  0  0  0  0  0  0
   11.1972    4.7750    0.0000 H   0  0  0  0  0  0  0  0  0  0  0  0
   10.5772    4.1550    0.0000 H   0  0  0  0  0  0  0  0  0  0  0  0
  1 11  1  0  0  0  0
  1 15  1  0  0  0  0
  2 15  1  0  0  0  0
  2 17  1  0  0  0  0
  3 16  1  0  0  0  0
  3 18  1  0  0  0  0
  4 12  1  0  0  0  0
  4 47  1  0  0  0  0
  5 13  1  0  0  0  0
  5 48  1  0  0  0  0
  6 14  1  0  0  0  0
  6 49  1  0  0  0  0
  7 18  1  0  0  0  0
  7 23  1  0  0  0  0
  8 19  1  0  0  0  0
  8 56  1  0  0  0  0
  9 20  1  0  0  0  0
  9 57  1  0  0  0  0
 10 21  1  0  0  0  0
 10 58  1  0  0  0  0
 11 12  1  0  0  0  0
 11 16  1  0  0  0  0
 11 32  1  0  0  0  0
 12 13  1  0  0  0  0
 12 33  1  0  0  0  0
 13 14  1  0  0  0  0
 13 34  1  0  0  0  0
 14 15  1  0  0  0  0
 14 35  1  0  0  0  0
 15 36  1  0  0  0  0
 16 37  1  0  0  0  0
 16 38  1  0  0  0  0
 17 22  1  0  0  0  0
 17 24  1  0  0  0  0
 17 25  1  0  0  0  0
 18 19  1  0  0  0  0
 18 39  1  0  0  0  0
 19 20  1  0  0  0  0
 19 40  1  0  0  0  0
 20 21  1  0  0  0  0
 20 41  1  0  0  0  0
 21 23  1  0  0  0  0
 21 42  1  0  0  0  0
 22 26  1  0  0  0  0
 22 43  1  0  0  0  0
 22 44  1  0  0  0  0
 23 45  1  0  0  0  0
 23 46  1  0  0  0  0
 24 50  1  0  0  0  0
 24 51  1  0  0  0  0
 24 52  1  0  0  0  0
 25 28  2  0  0  0  0
 25 53  1  0  0  0  0
 26 27  1  0  0  0  0
 26 54  1  0  0  0  0
 26 55  1  0  0  0  0
 27 29  2  0  0  0  0
 27 59  1  0  0  0  0
 28 60  1  0  0  0  0
 28 61  1  0  0  0  0
 29 30  1  0  0  0  0
 29 31  1  0  0  0  0
 30 65  1  0  0  0  0
 30 66  1  0  0  0  0
 30 67  1  0  0  0  0
 31 62  1  0  0  0  0
 31 63  1  0  0  0  0
 31 64  1  0  0  0  0
M  END
>  <PUBCHEM_COMPOUND_CID>
73410547

>  <PUBCHEM_COMPOUND_CANONICALIZED>
1

>  <PUBCHEM_CACTVS_COMPLEXITY>
609

>  <PUBCHEM_CACTVS_HBOND_ACCEPTOR>
10

>  <PUBCHEM_CACTVS_HBOND_DONOR>
6

>  <PUBCHEM_CACTVS_ROTATABLE_BOND>
9

>  <PUBCHEM_CACTVS_SUBSKEYS>
AAADcfB4PAAAAAAAAAAAAAAAAAAAAAAAAAAkSAAAAAAAAAAAAAAAGgAACAAADFSwgAMCCAAABgCAAiBCAAAAAAAgAAAICAAAAAgRFAIAIQAiQAAFgAAPIAPAYAwMAAAAAAAAAAAAAAAAAAAAAAAAAAAAAA==

>  <PUBCHEM_IUPAC_OPENEYE_NAME>
2-(1,5-dimethyl-1-vinyl-hex-4-enoxy)-6-[(3,4,5-trihydroxytetrahydropyran-2-yl)oxymethyl]tetrahydropyran-3,4,5-triol

>  <PUBCHEM_IUPAC_CAS_NAME>
2-(3,7-dimethylocta-1,6-dien-3-yloxy)-6-[(3,4,5-trihydroxy-2-oxanyl)oxymethyl]oxane-3,4,5-triol

>  <PUBCHEM_IUPAC_NAME>
2-(3,7-dimethylocta-1,6-dien-3-yloxy)-6-[(3,4,5-trihydroxyoxan-2-yl)oxymethyl]oxane-3,4,5-triol

>  <PUBCHEM_IUPAC_SYSTEMATIC_NAME>
2-(3,7-dimethylocta-1,6-dien-3-yloxy)-6-[[3,4,5-tris(oxidanyl)oxan-2-yl]oxymethyl]oxane-3,4,5-triol

>  <PUBCHEM_IUPAC_TRADITIONAL_NAME>
2-(1,5-dimethyl-1-vinyl-hex-4-enoxy)-6-[(3,4,5-trihydroxytetrahydropyran-2-yl)oxymethyl]tetrahydropyran-3,4,5-triol

>  <PUBCHEM_IUPAC_INCHI>
InChI=1S/C21H36O10/c1-5-21(4,8-6-7-11(2)3)31-20-18(27)16(25)15(24)13(30-20)10-29-19-17(26)14(23)12(22)9-28-19/h5,7,12-20,22-27H,1,6,8-10H2,2-4H3

>  <PUBCHEM_IUPAC_INCHIKEY>
OKNPZRJNRSGKME-UHFFFAOYSA-N

>  <PUBCHEM_XLOGP3_AA>
-0.9

>  <PUBCHEM_EXACT_MASS>
448.231

>  <PUBCHEM_MOLECULAR_FORMULA>
C21H36O10

>  <PUBCHEM_MOLECULAR_WEIGHT>
448.509

>  <PUBCHEM_OPENEYE_CAN_SMILES>
CC(=CCCC(C)(C=C)OC1C(C(C(C(O1)COC2C(C(C(CO2)O)O)O)O)O)O)C

>  <PUBCHEM_OPENEYE_ISO_SMILES>
CC(=CCCC(C)(C=C)OC1C(C(C(C(O1)COC2C(C(C(CO2)O)O)O)O)O)O)C

>  <PUBCHEM_CACTVS_TPSA>
158

>  <PUBCHEM_MONOISOTOPIC_WEIGHT>
448.231

>  <PUBCHEM_TOTAL_CHARGE>
0

>  <PUBCHEM_HEAVY_ATOM_COUNT>
31

>  <PUBCHEM_ATOM_DEF_STEREO_COUNT>
0

>  <PUBCHEM_ATOM_UDEF_STEREO_COUNT>
10

>  <PUBCHEM_BOND_DEF_STEREO_COUNT>
0

>  <PUBCHEM_BOND_UDEF_STEREO_COUNT>
0

>  <PUBCHEM_ISOTOPIC_ATOM_COUNT>
0

>  <PUBCHEM_COMPONENT_COUNT>
1

>  <PUBCHEM_CACTVS_TAUTO_COUNT>
1

>  <PUBCHEM_COORDINATE_TYPE>
1
5
255

>  <PUBCHEM_BONDANNOTATIONS>
21  10  3
11  16  3
17  24  3
15  2  3
18  3  3
12  4  3
13  5  3
14  6  3
19  8  3
20  9  3

$$$$
