73657324
 OpenBabel06101807152D

 67 71  0  0  1  0  0  0  0  0999 V2000
    9.0234   -1.0760    0.0000 O   0  0  0  0  0  0  0  0  0  0  0  0
    8.6078   -1.9158    0.0000 O   0  0  0  0  0  0  0  0  0  0  0  0
    9.9410    1.4795    0.0000 O   0  0  0  0  0  0  0  0  0  0  0  0
    6.8550   -1.4288    0.0000 O   0  0  0  0  0  0  0  0  0  0  0  0
    7.9036    1.0002    0.0000 O   0  0  0  0  0  0  0  0  0  0  0  0
   11.6894    1.4449    0.0000 O   0  0  0  0  0  0  0  0  0  0  0  0
    5.9507    1.4316    0.0000 O   0  0  0  0  0  0  0  0  0  0  0  0
    9.7672   -2.5766    0.0000 O   0  0  0  0  0  0  0  0  0  0  0  0
   13.4215   -1.5551    0.0000 O   0  0  0  0  0  0  0  0  0  0  0  0
   13.4215    0.4449    0.0000 O   0  0  0  0  0  0  0  0  0  0  0  0
    8.7923   -3.5367    0.0000 O   0  0  0  0  0  0  0  0  0  0  0  0
   12.8821   -2.6079    0.0000 O   0  0  0  0  0  0  0  0  0  0  0  0
   12.6844   -4.5402    0.0000 O   0  0  0  0  0  0  0  0  0  0  0  0
   10.9221   -5.3569    0.0000 O   0  0  0  0  0  0  0  0  0  0  0  0
    4.2992    0.9096    0.0000 O   0  0  0  0  0  0  0  0  0  0  0  0
    2.4185    3.9857    0.0000 O   0  0  0  0  0  0  0  0  0  0  0  0
    5.7215    5.0299    0.0000 O   0  0  0  0  0  0  0  0  0  0  0  0
    3.7686    5.4613    0.0000 O   0  0  0  0  0  0  0  0  0  0  0  0
    9.0234   -0.0343    0.0000 C   0  0  3  0  0  0  0  0  0  0  0  0
    8.5065   -0.9068    0.0000 C   0  0  3  0  0  0  0  0  0  0  0  0
    9.9295    0.4795    0.0000 C   0  0  3  0  0  0  0  0  0  0  0  0
    7.5300   -0.6911    0.0000 C   0  0  3  0  0  0  0  0  0  0  0  0
   10.8234   -0.0551    0.0000 C   0  0  0  0  0  0  0  0  0  0  0  0
   10.8234   -1.0551    0.0000 C   0  0  0  0  0  0  0  0  0  0  0  0
    7.2286    0.2624    0.0000 C   0  0  3  0  0  0  0  0  0  0  0  0
   11.6894   -1.5551    0.0000 C   0  0  0  0  0  0  0  0  0  0  0  0
    9.9295   -1.5898    0.0000 C   0  0  0  0  0  0  0  0  0  0  0  0
   11.6894    0.4449    0.0000 C   0  0  0  0  0  0  0  0  0  0  0  0
   11.2015   -2.4441    0.0000 C   0  0  0  0  0  0  0  0  0  0  0  0
    6.2522    0.4781    0.0000 C   0  0  0  0  0  0  0  0  0  0  0  0
   12.5555   -1.0551    0.0000 C   0  0  0  0  0  0  0  0  0  0  0  0
   10.2814   -2.8705    0.0000 C   0  0  0  0  0  0  0  0  0  0  0  0
   12.5555   -0.0551    0.0000 C   0  0  0  0  0  0  0  0  0  0  0  0
    9.2878   -2.6681    0.0000 C   0  0  0  0  0  0  0  0  0  0  0  0
   11.9672   -3.0116    0.0000 C   0  0  0  0  0  0  0  0  0  0  0  0
   10.2195   -3.8215    0.0000 C   0  0  0  0  0  0  0  0  0  0  0  0
   11.8702   -3.9597    0.0000 C   0  0  0  0  0  0  0  0  0  0  0  0
   11.0055   -4.3604    0.0000 C   0  0  0  0  0  0  0  0  0  0  0  0
    4.9743    1.6473    0.0000 C   0  0  0  0  0  0  0  0  0  0  0  0
    4.6729    2.6008    0.0000 C   0  0  0  0  0  0  0  0  0  0  0  0
    5.3479    3.3386    0.0000 C   0  0  0  0  0  0  0  0  0  0  0  0
    3.6964    2.8165    0.0000 C   0  0  0  0  0  0  0  0  0  0  0  0
    3.3950    3.7700    0.0000 C   0  0  0  0  0  0  0  0  0  0  0  0
    5.0465    4.2921    0.0000 C   0  0  0  0  0  0  0  0  0  0  0  0
    4.0700    4.5078    0.0000 C   0  0  0  0  0  0  0  0  0  0  0  0
    8.5892    0.4082    0.0000 H   0  0  0  0  0  0  0  0  0  0  0  0
    8.0431   -1.3187    0.0000 H   0  0  0  0  0  0  0  0  0  0  0  0
    9.3956    0.7947    0.0000 H   0  0  0  0  0  0  0  0  0  0  0  0
    6.9246   -0.5573    0.0000 H   0  0  0  0  0  0  0  0  0  0  0  0
    7.0417    0.8536    0.0000 H   0  0  0  0  0  0  0  0  0  0  0  0
    5.6375    0.3967    0.0000 H   0  0  0  0  0  0  0  0  0  0  0  0
    6.2256   -0.1413    0.0000 H   0  0  0  0  0  0  0  0  0  0  0  0
    9.4077    1.7956    0.0000 H   0  0  0  0  0  0  0  0  0  0  0  0
    6.2496   -1.2951    0.0000 H   0  0  0  0  0  0  0  0  0  0  0  0
    7.7168    1.5914    0.0000 H   0  0  0  0  0  0  0  0  0  0  0  0
    9.6618   -4.0926    0.0000 H   0  0  0  0  0  0  0  0  0  0  0  0
   12.2264    1.7549    0.0000 H   0  0  0  0  0  0  0  0  0  0  0  0
   13.9584   -1.2451    0.0000 H   0  0  0  0  0  0  0  0  0  0  0  0
   13.4215    1.0649    0.0000 H   0  0  0  0  0  0  0  0  0  0  0  0
   13.3825   -2.9740    0.0000 H   0  0  0  0  0  0  0  0  0  0  0  0
   12.6251   -5.1574    0.0000 H   0  0  0  0  0  0  0  0  0  0  0  0
   10.3612   -5.6210    0.0000 H   0  0  0  0  0  0  0  0  0  0  0  0
    5.9533    3.2049    0.0000 H   0  0  0  0  0  0  0  0  0  0  0  0
    3.2779    2.3591    0.0000 H   0  0  0  0  0  0  0  0  0  0  0  0
    2.0000    3.5283    0.0000 H   0  0  0  0  0  0  0  0  0  0  0  0
    5.5346    5.6210    0.0000 H   0  0  0  0  0  0  0  0  0  0  0  0
    3.1632    5.5950    0.0000 H   0  0  0  0  0  0  0  0  0  0  0  0
  1 19  1  0  0  0  0
  1 27  1  0  0  0  0
  2 20  1  0  0  0  0
  2 34  1  0  0  0  0
  3 21  1  0  0  0  0
  3 53  1  0  0  0  0
  4 22  1  0  0  0  0
  4 54  1  0  0  0  0
  5 25  1  0  0  0  0
  5 55  1  0  0  0  0
  6 28  1  0  0  0  0
  6 57  1  0  0  0  0
  7 30  1  0  0  0  0
  7 39  1  0  0  0  0
  8 27  2  0  0  0  0
  9 31  1  0  0  0  0
  9 58  1  0  0  0  0
 10 33  1  0  0  0  0
 10 59  1  0  0  0  0
 11 34  2  0  0  0  0
 12 35  1  0  0  0  0
 12 60  1  0  0  0  0
 13 37  1  0  0  0  0
 13 61  1  0  0  0  0
 14 38  1  0  0  0  0
 14 62  1  0  0  0  0
 15 39  2  0  0  0  0
 16 43  1  0  0  0  0
 16 65  1  0  0  0  0
 17 44  1  0  0  0  0
 17 66  1  0  0  0  0
 18 45  1  0  0  0  0
 18 67  1  0  0  0  0
 19 20  1  0  0  0  0
 19 21  1  0  0  0  0
 19 46  1  0  0  0  0
 20 22  1  0  0  0  0
 20 47  1  0  0  0  0
 21 23  1  0  0  0  0
 21 48  1  0  0  0  0
 22 25  1  0  0  0  0
 22 49  1  0  0  0  0
 23 24  1  0  0  0  0
 23 28  2  0  0  0  0
 24 26  2  0  0  0  0
 24 27  1  0  0  0  0
 25 30  1  0  0  0  0
 25 50  1  0  0  0  0
 26 29  1  0  0  0  0
 26 31  1  0  0  0  0
 28 33  1  0  0  0  0
 29 32  1  0  0  0  0
 29 35  2  0  0  0  0
 30 51  1  0  0  0  0
 30 52  1  0  0  0  0
 31 33  2  0  0  0  0
 32 34  1  0  0  0  0
 32 36  2  0  0  0  0
 35 37  1  0  0  0  0
 36 38  1  0  0  0  0
 36 56  1  0  0  0  0
 37 38  2  0  0  0  0
 39 40  1  0  0  0  0
 40 41  2  0  0  0  0
 40 42  1  0  0  0  0
 41 44  1  0  0  0  0
 41 63  1  0  0  0  0
 42 43  2  0  0  0  0
 42 64  1  0  0  0  0
 43 45  1  0  0  0  0
 44 45  2  0  0  0  0
M  END
>  <PUBCHEM_COMPOUND_CID>
73657324

>  <PUBCHEM_COMPOUND_CANONICALIZED>
1

>  <PUBCHEM_CACTVS_COMPLEXITY>
1110

>  <PUBCHEM_CACTVS_HBOND_ACCEPTOR>
18

>  <PUBCHEM_CACTVS_HBOND_DONOR>
12

>  <PUBCHEM_CACTVS_ROTATABLE_BOND>
6

>  <PUBCHEM_CACTVS_SUBSKEYS>
AAADceB4PgAAAAAAAAAAAAAAAAAAAAAAAAA0YMEAAAAAAACRUAAAGgAACAAADBSgmAIwDoAABgCIAiDSCAACAAAkIAAAiAEGiMgJNzKCNRqCcQElwBULuYfK7PzOoAADCAAYQABAAAYQADCAAAAAAAAAAA==

>  <PUBCHEM_IUPAC_INCHI>
InChI=1S/C27H22O18/c28-7-1-5(2-8(29)15(7)32)25(40)43-4-10(31)17(34)23-24-21(38)14-13(27(42)45-24)12(19(36)22(39)20(14)37)11-6(26(41)44-23)3-9(30)16(33)18(11)35/h1-3,10,17,21,23-24,28-39H,4H2

>  <PUBCHEM_IUPAC_INCHIKEY>
JYPJJOONMBTTAR-UHFFFAOYSA-N

>  <PUBCHEM_XLOGP3_AA>
-0.8

>  <PUBCHEM_EXACT_MASS>
634.081

>  <PUBCHEM_MOLECULAR_FORMULA>
C27H22O18

>  <PUBCHEM_MOLECULAR_WEIGHT>
634.455

>  <PUBCHEM_OPENEYE_CAN_SMILES>
C1=C(C=C(C(=C1O)O)O)C(=O)OCC(C(C2C3C(C4=C(C(=C(C(=C4C(=O)O3)C5=C(C(=C(C=C5C(=O)O2)O)O)O)O)O)O)O)O)O

>  <PUBCHEM_OPENEYE_ISO_SMILES>
C1=C(C=C(C(=C1O)O)O)C(=O)OCC(C(C2C3C(C4=C(C(=C(C(=C4C(=O)O3)C5=C(C(=C(C=C5C(=O)O2)O)O)O)O)O)O)O)O)O

>  <PUBCHEM_CACTVS_TPSA>
322

>  <PUBCHEM_MONOISOTOPIC_WEIGHT>
634.081

>  <PUBCHEM_TOTAL_CHARGE>
0

>  <PUBCHEM_HEAVY_ATOM_COUNT>
45

>  <PUBCHEM_ATOM_DEF_STEREO_COUNT>
0

>  <PUBCHEM_ATOM_UDEF_STEREO_COUNT>
5

>  <PUBCHEM_BOND_DEF_STEREO_COUNT>
0

>  <PUBCHEM_BOND_UDEF_STEREO_COUNT>
0

>  <PUBCHEM_ISOTOPIC_ATOM_COUNT>
0

>  <PUBCHEM_COMPONENT_COUNT>
1

>  <PUBCHEM_CACTVS_TAUTO_COUNT>
998

>  <PUBCHEM_COORDINATE_TYPE>
1
5
255

>  <PUBCHEM_BONDANNOTATIONS>
19  1  3
20  2  3
23  24  8
23  28  8
24  26  8
26  31  8
28  33  8
29  32  8
29  35  8
21  3  3
31  33  8
32  36  8
35  37  8
36  38  8
37  38  8
22  4  3
40  41  8
40  42  8
41  44  8
42  43  8
43  45  8
44  45  8
25  5  3

$$$$
