73800785
 OpenBabel06101807152D

 96102  0  0  1  0  0  0  0  0999 V2000
    8.2902    4.0403    0.0000 O   0  0  0  0  0  0  0  0  0  0  0  0
    6.5177    4.9351    0.0000 O   0  0  0  0  0  0  0  0  0  0  0  0
    6.8671   -4.2038    0.0000 O   0  0  0  0  0  0  0  0  0  0  0  0
    5.0597   -3.1509    0.0000 O   0  0  0  0  0  0  0  0  0  0  0  0
    5.1350   -4.2038    0.0000 O   0  0  0  0  0  0  0  0  0  0  0  0
    6.8671   -6.2038    0.0000 O   0  0  0  0  0  0  0  0  0  0  0  0
    5.1350   -7.2038    0.0000 O   0  0  0  0  0  0  0  0  0  0  0  0
    3.4030   -6.2038    0.0000 O   0  0  0  0  0  0  0  0  0  0  0  0
    2.5369   -4.7038    0.0000 O   0  0  0  0  0  0  0  0  0  0  0  0
    6.8963    1.9931    0.0000 C   0  0  3  0  0  0  0  0  0  0  0  0
    7.7643    1.4965    0.0000 C   0  0  3  0  0  0  0  0  0  0  0  0
    7.7681    0.4965    0.0000 C   0  0  3  0  0  0  0  0  0  0  0  0
    7.1018    2.9657    0.0000 C   0  0  3  0  0  0  0  0  0  0  0  0
    6.9040   -0.0069    0.0000 C   0  0  3  0  0  0  0  0  0  0  0  0
    6.8920   -1.0484    0.0000 C   0  0  3  0  0  0  0  0  0  0  0  0
    8.0901    3.0726    0.0000 C   0  0  3  0  0  0  0  0  0  0  0  0
    8.4987    2.1664    0.0000 C   0  0  0  0  0  0  0  0  0  0  0  0
    6.0322    1.4898    0.0000 C   0  0  0  0  0  0  0  0  0  0  0  0
    6.0361    0.4898    0.0000 C   0  0  0  0  0  0  0  0  0  0  0  0
    6.6995    3.8683    0.0000 C   0  0  3  0  0  0  0  0  0  0  0  0
    7.7920   -1.5727    0.0000 C   0  0  3  0  0  0  0  0  0  0  0  0
    8.6801   -0.0069    0.0000 C   0  0  0  0  0  0  0  0  0  0  0  0
    7.4324    4.5311    0.0000 C   0  0  3  0  0  0  0  0  0  0  0  0
    8.6921   -1.0484    0.0000 C   0  0  0  0  0  0  0  0  0  0  0  0
    6.0284    2.4898    0.0000 C   0  0  0  0  0  0  0  0  0  0  0  0
    5.9421   -1.5727    0.0000 C   0  0  0  0  0  0  0  0  0  0  0  0
    7.8046   -2.6576    0.0000 C   0  0  0  0  0  0  0  0  0  0  0  0
    6.0279   -0.5451    0.0000 C   0  0  0  0  0  0  0  0  0  0  0  0
    5.9295   -2.6576    0.0000 C   0  0  3  0  0  0  0  0  0  0  0  0
    6.8671   -3.2038    0.0000 C   0  0  3  0  0  0  0  0  0  0  0  0
    5.7211    4.0750    0.0000 C   0  0  0  0  0  0  0  0  0  0  0  0
    8.2397    5.1213    0.0000 C   0  0  0  0  0  0  0  0  0  0  0  0
    8.1322    6.1155    0.0000 C   0  0  0  0  0  0  0  0  0  0  0  0
    6.4102    5.9293    0.0000 C   0  0  0  0  0  0  0  0  0  0  0  0
    7.2174    6.5195    0.0000 C   0  0  3  0  0  0  0  0  0  0  0  0
    7.1100    7.5138    0.0000 C   0  0  0  0  0  0  0  0  0  0  0  0
    6.0010   -4.7038    0.0000 C   0  0  3  0  0  0  0  0  0  0  0  0
    6.0010   -5.7038    0.0000 C   0  0  3  0  0  0  0  0  0  0  0  0
    5.1350   -6.2038    0.0000 C   0  0  3  0  0  0  0  0  0  0  0  0
    4.2690   -4.7038    0.0000 C   0  0  3  0  0  0  0  0  0  0  0  0
    4.2690   -5.7038    0.0000 C   0  0  3  0  0  0  0  0  0  0  0  0
    3.4030   -4.2038    0.0000 C   0  0  0  0  0  0  0  0  0  0  0  0
    8.3320    1.2472    0.0000 H   0  0  0  0  0  0  0  0  0  0  0  0
    8.3014    0.8127    0.0000 H   0  0  0  0  0  0  0  0  0  0  0  0
    6.4852    2.9004    0.0000 H   0  0  0  0  0  0  0  0  0  0  0  0
    7.4398   -0.3189    0.0000 H   0  0  0  0  0  0  0  0  0  0  0  0
    8.7064    3.1406    0.0000 H   0  0  0  0  0  0  0  0  0  0  0  0
    8.8661    1.6670    0.0000 H   0  0  0  0  0  0  0  0  0  0  0  0
    9.0340    2.4792    0.0000 H   0  0  0  0  0  0  0  0  0  0  0  0
    5.8179    2.0716    0.0000 H   0  0  0  0  0  0  0  0  0  0  0  0
    5.4221    1.3798    0.0000 H   0  0  0  0  0  0  0  0  0  0  0  0
    5.4251    0.5951    0.0000 H   0  0  0  0  0  0  0  0  0  0  0  0
    5.8263   -0.0936    0.0000 H   0  0  0  0  0  0  0  0  0  0  0  0
    6.3097    3.3862    0.0000 H   0  0  0  0  0  0  0  0  0  0  0  0
    8.3314   -1.8786    0.0000 H   0  0  0  0  0  0  0  0  0  0  0  0
    9.2921   -0.1059    0.0000 H   0  0  0  0  0  0  0  0  0  0  0  0
    8.8824    0.5792    0.0000 H   0  0  0  0  0  0  0  0  0  0  0  0
    8.9079   -1.6297    0.0000 H   0  0  0  0  0  0  0  0  0  0  0  0
    9.3017   -0.9353    0.0000 H   0  0  0  0  0  0  0  0  0  0  0  0
    6.3363    3.0279    0.0000 H   0  0  0  0  0  0  0  0  0  0  0  0
    5.4902    2.7977    0.0000 H   0  0  0  0  0  0  0  0  0  0  0  0
    5.7204    1.9517    0.0000 H   0  0  0  0  0  0  0  0  0  0  0  0
    5.7398   -0.9866    0.0000 H   0  0  0  0  0  0  0  0  0  0  0  0
    5.3300   -1.6717    0.0000 H   0  0  0  0  0  0  0  0  0  0  0  0
    8.0204   -3.2389    0.0000 H   0  0  0  0  0  0  0  0  0  0  0  0
    8.4142   -2.5445    0.0000 H   0  0  0  0  0  0  0  0  0  0  0  0
    6.3400   -0.0093    0.0000 H   0  0  0  0  0  0  0  0  0  0  0  0
    5.4922   -0.2330    0.0000 H   0  0  0  0  0  0  0  0  0  0  0  0
    5.7158   -1.0808    0.0000 H   0  0  0  0  0  0  0  0  0  0  0  0
    5.3956   -2.3425    0.0000 H   0  0  0  0  0  0  0  0  0  0  0  0
    7.4046   -3.5127    0.0000 H   0  0  0  0  0  0  0  0  0  0  0  0
    5.8492    4.6816    0.0000 H   0  0  0  0  0  0  0  0  0  0  0  0
    5.1145    4.2032    0.0000 H   0  0  0  0  0  0  0  0  0  0  0  0
    5.5929    3.4684    0.0000 H   0  0  0  0  0  0  0  0  0  0  0  0
    8.5132    4.5649    0.0000 H   0  0  0  0  0  0  0  0  0  0  0  0
    8.8352    5.2940    0.0000 H   0  0  0  0  0  0  0  0  0  0  0  0
    8.7508    6.0741    0.0000 H   0  0  0  0  0  0  0  0  0  0  0  0
    8.2804    6.7176    0.0000 H   0  0  0  0  0  0  0  0  0  0  0  0
    6.1367    6.4858    0.0000 H   0  0  0  0  0  0  0  0  0  0  0  0
    5.8147    5.7567    0.0000 H   0  0  0  0  0  0  0  0  0  0  0  0
    7.7180    6.8855    0.0000 H   0  0  0  0  0  0  0  0  0  0  0  0
    4.5251   -2.8368    0.0000 H   0  0  0  0  0  0  0  0  0  0  0  0
    7.7264    7.5804    0.0000 H   0  0  0  0  0  0  0  0  0  0  0  0
    7.0433    8.1302    0.0000 H   0  0  0  0  0  0  0  0  0  0  0  0
    6.4935    7.4471    0.0000 H   0  0  0  0  0  0  0  0  0  0  0  0
    6.0010   -4.0838    0.0000 H   0  0  0  0  0  0  0  0  0  0  0  0
    6.0010   -6.3238    0.0000 H   0  0  0  0  0  0  0  0  0  0  0  0
    4.5981   -6.5138    0.0000 H   0  0  0  0  0  0  0  0  0  0  0  0
    4.2690   -4.0838    0.0000 H   0  0  0  0  0  0  0  0  0  0  0  0
    3.7320   -5.3938    0.0000 H   0  0  0  0  0  0  0  0  0  0  0  0
    6.8671   -6.8238    0.0000 H   0  0  0  0  0  0  0  0  0  0  0  0
    3.8015   -3.7288    0.0000 H   0  0  0  0  0  0  0  0  0  0  0  0
    3.0044   -3.7288    0.0000 H   0  0  0  0  0  0  0  0  0  0  0  0
    4.5981   -7.5138    0.0000 H   0  0  0  0  0  0  0  0  0  0  0  0
    3.4030   -6.8238    0.0000 H   0  0  0  0  0  0  0  0  0  0  0  0
    2.0000   -4.3938    0.0000 H   0  0  0  0  0  0  0  0  0  0  0  0
  1 16  1  0  0  0  0
  1 23  1  0  0  0  0
  2 23  1  0  0  0  0
  2 34  1  0  0  0  0
  3 30  1  0  0  0  0
  3 37  1  0  0  0  0
  4 29  1  0  0  0  0
  4 82  1  0  0  0  0
  5 37  1  0  0  0  0
  5 40  1  0  0  0  0
  6 38  1  0  0  0  0
  6 91  1  0  0  0  0
  7 39  1  0  0  0  0
  7 94  1  0  0  0  0
  8 41  1  0  0  0  0
  8 95  1  0  0  0  0
  9 42  1  0  0  0  0
  9 96  1  0  0  0  0
 10 11  1  0  0  0  0
 10 13  1  0  0  0  0
 10 18  1  0  0  0  0
 10 25  1  0  0  0  0
 11 12  1  0  0  0  0
 11 17  1  0  0  0  0
 11 43  1  0  0  0  0
 12 14  1  0  0  0  0
 12 22  1  0  0  0  0
 12 44  1  0  0  0  0
 13 16  1  0  0  0  0
 13 20  1  0  0  0  0
 13 45  1  0  0  0  0
 14 15  1  0  0  0  0
 14 19  1  0  0  0  0
 14 46  1  0  0  0  0
 15 21  1  0  0  0  0
 15 26  1  0  0  0  0
 15 28  1  0  0  0  0
 16 17  1  0  0  0  0
 16 47  1  0  0  0  0
 17 48  1  0  0  0  0
 17 49  1  0  0  0  0
 18 19  1  0  0  0  0
 18 50  1  0  0  0  0
 18 51  1  0  0  0  0
 19 52  1  0  0  0  0
 19 53  1  0  0  0  0
 20 23  1  0  0  0  0
 20 31  1  0  0  0  0
 20 54  1  0  0  0  0
 21 24  1  0  0  0  0
 21 27  1  0  0  0  0
 21 55  1  0  0  0  0
 22 24  1  0  0  0  0
 22 56  1  0  0  0  0
 22 57  1  0  0  0  0
 23 32  1  0  0  0  0
 24 58  1  0  0  0  0
 24 59  1  0  0  0  0
 25 60  1  0  0  0  0
 25 61  1  0  0  0  0
 25 62  1  0  0  0  0
 26 29  1  0  0  0  0
 26 63  1  0  0  0  0
 26 64  1  0  0  0  0
 27 30  1  0  0  0  0
 27 65  1  0  0  0  0
 27 66  1  0  0  0  0
 28 67  1  0  0  0  0
 28 68  1  0  0  0  0
 28 69  1  0  0  0  0
 29 30  1  0  0  0  0
 29 70  1  0  0  0  0
 30 71  1  0  0  0  0
 31 72  1  0  0  0  0
 31 73  1  0  0  0  0
 31 74  1  0  0  0  0
 32 33  1  0  0  0  0
 32 75  1  0  0  0  0
 32 76  1  0  0  0  0
 33 35  1  0  0  0  0
 33 77  1  0  0  0  0
 33 78  1  0  0  0  0
 34 35  1  0  0  0  0
 34 79  1  0  0  0  0
 34 80  1  0  0  0  0
 35 36  1  0  0  0  0
 35 81  1  0  0  0  0
 36 83  1  0  0  0  0
 36 84  1  0  0  0  0
 36 85  1  0  0  0  0
 37 38  1  0  0  0  0
 37 86  1  0  0  0  0
 38 39  1  0  0  0  0
 38 87  1  0  0  0  0
 39 41  1  0  0  0  0
 39 88  1  0  0  0  0
 40 41  1  0  0  0  0
 40 42  1  0  0  0  0
 40 89  1  0  0  0  0
 41 90  1  0  0  0  0
 42 92  1  0  0  0  0
 42 93  1  0  0  0  0
M  END
>  <PUBCHEM_COMPOUND_CID>
73800785

>  <PUBCHEM_COMPOUND_CANONICALIZED>
1

>  <PUBCHEM_CACTVS_COMPLEXITY>
1010

>  <PUBCHEM_CACTVS_HBOND_ACCEPTOR>
9

>  <PUBCHEM_CACTVS_HBOND_DONOR>
5

>  <PUBCHEM_CACTVS_ROTATABLE_BOND>
3

>  <PUBCHEM_CACTVS_SUBSKEYS>
AAADcfB8PAAAAAAAAAAAAAAAAAAAAaIAAAA0aMECAAASAGDAAAAAGgAACAAADxSwgAMCCAAABgAAAAAAAAAAAAAAAAAAAAAAAAAREAIAAAAiQAAFAAAHAAHA4PwPgAAAAAAAAADAAAYAACCAAYAADAAAAA==

>  <PUBCHEM_IUPAC_INCHI>
InChI=1S/C33H54O9/c1-16-7-10-33(39-15-16)17(2)26-24(42-33)12-21-19-6-5-18-11-23(40-30-29(38)28(37)27(36)25(14-34)41-30)22(35)13-32(18,4)20(19)8-9-31(21,26)3/h16-30,34-38H,5-15H2,1-4H3

>  <PUBCHEM_IUPAC_INCHIKEY>
YTZASGUOZDZYSL-UHFFFAOYSA-N

>  <PUBCHEM_XLOGP3_AA>
3.9

>  <PUBCHEM_EXACT_MASS>
594.377

>  <PUBCHEM_MOLECULAR_FORMULA>
C33H54O9

>  <PUBCHEM_MOLECULAR_WEIGHT>
594.786

>  <PUBCHEM_OPENEYE_CAN_SMILES>
CC1CCC2(C(C3C(O2)CC4C3(CCC5C4CCC6C5(CC(C(C6)OC7C(C(C(C(O7)CO)O)O)O)O)C)C)C)OC1

>  <PUBCHEM_OPENEYE_ISO_SMILES>
CC1CCC2(C(C3C(O2)CC4C3(CCC5C4CCC6C5(CC(C(C6)OC7C(C(C(C(O7)CO)O)O)O)O)C)C)C)OC1

>  <PUBCHEM_CACTVS_TPSA>
138

>  <PUBCHEM_MONOISOTOPIC_WEIGHT>
594.377

>  <PUBCHEM_TOTAL_CHARGE>
0

>  <PUBCHEM_HEAVY_ATOM_COUNT>
42

>  <PUBCHEM_ATOM_DEF_STEREO_COUNT>
0

>  <PUBCHEM_ATOM_UDEF_STEREO_COUNT>
18

>  <PUBCHEM_BOND_DEF_STEREO_COUNT>
0

>  <PUBCHEM_BOND_UDEF_STEREO_COUNT>
0

>  <PUBCHEM_ISOTOPIC_ATOM_COUNT>
0

>  <PUBCHEM_COMPONENT_COUNT>
1

>  <PUBCHEM_CACTVS_TAUTO_COUNT>
1

>  <PUBCHEM_COORDINATE_TYPE>
1
5
255

>  <PUBCHEM_BONDANNOTATIONS>
10  25  3
11  17  3
12  22  3
13  20  3
14  19  3
15  28  3
16  17  3
20  31  3
21  27  3
23  32  3
30  3  3
37  3  3
35  36  3
29  4  3
40  42  3
38  6  3
39  7  3
41  8  3

$$$$
