73815132
 OpenBabel06101807152D

 27 28  0  0  1  0  0  0  0  0999 V2000
    2.6200    1.4330    0.0000 O   0  0  0  0  0  0  0  0  0  0  0  0
    3.6200    1.4330    0.0000 C   0  0  0  0  0  0  0  0  0  0  0  0
    3.1200    0.5670    0.0000 C   0  0  3  0  0  0  0  0  0  0  0  0
    4.4860    1.9330    0.0000 C   0  0  0  0  0  0  0  0  0  0  0  0
    3.6200    2.4330    0.0000 C   0  0  0  0  0  0  0  0  0  0  0  0
    2.2540    0.0670    0.0000 C   0  0  0  0  0  0  0  0  0  0  0  0
    3.9860    0.0670    0.0000 C   0  0  0  0  0  0  0  0  0  0  0  0
    2.2540   -0.9330    0.0000 C   0  0  0  0  0  0  0  0  0  0  0  0
    3.9860   -0.9330    0.0000 C   0  0  0  0  0  0  0  0  0  0  0  0
    3.1200   -1.4330    0.0000 C   0  0  0  0  0  0  0  0  0  0  0  0
    3.1200   -2.4330    0.0000 C   0  0  0  0  0  0  0  0  0  0  0  0
    3.0211    1.5935    0.0000 H   0  0  0  0  0  0  0  0  0  0  0  0
    4.8846    1.4581    0.0000 H   0  0  0  0  0  0  0  0  0  0  0  0
    4.8846    2.4080    0.0000 H   0  0  0  0  0  0  0  0  0  0  0  0
    3.8320    3.0156    0.0000 H   0  0  0  0  0  0  0  0  0  0  0  0
    3.0094    2.5407    0.0000 H   0  0  0  0  0  0  0  0  0  0  0  0
    2.0419    0.6496    0.0000 H   0  0  0  0  0  0  0  0  0  0  0  0
    1.6434   -0.0407    0.0000 H   0  0  0  0  0  0  0  0  0  0  0  0
    4.5966   -0.0407    0.0000 H   0  0  0  0  0  0  0  0  0  0  0  0
    4.1981    0.6496    0.0000 H   0  0  0  0  0  0  0  0  0  0  0  0
    1.6434   -0.8254    0.0000 H   0  0  0  0  0  0  0  0  0  0  0  0
    2.0419   -1.5156    0.0000 H   0  0  0  0  0  0  0  0  0  0  0  0
    4.5230   -1.2430    0.0000 H   0  0  0  0  0  0  0  0  0  0  0  0
    2.0000    1.4330    0.0000 H   0  0  0  0  0  0  0  0  0  0  0  0
    2.5000   -2.4330    0.0000 H   0  0  0  0  0  0  0  0  0  0  0  0
    3.1200   -3.0530    0.0000 H   0  0  0  0  0  0  0  0  0  0  0  0
    3.7400   -2.4330    0.0000 H   0  0  0  0  0  0  0  0  0  0  0  0
  1  3  1  0  0  0  0
  1 24  1  0  0  0  0
  2  3  1  0  0  0  0
  2  4  1  0  0  0  0
  2  5  1  0  0  0  0
  2 12  1  0  0  0  0
  3  6  1  0  0  0  0
  3  7  1  0  0  0  0
  4  5  1  0  0  0  0
  4 13  1  0  0  0  0
  4 14  1  0  0  0  0
  5 15  1  0  0  0  0
  5 16  1  0  0  0  0
  6  8  1  0  0  0  0
  6 17  1  0  0  0  0
  6 18  1  0  0  0  0
  7  9  1  0  0  0  0
  7 19  1  0  0  0  0
  7 20  1  0  0  0  0
  8 10  1  0  0  0  0
  8 21  1  0  0  0  0
  8 22  1  0  0  0  0
  9 10  2  0  0  0  0
  9 23  1  0  0  0  0
 10 11  1  0  0  0  0
 11 25  1  0  0  0  0
 11 26  1  0  0  0  0
 11 27  1  0  0  0  0
M  END
>  <PUBCHEM_COMPOUND_CID>
73815132

>  <PUBCHEM_COMPOUND_CANONICALIZED>
1

>  <PUBCHEM_CACTVS_COMPLEXITY>
191

>  <PUBCHEM_CACTVS_HBOND_ACCEPTOR>
1

>  <PUBCHEM_CACTVS_HBOND_DONOR>
1

>  <PUBCHEM_CACTVS_ROTATABLE_BOND>
1

>  <PUBCHEM_CACTVS_SUBSKEYS>
AAADceBwIAAAAAAAAAAAAAAAGAAAAAAAAAAgAAAAAAAAAAAAAAAAGgAACAAADUSAgAACAAAAAgCAAiBCAAAAAAAgAAAACAAAAAgAAAIAAQAAQAAEwAAIAAOAgMAOgAAAAAAAAAAAAAAAAAAAAAAAAAAAAA==

>  <PUBCHEM_IUPAC_OPENEYE_NAME>
1-cyclopropyl-4-methyl-cyclohex-3-en-1-ol

>  <PUBCHEM_IUPAC_CAS_NAME>
1-cyclopropyl-4-methyl-1-cyclohex-3-enol

>  <PUBCHEM_IUPAC_NAME>
1-cyclopropyl-4-methylcyclohex-3-en-1-ol

>  <PUBCHEM_IUPAC_SYSTEMATIC_NAME>
1-cyclopropyl-4-methyl-cyclohex-3-en-1-ol

>  <PUBCHEM_IUPAC_TRADITIONAL_NAME>
1-cyclopropyl-4-methyl-cyclohex-3-en-1-ol

>  <PUBCHEM_IUPAC_INCHI>
InChI=1S/C10H16O/c1-8-4-6-10(11,7-5-8)9-2-3-9/h4,9,11H,2-3,5-7H2,1H3

>  <PUBCHEM_IUPAC_INCHIKEY>
FTEUSHRMTWTVTP-UHFFFAOYSA-N

>  <PUBCHEM_XLOGP3_AA>
1.6

>  <PUBCHEM_EXACT_MASS>
152.12

>  <PUBCHEM_MOLECULAR_FORMULA>
C10H16O

>  <PUBCHEM_MOLECULAR_WEIGHT>
152.237

>  <PUBCHEM_OPENEYE_CAN_SMILES>
CC1=CCC(CC1)(C2CC2)O

>  <PUBCHEM_OPENEYE_ISO_SMILES>
CC1=CCC(CC1)(C2CC2)O

>  <PUBCHEM_CACTVS_TPSA>
20.2

>  <PUBCHEM_MONOISOTOPIC_WEIGHT>
152.12

>  <PUBCHEM_TOTAL_CHARGE>
0

>  <PUBCHEM_HEAVY_ATOM_COUNT>
11

>  <PUBCHEM_ATOM_DEF_STEREO_COUNT>
0

>  <PUBCHEM_ATOM_UDEF_STEREO_COUNT>
1

>  <PUBCHEM_BOND_DEF_STEREO_COUNT>
0

>  <PUBCHEM_BOND_UDEF_STEREO_COUNT>
0

>  <PUBCHEM_ISOTOPIC_ATOM_COUNT>
0

>  <PUBCHEM_COMPONENT_COUNT>
1

>  <PUBCHEM_CACTVS_TAUTO_COUNT>
1

>  <PUBCHEM_COORDINATE_TYPE>
1
5
255

>  <PUBCHEM_BONDANNOTATIONS>
3  1  3

$$$$
