73814546
 OpenBabel06101807152D

128139  0  0  1  0  0  0  0  0999 V2000
   12.9669   -0.7573    0.0000 O   0  0  0  0  0  0  0  0  0  0  0  0
    8.6978   -0.1110    0.0000 O   0  0  0  0  0  0  0  0  0  0  0  0
   13.2147    0.0835    0.0000 O   0  0  0  0  0  0  0  0  0  0  0  0
    9.7670   -0.7694    0.0000 O   0  0  0  0  0  0  0  0  0  0  0  0
   12.7299    1.7759    0.0000 O   0  0  0  0  0  0  0  0  0  0  0  0
   13.2299    0.9098    0.0000 O   0  0  0  0  0  0  0  0  0  0  0  0
   11.3638    2.4098    0.0000 O   0  0  0  0  0  0  0  0  0  0  0  0
    7.5726   -0.1722    0.0000 O   0  0  0  0  0  0  0  0  0  0  0  0
   10.6652    3.1483    0.0000 O   0  0  0  0  0  0  0  0  0  0  0  0
   10.5475   -0.9560    0.0000 O   0  0  0  0  0  0  0  0  0  0  0  0
    9.6761   -2.0467    0.0000 O   0  0  0  0  0  0  0  0  0  0  0  0
   13.9940   -2.6962    0.0000 O   0  0  0  0  0  0  0  0  0  0  0  0
    7.6040    1.4676    0.0000 O   0  0  0  0  0  0  0  0  0  0  0  0
   10.1064   -2.5614    0.0000 O   0  0  0  0  0  0  0  0  0  0  0  0
   12.8079   -4.3585    0.0000 O   0  0  0  0  0  0  0  0  0  0  0  0
   11.1996    5.8104    0.0000 O   0  0  0  0  0  0  0  0  0  0  0  0
    7.4034   -1.6567    0.0000 O   0  0  0  0  0  0  0  0  0  0  0  0
    7.6441    4.9315    0.0000 O   0  0  0  0  0  0  0  0  0  0  0  0
    6.9181   -1.7267    0.0000 O   0  0  0  0  0  0  0  0  0  0  0  0
   10.5334   -3.5517    0.0000 O   0  0  0  0  0  0  0  0  0  0  0  0
    5.6509   -0.9035    0.0000 O   0  0  0  0  0  0  0  0  0  0  0  0
   14.2296    5.7258    0.0000 O   0  0  0  0  0  0  0  0  0  0  0  0
   15.2028    3.9785    0.0000 O   0  0  0  0  0  0  0  0  0  0  0  0
    3.5833    0.7547    0.0000 O   0  0  0  0  0  0  0  0  0  0  0  0
    6.4869    2.7794    0.0000 O   0  0  0  0  0  0  0  0  0  0  0  0
    3.1581   -0.1435    0.0000 O   0  0  0  0  0  0  0  0  0  0  0  0
    4.4454    2.6127    0.0000 O   0  0  0  0  0  0  0  0  0  0  0  0
    2.2674   -1.9879    0.0000 O   0  0  0  0  0  0  0  0  0  0  0  0
    3.4325   -3.6726    0.0000 O   0  0  0  0  0  0  0  0  0  0  0  0
    7.9210   -6.0366    0.0000 O   0  0  0  0  0  0  0  0  0  0  0  0
    6.2062   -3.0266    0.0000 O   0  0  0  0  0  0  0  0  0  0  0  0
    6.1947   -5.0266    0.0000 O   0  0  0  0  0  0  0  0  0  0  0  0
   11.3638   -0.5902    0.0000 C   0  0  3  0  0  0  0  0  0  0  0  0
   12.2299   -0.0902    0.0000 C   0  0  3  0  0  0  0  0  0  0  0  0
    9.6039    1.4445    0.0000 C   0  0  3  0  0  0  0  0  0  0  0  0
   10.4978    0.9098    0.0000 C   0  0  0  0  0  0  0  0  0  0  0  0
   10.4978   -0.0902    0.0000 C   0  0  0  0  0  0  0  0  0  0  0  0
    8.6978    0.9306    0.0000 C   0  0  3  0  0  0  0  0  0  0  0  0
   12.2299    0.9098    0.0000 C   0  0  0  0  0  0  0  0  0  0  0  0
   11.5730   -1.5620    0.0000 C   0  0  0  0  0  0  0  0  0  0  0  0
    9.2176    0.0713    0.0000 C   0  0  3  0  0  0  0  0  0  0  0  0
   11.3638    1.4098    0.0000 C   0  0  0  0  0  0  0  0  0  0  0  0
   12.5618   -1.6650    0.0000 C   0  0  0  0  0  0  0  0  0  0  0  0
    9.1139    2.3162    0.0000 C   0  0  0  0  0  0  0  0  0  0  0  0
    9.6039   -0.6248    0.0000 C   0  0  0  0  0  0  0  0  0  0  0  0
    8.4764   -0.6000    0.0000 C   0  0  3  0  0  0  0  0  0  0  0  0
   10.9523   -2.3908    0.0000 C   0  0  0  0  0  0  0  0  0  0  0  0
    9.6239    3.1764    0.0000 C   0  0  0  0  0  0  0  0  0  0  0  0
   12.9983   -2.6040    0.0000 C   0  0  0  0  0  0  0  0  0  0  0  0
   10.3455   -1.5904    0.0000 C   0  0  0  0  0  0  0  0  0  0  0  0
    8.8130   -1.5417    0.0000 C   0  0  3  0  0  0  0  0  0  0  0  0
    8.1140    2.3278    0.0000 C   0  0  0  0  0  0  0  0  0  0  0  0
   11.3670   -3.3396    0.0000 C   0  0  0  0  0  0  0  0  0  0  0  0
    9.1340    4.0482    0.0000 C   0  0  0  0  0  0  0  0  0  0  0  0
   12.3969   -3.4469    0.0000 C   0  0  0  0  0  0  0  0  0  0  0  0
    9.6513    4.9523    0.0000 C   0  0  0  0  0  0  0  0  0  0  0  0
   11.2033    4.0402    0.0000 C   0  0  3  0  0  0  0  0  0  0  0  0
   10.6929    4.9482    0.0000 C   0  0  3  0  0  0  0  0  0  0  0  0
    7.6240    3.1996    0.0000 C   0  0  0  0  0  0  0  0  0  0  0  0
    8.1340    4.0597    0.0000 C   0  0  0  0  0  0  0  0  0  0  0  0
    8.1658   -2.3040    0.0000 C   0  0  0  0  0  0  0  0  0  0  0  0
   12.2031    4.0248    0.0000 C   0  0  0  0  0  0  0  0  0  0  0  0
    6.7501   -0.7409    0.0000 C   0  0  0  0  0  0  0  0  0  0  0  0
    9.6704   -3.0467    0.0000 C   0  0  0  0  0  0  0  0  0  0  0  0
    6.1813    0.0815    0.0000 C   0  0  0  0  0  0  0  0  0  0  0  0
   12.7164    4.8830    0.0000 C   0  0  0  0  0  0  0  0  0  0  0  0
   12.6897    3.1512    0.0000 C   0  0  0  0  0  0  0  0  0  0  0  0
    6.3222   -1.6448    0.0000 C   0  0  0  0  0  0  0  0  0  0  0  0
    5.1846    0.0001    0.0000 C   0  0  0  0  0  0  0  0  0  0  0  0
    8.8014   -3.5416    0.0000 C   0  0  0  0  0  0  0  0  0  0  0  0
   13.7163    4.8676    0.0000 C   0  0  0  0  0  0  0  0  0  0  0  0
   13.6896    3.1357    0.0000 C   0  0  0  0  0  0  0  0  0  0  0  0
    5.3255   -1.7261    0.0000 C   0  0  0  0  0  0  0  0  0  0  0  0
    4.7567   -0.9036    0.0000 C   0  0  0  0  0  0  0  0  0  0  0  0
    6.6414    1.0160    0.0000 C   0  0  0  0  0  0  0  0  0  0  0  0
   14.2029    3.9940    0.0000 C   0  0  0  0  0  0  0  0  0  0  0  0
    4.5790    0.8476    0.0000 C   0  0  0  0  0  0  0  0  0  0  0  0
    6.0556    1.8772    0.0000 C   0  0  0  0  0  0  0  0  0  0  0  0
    3.7174   -0.9724    0.0000 C   0  0  0  0  0  0  0  0  0  0  0  0
    7.9383   -3.0367    0.0000 C   0  0  0  0  0  0  0  0  0  0  0  0
    8.7956   -4.5416    0.0000 C   0  0  0  0  0  0  0  0  0  0  0  0
    5.0174    1.7925    0.0000 C   0  0  0  0  0  0  0  0  0  0  0  0
    4.8944   -2.6744    0.0000 C   0  0  0  0  0  0  0  0  0  0  0  0
    3.2644   -1.9104    0.0000 C   0  0  0  0  0  0  0  0  0  0  0  0
    3.8569   -2.7671    0.0000 C   0  0  0  0  0  0  0  0  0  0  0  0
    7.9268   -5.0366    0.0000 C   0  0  0  0  0  0  0  0  0  0  0  0
    7.0694   -3.5316    0.0000 C   0  0  0  0  0  0  0  0  0  0  0  0
    7.0636   -4.5316    0.0000 C   0  0  0  0  0  0  0  0  0  0  0  0
   11.3638    0.0298    0.0000 H   0  0  0  0  0  0  0  0  0  0  0  0
   10.0482    1.8770    0.0000 H   0  0  0  0  0  0  0  0  0  0  0  0
    8.1621    1.2427    0.0000 H   0  0  0  0  0  0  0  0  0  0  0  0
    9.7424    0.4014    0.0000 H   0  0  0  0  0  0  0  0  0  0  0  0
    9.0778   -0.7508    0.0000 H   0  0  0  0  0  0  0  0  0  0  0  0
   13.6132   -0.3915    0.0000 H   0  0  0  0  0  0  0  0  0  0  0  0
    9.2903   -1.1459    0.0000 H   0  0  0  0  0  0  0  0  0  0  0  0
   12.4199    2.3128    0.0000 H   0  0  0  0  0  0  0  0  0  0  0  0
   13.5399    1.4468    0.0000 H   0  0  0  0  0  0  0  0  0  0  0  0
   11.0010   -3.8400    0.0000 H   0  0  0  0  0  0  0  0  0  0  0  0
    9.7597    5.5627    0.0000 H   0  0  0  0  0  0  0  0  0  0  0  0
    9.0684    5.1636    0.0000 H   0  0  0  0  0  0  0  0  0  0  0  0
   11.5205    4.5729    0.0000 H   0  0  0  0  0  0  0  0  0  0  0  0
   10.3860    5.4870    0.0000 H   0  0  0  0  0  0  0  0  0  0  0  0
    7.0041    3.2067    0.0000 H   0  0  0  0  0  0  0  0  0  0  0  0
    7.7645   -2.7766    0.0000 H   0  0  0  0  0  0  0  0  0  0  0  0
    8.6384   -2.7053    0.0000 H   0  0  0  0  0  0  0  0  0  0  0  0
   14.2532   -3.2594    0.0000 H   0  0  0  0  0  0  0  0  0  0  0  0
    7.9078    0.9271    0.0000 H   0  0  0  0  0  0  0  0  0  0  0  0
   13.4248   -4.4204    0.0000 H   0  0  0  0  0  0  0  0  0  0  0  0
   10.8937    6.3497    0.0000 H   0  0  0  0  0  0  0  0  0  0  0  0
    7.0241    4.9387    0.0000 H   0  0  0  0  0  0  0  0  0  0  0  0
   12.4147    5.4246    0.0000 H   0  0  0  0  0  0  0  0  0  0  0  0
   12.3715    2.6191    0.0000 H   0  0  0  0  0  0  0  0  0  0  0  0
   13.9913    2.5941    0.0000 H   0  0  0  0  0  0  0  0  0  0  0  0
    7.2599    1.0593    0.0000 H   0  0  0  0  0  0  0  0  0  0  0  0
    7.9419   -2.4167    0.0000 H   0  0  0  0  0  0  0  0  0  0  0  0
    9.3308   -4.8547    0.0000 H   0  0  0  0  0  0  0  0  0  0  0  0
    5.2530   -3.1802    0.0000 H   0  0  0  0  0  0  0  0  0  0  0  0
   14.8495    5.7162    0.0000 H   0  0  0  0  0  0  0  0  0  0  0  0
   15.5045    3.4369    0.0000 H   0  0  0  0  0  0  0  0  0  0  0  0
    3.2248    1.2605    0.0000 H   0  0  0  0  0  0  0  0  0  0  0  0
    6.1362    3.2907    0.0000 H   0  0  0  0  0  0  0  0  0  0  0  0
    2.5396   -0.1868    0.0000 H   0  0  0  0  0  0  0  0  0  0  0  0
    3.8276    2.5599    0.0000 H   0  0  0  0  0  0  0  0  0  0  0  0
    2.0000   -2.5473    0.0000 H   0  0  0  0  0  0  0  0  0  0  0  0
    3.7872   -4.1812    0.0000 H   0  0  0  0  0  0  0  0  0  0  0  0
    8.4561   -6.3497    0.0000 H   0  0  0  0  0  0  0  0  0  0  0  0
    5.6675   -3.3334    0.0000 H   0  0  0  0  0  0  0  0  0  0  0  0
    6.1911   -5.6466    0.0000 H   0  0  0  0  0  0  0  0  0  0  0  0
  1 34  1  0  0  0  0
  1 43  1  0  0  0  0
  2 38  1  0  0  0  0
  2 45  1  0  0  0  0
  3 34  1  0  0  0  0
  3 94  1  0  0  0  0
  4 41  1  0  0  0  0
  4 50  1  0  0  0  0
  5 39  1  0  0  0  0
  5 96  1  0  0  0  0
  6 39  1  0  0  0  0
  6 97  1  0  0  0  0
  7 42  2  0  0  0  0
  8 46  1  0  0  0  0
  8 63  1  0  0  0  0
  9 48  1  0  0  0  0
  9 57  1  0  0  0  0
 10 45  2  0  0  0  0
 11 51  1  0  0  0  0
 11 64  1  0  0  0  0
 12 49  1  0  0  0  0
 12106  1  0  0  0  0
 13 52  1  0  0  0  0
 13107  1  0  0  0  0
 14 50  2  0  0  0  0
 15 55  1  0  0  0  0
 15108  1  0  0  0  0
 16 58  1  0  0  0  0
 16109  1  0  0  0  0
 17 61  1  0  0  0  0
 17 68  1  0  0  0  0
 18 60  1  0  0  0  0
 18110  1  0  0  0  0
 19 63  2  0  0  0  0
 20 64  2  0  0  0  0
 21 68  2  0  0  0  0
 22 71  1  0  0  0  0
 22118  1  0  0  0  0
 23 76  1  0  0  0  0
 23119  1  0  0  0  0
 24 77  1  0  0  0  0
 24120  1  0  0  0  0
 25 78  1  0  0  0  0
 25121  1  0  0  0  0
 26 79  1  0  0  0  0
 26122  1  0  0  0  0
 27 82  1  0  0  0  0
 27123  1  0  0  0  0
 28 84  1  0  0  0  0
 28124  1  0  0  0  0
 29 85  1  0  0  0  0
 29125  1  0  0  0  0
 30 86  1  0  0  0  0
 30126  1  0  0  0  0
 31 87  1  0  0  0  0
 31127  1  0  0  0  0
 32 88  1  0  0  0  0
 32128  1  0  0  0  0
 33 34  1  0  0  0  0
 33 37  1  0  0  0  0
 33 40  1  0  0  0  0
 33 89  1  0  0  0  0
 34 39  1  0  0  0  0
 35 36  1  0  0  0  0
 35 38  1  0  0  0  0
 35 44  1  0  0  0  0
 35 90  1  0  0  0  0
 36 37  2  0  0  0  0
 36 42  1  0  0  0  0
 37 45  1  0  0  0  0
 38 41  1  0  0  0  0
 38 91  1  0  0  0  0
 39 42  1  0  0  0  0
 40 43  2  0  0  0  0
 40 47  1  0  0  0  0
 41 46  1  0  0  0  0
 41 92  1  0  0  0  0
 43 49  1  0  0  0  0
 44 48  1  0  0  0  0
 44 52  2  0  0  0  0
 46 51  1  0  0  0  0
 46 93  1  0  0  0  0
 47 50  1  0  0  0  0
 47 53  2  0  0  0  0
 48 54  2  0  0  0  0
 49 55  2  0  0  0  0
 51 61  1  0  0  0  0
 51 95  1  0  0  0  0
 52 59  1  0  0  0  0
 53 55  1  0  0  0  0
 53 98  1  0  0  0  0
 54 56  1  0  0  0  0
 54 60  1  0  0  0  0
 56 58  1  0  0  0  0
 56 99  1  0  0  0  0
 56100  1  0  0  0  0
 57 58  1  0  0  0  0
 57 62  1  0  0  0  0
 57101  1  0  0  0  0
 58102  1  0  0  0  0
 59 60  2  0  0  0  0
 59103  1  0  0  0  0
 61104  1  0  0  0  0
 61105  1  0  0  0  0
 62 66  2  0  0  0  0
 62 67  1  0  0  0  0
 63 65  1  0  0  0  0
 64 70  1  0  0  0  0
 65 69  1  0  0  0  0
 65 75  2  0  0  0  0
 66 71  1  0  0  0  0
 66111  1  0  0  0  0
 67 72  2  0  0  0  0
 67112  1  0  0  0  0
 68 73  1  0  0  0  0
 69 74  1  0  0  0  0
 69 77  2  0  0  0  0
 70 80  2  0  0  0  0
 70 81  1  0  0  0  0
 71 76  2  0  0  0  0
 72 76  1  0  0  0  0
 72113  1  0  0  0  0
 73 74  1  0  0  0  0
 73 83  2  0  0  0  0
 74 79  2  0  0  0  0
 75 78  1  0  0  0  0
 75114  1  0  0  0  0
 77 82  1  0  0  0  0
 78 82  2  0  0  0  0
 79 84  1  0  0  0  0
 80 87  1  0  0  0  0
 80115  1  0  0  0  0
 81 86  2  0  0  0  0
 81116  1  0  0  0  0
 83 85  1  0  0  0  0
 83117  1  0  0  0  0
 84 85  2  0  0  0  0
 86 88  1  0  0  0  0
 87 88  2  0  0  0  0
M  END
>  <PUBCHEM_COMPOUND_CID>
73814546

>  <PUBCHEM_COMPOUND_CANONICALIZED>
0

>  <PUBCHEM_CACTVS_COMPLEXITY>
2770

>  <PUBCHEM_CACTVS_HBOND_ACCEPTOR>
32

>  <PUBCHEM_CACTVS_HBOND_DONOR>
19

>  <PUBCHEM_CACTVS_ROTATABLE_BOND>
6

>  <PUBCHEM_CACTVS_SUBSKEYS>
AAADcfB8PgAAAAAAAAAAAAAAAAAAASAAAAA0YMGDAAAAAEiRVAAAGgAACAAADRSgmAIwDoAABgCIAqDSCAICCAAkIAAIiAFGiMgdNzaGNRqCeSOl4BUPuYfK7PzOoAADCAAYQABAAAYQADCAAAAAAAAAAA==

>  <PUBCHEM_IUPAC_INCHI>
InChI=1S/C56H40O32/c57-18-2-1-12(3-20(18)59)43-27(66)6-14-19(58)10-21(60)32(44(14)84-43)33-34-35-36-31-17(9-26(65)40(70)46(31)88-56(36,81)55(79,80)49(34)73)53(77)87-48(47(33)86-54(35)78)45-28(83-50(74)13-4-22(61)37(67)23(62)5-13)11-82-51(75)15-7-24(63)38(68)41(71)29(15)30-16(52(76)85-45)8-25(64)39(69)42(30)72/h1-5,7-10,27-28,33,36,43,45,47-48,57-72,79-81H,6,11H2

>  <PUBCHEM_IUPAC_INCHIKEY>
DOMGXWDOTMOBEH-UHFFFAOYSA-N

>  <PUBCHEM_XLOGP3_AA>
0.6

>  <PUBCHEM_EXACT_MASS>
1224.15

>  <PUBCHEM_MOLECULAR_FORMULA>
C56H40O32

>  <PUBCHEM_MOLECULAR_WEIGHT>
1224.904

>  <PUBCHEM_OPENEYE_CAN_SMILES>
C1C(C(OC2=C1C(=CC(=C2C3C4C(OC(=O)C5=CC(=C(C6=C5C7C(=C3C(=O)C(C7(O6)O)(O)O)C(=O)O4)O)O)C8C(COC(=O)C9=CC(=C(C(=C9C1=C(C(=C(C=C1C(=O)O8)O)O)O)O)O)O)OC(=O)C1=CC(=C(C(=C1)O)O)O)O)O)C1=CC(=C(C=C1)O)O)O

>  <PUBCHEM_OPENEYE_ISO_SMILES>
C1C(C(OC2=C1C(=CC(=C2C3C4C(OC(=O)C5=CC(=C(C6=C5C7C(=C3C(=O)C(C7(O6)O)(O)O)C(=O)O4)O)O)C8C(COC(=O)C9=CC(=C(C(=C9C1=C(C(=C(C=C1C(=O)O8)O)O)O)O)O)O)OC(=O)C1=CC(=C(C(=C1)O)O)O)O)O)C1=CC(=C(C=C1)O)O)O

>  <PUBCHEM_CACTVS_TPSA>
551

>  <PUBCHEM_MONOISOTOPIC_WEIGHT>
1224.15

>  <PUBCHEM_TOTAL_CHARGE>
0

>  <PUBCHEM_HEAVY_ATOM_COUNT>
88

>  <PUBCHEM_ATOM_DEF_STEREO_COUNT>
0

>  <PUBCHEM_ATOM_UDEF_STEREO_COUNT>
9

>  <PUBCHEM_BOND_DEF_STEREO_COUNT>
0

>  <PUBCHEM_BOND_UDEF_STEREO_COUNT>
0

>  <PUBCHEM_ISOTOPIC_ATOM_COUNT>
0

>  <PUBCHEM_COMPONENT_COUNT>
1

>  <PUBCHEM_CACTVS_TAUTO_COUNT>
970

>  <PUBCHEM_COORDINATE_TYPE>
1
5
255

>  <PUBCHEM_BONDANNOTATIONS>
51  11  3
58  16  3
38  2  3
34  3  3
33  40  3
35  44  3
41  4  3
40  43  8
40  47  8
43  49  8
44  48  8
44  52  8
47  53  8
48  54  8
49  55  8
52  59  8
53  55  8
54  60  8
57  62  3
59  60  8
62  66  8
62  67  8
65  69  8
65  75  8
66  71  8
67  72  8
69  77  8
70  80  8
70  81  8
71  76  8
72  76  8
73  74  8
73  83  8
74  79  8
75  78  8
77  82  8
78  82  8
79  84  8
46  8  3
80  87  8
81  86  8
83  85  8
84  85  8
86  88  8
87  88  8

$$$$
