73810597
 OpenBabel06101807152D

 42 43  0  0  1  0  0  0  0  0999 V2000
    7.9356    0.1964    0.0000 O   0  0  0  0  0  0  0  0  0  0  0  0
    9.0704    1.1865    0.0000 O   0  0  0  0  0  0  0  0  0  0  0  0
    2.0000   -0.0824    0.0000 O   0  0  0  0  0  0  0  0  0  0  0  0
    5.0000   -0.0824    0.0000 C   0  0  3  0  0  0  0  0  0  0  0  0
    6.5388    0.4176    0.0000 C   0  0  3  0  0  0  0  0  0  0  0  0
    5.5878    0.7266    0.0000 C   0  0  0  0  0  0  0  0  0  0  0  0
    5.5878   -0.8914    0.0000 C   0  0  0  0  0  0  0  0  0  0  0  0
    6.5388   -0.5824    0.0000 C   0  0  0  0  0  0  0  0  0  0  0  0
    4.5000   -0.9484    0.0000 C   0  0  3  0  0  0  0  0  0  0  0  0
    7.3479    1.0054    0.0000 C   0  0  3  0  0  0  0  0  0  0  0  0
    4.5000    0.7836    0.0000 C   0  0  0  0  0  0  0  0  0  0  0  0
    3.5000   -0.9484    0.0000 C   0  0  0  0  0  0  0  0  0  0  0  0
    5.0000   -1.8144    0.0000 C   0  0  0  0  0  0  0  0  0  0  0  0
    3.5000    0.7836    0.0000 C   0  0  0  0  0  0  0  0  0  0  0  0
    8.1569    1.5932    0.0000 C   0  0  0  0  0  0  0  0  0  0  0  0
    3.0000   -0.0824    0.0000 C   0  0  0  0  0  0  0  0  0  0  0  0
    6.7601    1.8144    0.0000 C   0  0  0  0  0  0  0  0  0  0  0  0
    5.0000    1.6497    0.0000 C   0  0  0  0  0  0  0  0  0  0  0  0
    7.0913    0.1362    0.0000 H   0  0  0  0  0  0  0  0  0  0  0  0
    5.8400    1.2930    0.0000 H   0  0  0  0  0  0  0  0  0  0  0  0
    5.0508    1.0366    0.0000 H   0  0  0  0  0  0  0  0  0  0  0  0
    5.0508   -1.2014    0.0000 H   0  0  0  0  0  0  0  0  0  0  0  0
    5.8400   -1.4578    0.0000 H   0  0  0  0  0  0  0  0  0  0  0  0
    6.6678   -1.1888    0.0000 H   0  0  0  0  0  0  0  0  0  0  0  0
    7.1554   -0.5176    0.0000 H   0  0  0  0  0  0  0  0  0  0  0  0
    5.1200   -0.9484    0.0000 H   0  0  0  0  0  0  0  0  0  0  0  0
    2.9174   -1.1604    0.0000 H   0  0  0  0  0  0  0  0  0  0  0  0
    3.6077   -1.5590    0.0000 H   0  0  0  0  0  0  0  0  0  0  0  0
    4.4631   -2.1244    0.0000 H   0  0  0  0  0  0  0  0  0  0  0  0
    5.3100   -2.3514    0.0000 H   0  0  0  0  0  0  0  0  0  0  0  0
    5.5369   -1.5044    0.0000 H   0  0  0  0  0  0  0  0  0  0  0  0
    3.1900    1.3206    0.0000 H   0  0  0  0  0  0  0  0  0  0  0  0
    8.5036    2.1072    0.0000 H   0  0  0  0  0  0  0  0  0  0  0  0
    7.7109    2.0239    0.0000 H   0  0  0  0  0  0  0  0  0  0  0  0
    7.2617    2.1788    0.0000 H   0  0  0  0  0  0  0  0  0  0  0  0
    6.3956    2.3160    0.0000 H   0  0  0  0  0  0  0  0  0  0  0  0
    6.2585    1.4500    0.0000 H   0  0  0  0  0  0  0  0  0  0  0  0
    5.5369    1.3397    0.0000 H   0  0  0  0  0  0  0  0  0  0  0  0
    5.3100    2.1866    0.0000 H   0  0  0  0  0  0  0  0  0  0  0  0
    4.4631    1.9597    0.0000 H   0  0  0  0  0  0  0  0  0  0  0  0
    8.5523    0.2612    0.0000 H   0  0  0  0  0  0  0  0  0  0  0  0
    9.5720    1.5509    0.0000 H   0  0  0  0  0  0  0  0  0  0  0  0
  1 10  1  0  0  0  0
  1 41  1  0  0  0  0
  2 15  1  0  0  0  0
  2 42  1  0  0  0  0
  3 16  2  0  0  0  0
  4  6  1  0  0  0  0
  4  7  1  0  0  0  0
  4  9  1  0  0  0  0
  4 11  1  0  0  0  0
  5  6  1  0  0  0  0
  5  8  1  0  0  0  0
  5 10  1  0  0  0  0
  5 19  1  0  0  0  0
  6 20  1  0  0  0  0
  6 21  1  0  0  0  0
  7  8  1  0  0  0  0
  7 22  1  0  0  0  0
  7 23  1  0  0  0  0
  8 24  1  0  0  0  0
  8 25  1  0  0  0  0
  9 12  1  0  0  0  0
  9 13  1  0  0  0  0
  9 26  1  0  0  0  0
 10 15  1  0  0  0  0
 10 17  1  0  0  0  0
 11 14  2  0  0  0  0
 11 18  1  0  0  0  0
 12 16  1  0  0  0  0
 12 27  1  0  0  0  0
 12 28  1  0  0  0  0
 13 29  1  0  0  0  0
 13 30  1  0  0  0  0
 13 31  1  0  0  0  0
 14 16  1  0  0  0  0
 14 32  1  0  0  0  0
 15 33  1  0  0  0  0
 15 34  1  0  0  0  0
 17 35  1  0  0  0  0
 17 36  1  0  0  0  0
 17 37  1  0  0  0  0
 18 38  1  0  0  0  0
 18 39  1  0  0  0  0
 18 40  1  0  0  0  0
M  END
>  <PUBCHEM_COMPOUND_CID>
73810597

>  <PUBCHEM_COMPOUND_CANONICALIZED>
1

>  <PUBCHEM_CACTVS_COMPLEXITY>
387

>  <PUBCHEM_CACTVS_HBOND_ACCEPTOR>
3

>  <PUBCHEM_CACTVS_HBOND_DONOR>
2

>  <PUBCHEM_CACTVS_ROTATABLE_BOND>
2

>  <PUBCHEM_CACTVS_SUBSKEYS>
AAADceBwMAAAAAAAAAAAAAAAAAAAAYAAAAAgAAAAAAAAAAAAAAAAGgAACAAAD0SggAICAAAAAgCIAqBSAAAAAAAgAAAACAEAAEgBEBIAAQAAQAAEgAAJAQOIyPCPgAAAAAAAAAAAAAAAAAAAAQAAAAAAAA==

>  <PUBCHEM_IUPAC_OPENEYE_NAME>
3-(1,2-dihydroxy-1-methyl-ethyl)-6,10-dimethyl-spiro[4.5]dec-9-en-8-one

>  <PUBCHEM_IUPAC_CAS_NAME>
3-(1,2-dihydroxypropan-2-yl)-6,10-dimethyl-8-spiro[4.5]dec-9-enone

>  <PUBCHEM_IUPAC_NAME>
3-(1,2-dihydroxypropan-2-yl)-6,10-dimethylspiro[4.5]dec-9-en-8-one

>  <PUBCHEM_IUPAC_SYSTEMATIC_NAME>
3-[1,2-bis(oxidanyl)propan-2-yl]-6,10-dimethyl-spiro[4.5]dec-9-en-8-one

>  <PUBCHEM_IUPAC_TRADITIONAL_NAME>
3-(1,2-dihydroxy-1-methyl-ethyl)-6,10-dimethyl-spiro[4.5]dec-9-en-8-one

>  <PUBCHEM_IUPAC_INCHI>
InChI=1S/C15H24O3/c1-10-6-13(17)7-11(2)15(10)5-4-12(8-15)14(3,18)9-16/h6,11-12,16,18H,4-5,7-9H2,1-3H3

>  <PUBCHEM_IUPAC_INCHIKEY>
FWLWCLDHPUPCHO-UHFFFAOYSA-N

>  <PUBCHEM_XLOGP3_AA>
1.2

>  <PUBCHEM_EXACT_MASS>
252.173

>  <PUBCHEM_MOLECULAR_FORMULA>
C15H24O3

>  <PUBCHEM_MOLECULAR_WEIGHT>
252.354

>  <PUBCHEM_OPENEYE_CAN_SMILES>
CC1CC(=O)C=C(C12CCC(C2)C(C)(CO)O)C

>  <PUBCHEM_OPENEYE_ISO_SMILES>
CC1CC(=O)C=C(C12CCC(C2)C(C)(CO)O)C

>  <PUBCHEM_CACTVS_TPSA>
57.5

>  <PUBCHEM_MONOISOTOPIC_WEIGHT>
252.173

>  <PUBCHEM_TOTAL_CHARGE>
0

>  <PUBCHEM_HEAVY_ATOM_COUNT>
18

>  <PUBCHEM_ATOM_DEF_STEREO_COUNT>
0

>  <PUBCHEM_ATOM_UDEF_STEREO_COUNT>
4

>  <PUBCHEM_BOND_DEF_STEREO_COUNT>
0

>  <PUBCHEM_BOND_UDEF_STEREO_COUNT>
0

>  <PUBCHEM_ISOTOPIC_ATOM_COUNT>
0

>  <PUBCHEM_COMPONENT_COUNT>
1

>  <PUBCHEM_CACTVS_TAUTO_COUNT>
5

>  <PUBCHEM_COORDINATE_TYPE>
1
5
255

>  <PUBCHEM_BONDANNOTATIONS>
10  1  3
4  7  3
5  8  3
9  13  3

$$$$
