73822578
 OpenBabel06101807152D

131141  0  0  1  0  0  0  0  0999 V2000
    9.5412   -2.9045    0.0000 O   0  0  0  0  0  0  0  0  0  0  0  0
   11.2732   -0.9045    0.0000 O   0  0  0  0  0  0  0  0  0  0  0  0
    8.2175    0.6046    0.0000 O   0  0  0  0  0  0  0  0  0  0  0  0
    6.7878   -5.7699    0.0000 O   0  0  0  0  0  0  0  0  0  0  0  0
    5.8158   -3.3092    0.0000 O   0  0  0  0  0  0  0  0  0  0  0  0
    7.4501    0.0738    0.0000 O   0  0  0  0  0  0  0  0  0  0  0  0
    7.2583    3.1447    0.0000 O   0  0  0  0  0  0  0  0  0  0  0  0
    5.8752   -2.4291    0.0000 O   0  0  0  0  0  0  0  0  0  0  0  0
   11.8077   -0.1332    0.0000 O   0  0  0  0  0  0  0  0  0  0  0  0
   10.9093    2.8543    0.0000 O   0  0  0  0  0  0  0  0  0  0  0  0
    9.8732   -3.7725    0.0000 O   0  0  0  0  0  0  0  0  0  0  0  0
   10.1108   -6.9616    0.0000 O   0  0  0  0  0  0  0  0  0  0  0  0
   13.0053   -1.9044    0.0000 O   0  0  0  0  0  0  0  0  0  0  0  0
   12.1393   -5.4045    0.0000 O   0  0  0  0  0  0  0  0  0  0  0  0
   13.8713   -4.4045    0.0000 O   0  0  0  0  0  0  0  0  0  0  0  0
    3.5085   -7.2686    0.0000 O   0  0  0  0  0  0  0  0  0  0  0  0
    2.2053   -5.7514    0.0000 O   0  0  0  0  0  0  0  0  0  0  0  0
    4.2821    2.5696    0.0000 O   0  0  0  0  0  0  0  0  0  0  0  0
    8.5894    4.2529    0.0000 O   0  0  0  0  0  0  0  0  0  0  0  0
    3.6054    0.6877    0.0000 O   0  0  0  0  0  0  0  0  0  0  0  0
   13.8713    1.5955    0.0000 O   0  0  0  0  0  0  0  0  0  0  0  0
   15.6034   -1.4045    0.0000 O   0  0  0  0  0  0  0  0  0  0  0  0
   15.6034    0.5955    0.0000 O   0  0  0  0  0  0  0  0  0  0  0  0
    7.0155    7.4968    0.0000 O   0  0  0  0  0  0  0  0  0  0  0  0
    4.3533    5.2804    0.0000 O   0  0  0  0  0  0  0  0  0  0  0  0
    5.0446    7.1571    0.0000 O   0  0  0  0  0  0  0  0  0  0  0  0
    9.5412   -0.9045    0.0000 C   0  0  3  0  0  0  0  0  0  0  0  0
   10.4072   -1.4045    0.0000 C   0  0  3  0  0  0  0  0  0  0  0  0
    8.6752   -1.4045    0.0000 C   0  0  0  0  0  0  0  0  0  0  0  0
    7.4501   -3.8827    0.0000 C   0  0  3  0  0  0  0  0  0  0  0  0
   10.4072   -2.4045    0.0000 C   0  0  3  0  0  0  0  0  0  0  0  0
    8.6752   -2.4045    0.0000 C   0  0  0  0  0  0  0  0  0  0  0  0
    7.7812   -2.9391    0.0000 C   0  0  0  0  0  0  0  0  0  0  0  0
    9.8832    0.0352    0.0000 C   0  0  0  0  0  0  0  0  0  0  0  0
    6.4674   -4.0678    0.0000 C   0  0  3  0  0  0  0  0  0  0  0  0
    9.2404    0.8013    0.0000 C   0  0  0  0  0  0  0  0  0  0  0  0
    6.1363   -5.0114    0.0000 C   0  0  3  0  0  0  0  0  0  0  0  0
    8.1017   -4.6413    0.0000 C   0  0  0  0  0  0  0  0  0  0  0  0
    7.7812   -0.8698    0.0000 C   0  0  0  0  0  0  0  0  0  0  0  0
    9.5824    1.7410    0.0000 C   0  0  0  0  0  0  0  0  0  0  0  0
    6.8752   -2.4253    0.0000 C   0  0  0  0  0  0  0  0  0  0  0  0
   11.2732   -2.9045    0.0000 C   0  0  0  0  0  0  0  0  0  0  0  0
    8.9253    2.5491    0.0000 C   0  0  0  0  0  0  0  0  0  0  0  0
    7.8981    2.3762    0.0000 C   0  0  3  0  0  0  0  0  0  0  0  0
    7.5418    1.3973    0.0000 C   0  0  3  0  0  0  0  0  0  0  0  0
   10.8680    0.2089    0.0000 C   0  0  0  0  0  0  0  0  0  0  0  0
    7.7706   -5.5849    0.0000 C   0  0  0  0  0  0  0  0  0  0  0  0
    6.8752   -1.3837    0.0000 C   0  0  0  0  0  0  0  0  0  0  0  0
   10.5673    1.9146    0.0000 C   0  0  0  0  0  0  0  0  0  0  0  0
    5.1535   -5.1964    0.0000 C   0  0  0  0  0  0  0  0  0  0  0  0
    9.1222   -4.4328    0.0000 C   0  0  0  0  0  0  0  0  0  0  0  0
   11.2100    1.1486    0.0000 C   0  0  0  0  0  0  0  0  0  0  0  0
   11.2732   -3.9045    0.0000 C   0  0  0  0  0  0  0  0  0  0  0  0
   12.1393   -2.4045    0.0000 C   0  0  0  0  0  0  0  0  0  0  0  0
    6.5577    1.2199    0.0000 C   0  0  0  0  0  0  0  0  0  0  0  0
    8.4370   -6.3854    0.0000 C   0  0  0  0  0  0  0  0  0  0  0  0
   12.1393   -1.4045    0.0000 C   0  0  0  0  0  0  0  0  0  0  0  0
    9.8070   -5.2177    0.0000 C   0  0  0  0  0  0  0  0  0  0  0  0
    9.4621   -6.2005    0.0000 C   0  0  0  0  0  0  0  0  0  0  0  0
    4.8224   -6.1400    0.0000 C   0  0  0  0  0  0  0  0  0  0  0  0
    4.5019   -4.4378    0.0000 C   0  0  0  0  0  0  0  0  0  0  0  0
   12.1393   -4.4045    0.0000 C   0  0  0  0  0  0  0  0  0  0  0  0
   13.0053   -2.9045    0.0000 C   0  0  0  0  0  0  0  0  0  0  0  0
    5.9120    1.9835    0.0000 C   0  0  0  0  0  0  0  0  0  0  0  0
    6.2194    0.2790    0.0000 C   0  0  0  0  0  0  0  0  0  0  0  0
   13.0053   -3.9045    0.0000 C   0  0  0  0  0  0  0  0  0  0  0  0
   13.0053   -0.9045    0.0000 C   0  0  0  0  0  0  0  0  0  0  0  0
    3.8397   -6.3250    0.0000 C   0  0  0  0  0  0  0  0  0  0  0  0
    3.5192   -4.6228    0.0000 C   0  0  0  0  0  0  0  0  0  0  0  0
    7.6039    4.0830    0.0000 C   0  0  0  0  0  0  0  0  0  0  0  0
    3.1880   -5.5664    0.0000 C   0  0  0  0  0  0  0  0  0  0  0  0
    4.9279    1.8060    0.0000 C   0  0  0  0  0  0  0  0  0  0  0  0
    5.2352    0.1015    0.0000 C   0  0  0  0  0  0  0  0  0  0  0  0
    4.5895    0.8651    0.0000 C   0  0  0  0  0  0  0  0  0  0  0  0
   13.8713   -1.4045    0.0000 C   0  0  0  0  0  0  0  0  0  0  0  0
   13.0053    0.0955    0.0000 C   0  0  0  0  0  0  0  0  0  0  0  0
    6.9641    4.8516    0.0000 C   0  0  0  0  0  0  0  0  0  0  0  0
   13.8713    0.5955    0.0000 C   0  0  0  0  0  0  0  0  0  0  0  0
   14.7373   -0.9045    0.0000 C   0  0  0  0  0  0  0  0  0  0  0  0
   14.7373    0.0955    0.0000 C   0  0  0  0  0  0  0  0  0  0  0  0
    5.9786    4.6817    0.0000 C   0  0  0  0  0  0  0  0  0  0  0  0
    7.3097    5.7899    0.0000 C   0  0  0  0  0  0  0  0  0  0  0  0
    6.6699    6.5584    0.0000 C   0  0  0  0  0  0  0  0  0  0  0  0
    5.3388    5.4502    0.0000 C   0  0  0  0  0  0  0  0  0  0  0  0
    5.6844    6.3886    0.0000 C   0  0  0  0  0  0  0  0  0  0  0  0
   10.1238   -0.6924    0.0000 H   0  0  0  0  0  0  0  0  0  0  0  0
   10.9442   -1.7145    0.0000 H   0  0  0  0  0  0  0  0  0  0  0  0
    7.0461   -3.4124    0.0000 H   0  0  0  0  0  0  0  0  0  0  0  0
   10.4072   -3.0245    0.0000 H   0  0  0  0  0  0  0  0  0  0  0  0
    5.8581   -4.1825    0.0000 H   0  0  0  0  0  0  0  0  0  0  0  0
    5.9310   -5.5964    0.0000 H   0  0  0  0  0  0  0  0  0  0  0  0
    9.4662    2.8522    0.0000 H   0  0  0  0  0  0  0  0  0  0  0  0
    8.7192    3.1339    0.0000 H   0  0  0  0  0  0  0  0  0  0  0  0
    8.1135    2.9575    0.0000 H   0  0  0  0  0  0  0  0  0  0  0  0
    7.1424    1.8715    0.0000 H   0  0  0  0  0  0  0  0  0  0  0  0
    6.3394   -1.0716    0.0000 H   0  0  0  0  0  0  0  0  0  0  0  0
   11.8206    1.2562    0.0000 H   0  0  0  0  0  0  0  0  0  0  0  0
    5.2065   -3.4239    0.0000 H   0  0  0  0  0  0  0  0  0  0  0  0
   10.7363   -4.2145    0.0000 H   0  0  0  0  0  0  0  0  0  0  0  0
   12.1393   -1.7845    0.0000 H   0  0  0  0  0  0  0  0  0  0  0  0
    8.2250   -6.9680    0.0000 H   0  0  0  0  0  0  0  0  0  0  0  0
    6.8408    0.1885    0.0000 H   0  0  0  0  0  0  0  0  0  0  0  0
   10.4159   -5.1006    0.0000 H   0  0  0  0  0  0  0  0  0  0  0  0
    5.5631   -1.8933    0.0000 H   0  0  0  0  0  0  0  0  0  0  0  0
    5.2264   -6.6103    0.0000 H   0  0  0  0  0  0  0  0  0  0  0  0
    4.7072   -3.8528    0.0000 H   0  0  0  0  0  0  0  0  0  0  0  0
   12.2827    0.2654    0.0000 H   0  0  0  0  0  0  0  0  0  0  0  0
   13.5422   -2.5945    0.0000 H   0  0  0  0  0  0  0  0  0  0  0  0
    6.1218    2.5669    0.0000 H   0  0  0  0  0  0  0  0  0  0  0  0
    6.6197   -0.1944    0.0000 H   0  0  0  0  0  0  0  0  0  0  0  0
   11.5199    2.9620    0.0000 H   0  0  0  0  0  0  0  0  0  0  0  0
   10.4606   -3.9710    0.0000 H   0  0  0  0  0  0  0  0  0  0  0  0
    3.1152   -4.1525    0.0000 H   0  0  0  0  0  0  0  0  0  0  0  0
    5.0254   -0.4819    0.0000 H   0  0  0  0  0  0  0  0  0  0  0  0
    9.9032   -7.5458    0.0000 H   0  0  0  0  0  0  0  0  0  0  0  0
   13.8713   -2.0245    0.0000 H   0  0  0  0  0  0  0  0  0  0  0  0
   12.4684    0.4055    0.0000 H   0  0  0  0  0  0  0  0  0  0  0  0
   12.6762   -5.7145    0.0000 H   0  0  0  0  0  0  0  0  0  0  0  0
   14.4083   -4.0945    0.0000 H   0  0  0  0  0  0  0  0  0  0  0  0
    3.9125   -7.7389    0.0000 H   0  0  0  0  0  0  0  0  0  0  0  0
    2.0000   -6.3365    0.0000 H   0  0  0  0  0  0  0  0  0  0  0  0
    3.6720    2.4596    0.0000 H   0  0  0  0  0  0  0  0  0  0  0  0
    5.7643    4.0999    0.0000 H   0  0  0  0  0  0  0  0  0  0  0  0
    7.9207    5.8952    0.0000 H   0  0  0  0  0  0  0  0  0  0  0  0
    3.3955    0.1042    0.0000 H   0  0  0  0  0  0  0  0  0  0  0  0
   14.4083    1.9055    0.0000 H   0  0  0  0  0  0  0  0  0  0  0  0
   15.6034   -2.0245    0.0000 H   0  0  0  0  0  0  0  0  0  0  0  0
   16.1403    0.2855    0.0000 H   0  0  0  0  0  0  0  0  0  0  0  0
    7.6265    7.6021    0.0000 H   0  0  0  0  0  0  0  0  0  0  0  0
    3.9566    5.7568    0.0000 H   0  0  0  0  0  0  0  0  0  0  0  0
    5.2589    7.7389    0.0000 H   0  0  0  0  0  0  0  0  0  0  0  0
  1 31  1  0  0  0  0
  1 32  1  0  0  0  0
  2 28  1  0  0  0  0
  2 57  1  0  0  0  0
  3 36  1  0  0  0  0
  3 45  1  0  0  0  0
  4 37  1  0  0  0  0
  4 47  1  0  0  0  0
  5 35  1  0  0  0  0
  5 98  1  0  0  0  0
  6 39  1  0  0  0  0
  6102  1  0  0  0  0
  7 44  1  0  0  0  0
  7 70  1  0  0  0  0
  8 41  1  0  0  0  0
  8104  1  0  0  0  0
  9 46  1  0  0  0  0
  9107  1  0  0  0  0
 10 49  1  0  0  0  0
 10111  1  0  0  0  0
 11 51  1  0  0  0  0
 11112  1  0  0  0  0
 12 59  1  0  0  0  0
 12115  1  0  0  0  0
 13 57  2  0  0  0  0
 14 62  1  0  0  0  0
 14118  1  0  0  0  0
 15 66  1  0  0  0  0
 15119  1  0  0  0  0
 16 68  1  0  0  0  0
 16120  1  0  0  0  0
 17 71  1  0  0  0  0
 17121  1  0  0  0  0
 18 72  1  0  0  0  0
 18122  1  0  0  0  0
 19 70  2  0  0  0  0
 20 74  1  0  0  0  0
 20125  1  0  0  0  0
 21 78  1  0  0  0  0
 21126  1  0  0  0  0
 22 79  1  0  0  0  0
 22127  1  0  0  0  0
 23 80  1  0  0  0  0
 23128  1  0  0  0  0
 24 83  1  0  0  0  0
 24129  1  0  0  0  0
 25 84  1  0  0  0  0
 25130  1  0  0  0  0
 26 85  1  0  0  0  0
 26131  1  0  0  0  0
 27 28  1  0  0  0  0
 27 29  1  0  0  0  0
 27 34  1  0  0  0  0
 27 86  1  0  0  0  0
 28 31  1  0  0  0  0
 28 87  1  0  0  0  0
 29 32  1  0  0  0  0
 29 39  2  0  0  0  0
 30 33  1  0  0  0  0
 30 35  1  0  0  0  0
 30 38  1  0  0  0  0
 30 88  1  0  0  0  0
 31 42  1  0  0  0  0
 31 89  1  0  0  0  0
 32 33  2  0  0  0  0
 33 41  1  0  0  0  0
 34 36  1  0  0  0  0
 34 46  2  0  0  0  0
 35 37  1  0  0  0  0
 35 90  1  0  0  0  0
 36 40  2  0  0  0  0
 37 50  1  0  0  0  0
 37 91  1  0  0  0  0
 38 47  1  0  0  0  0
 38 51  2  0  0  0  0
 39 48  1  0  0  0  0
 40 43  1  0  0  0  0
 40 49  1  0  0  0  0
 41 48  2  0  0  0  0
 42 53  2  0  0  0  0
 42 54  1  0  0  0  0
 43 44  1  0  0  0  0
 43 92  1  0  0  0  0
 43 93  1  0  0  0  0
 44 45  1  0  0  0  0
 44 94  1  0  0  0  0
 45 55  1  0  0  0  0
 45 95  1  0  0  0  0
 46 52  1  0  0  0  0
 47 56  2  0  0  0  0
 48 96  1  0  0  0  0
 49 52  2  0  0  0  0
 50 60  2  0  0  0  0
 50 61  1  0  0  0  0
 51 58  1  0  0  0  0
 52 97  1  0  0  0  0
 53 62  1  0  0  0  0
 53 99  1  0  0  0  0
 54 63  2  0  0  0  0
 54100  1  0  0  0  0
 55 64  2  0  0  0  0
 55 65  1  0  0  0  0
 56 59  1  0  0  0  0
 56101  1  0  0  0  0
 57 67  1  0  0  0  0
 58 59  2  0  0  0  0
 58103  1  0  0  0  0
 60 68  1  0  0  0  0
 60105  1  0  0  0  0
 61 69  2  0  0  0  0
 61106  1  0  0  0  0
 62 66  2  0  0  0  0
 63 66  1  0  0  0  0
 63108  1  0  0  0  0
 64 72  1  0  0  0  0
 64109  1  0  0  0  0
 65 73  2  0  0  0  0
 65110  1  0  0  0  0
 67 75  2  0  0  0  0
 67 76  1  0  0  0  0
 68 71  2  0  0  0  0
 69 71  1  0  0  0  0
 69113  1  0  0  0  0
 70 77  1  0  0  0  0
 72 74  2  0  0  0  0
 73 74  1  0  0  0  0
 73114  1  0  0  0  0
 75 79  1  0  0  0  0
 75116  1  0  0  0  0
 76 78  2  0  0  0  0
 76117  1  0  0  0  0
 77 81  2  0  0  0  0
 77 82  1  0  0  0  0
 78 80  1  0  0  0  0
 79 80  2  0  0  0  0
 81 84  1  0  0  0  0
 81123  1  0  0  0  0
 82 83  2  0  0  0  0
 82124  1  0  0  0  0
 83 85  1  0  0  0  0
 84 85  2  0  0  0  0
M  END
>  <PUBCHEM_COMPOUND_CID>
73822578

>  <PUBCHEM_COMPOUND_CANONICALIZED>
0

>  <PUBCHEM_CACTVS_COMPLEXITY>
2250

>  <PUBCHEM_CACTVS_HBOND_ACCEPTOR>
26

>  <PUBCHEM_CACTVS_HBOND_DONOR>
19

>  <PUBCHEM_CACTVS_ROTATABLE_BOND>
11

>  <PUBCHEM_CACTVS_SUBSKEYS>
AAADcfB8PgAAAAAAAAAAAAAAAAAAAAAAAAA0aNGDAAAAAACRVAAAGgAACAAADRSgmAIwDoAABgCIAiDSCAACCAAkIAAIiAEGiMgNNzKGNRqCeSGlwBULuYfK7PzOoAADCAAIQABAAAYQABCAAAAAAAAAAA==

>  <PUBCHEM_IUPAC_INCHI>
InChI=1S/C59H46O26/c60-24-14-33(68)43-41(15-24)81-53(20-2-5-27(62)31(66)8-20)51(78)47(43)44-35(70)18-36(71)46-48(57(85-59(80)23-12-39(74)50(77)40(75)13-23)54(84-56(44)46)21-3-6-28(63)32(67)9-21)45-34(69)17-29(64)25-16-42(82-58(79)22-10-37(72)49(76)38(73)11-22)52(83-55(25)45)19-1-4-26(61)30(65)7-19/h1-15,17-18,42,47-48,51-54,57,60-78H,16H2

>  <PUBCHEM_IUPAC_INCHIKEY>
CSQVLCNLSUIXDX-UHFFFAOYSA-N

>  <PUBCHEM_XLOGP3_AA>
5.6

>  <PUBCHEM_EXACT_MASS>
1170.228

>  <PUBCHEM_MOLECULAR_FORMULA>
C59H46O26

>  <PUBCHEM_MOLECULAR_WEIGHT>
1170.991

>  <PUBCHEM_OPENEYE_CAN_SMILES>
C1C(C(OC2=C1C(=CC(=C2C3C(C(OC4=C(C(=CC(=C34)O)O)C5C(C(OC6=CC(=CC(=C56)O)O)C7=CC(=C(C=C7)O)O)O)C8=CC(=C(C=C8)O)O)OC(=O)C9=CC(=C(C(=C9)O)O)O)O)O)C1=CC(=C(C=C1)O)O)OC(=O)C1=CC(=C(C(=C1)O)O)O

>  <PUBCHEM_OPENEYE_ISO_SMILES>
C1C(C(OC2=C1C(=CC(=C2C3C(C(OC4=C(C(=CC(=C34)O)O)C5C(C(OC6=CC(=CC(=C56)O)O)C7=CC(=C(C=C7)O)O)O)C8=CC(=C(C=C8)O)O)OC(=O)C9=CC(=C(C(=C9)O)O)O)O)O)C1=CC(=C(C=C1)O)O)OC(=O)C1=CC(=C(C(=C1)O)O)O

>  <PUBCHEM_CACTVS_TPSA>
465

>  <PUBCHEM_MONOISOTOPIC_WEIGHT>
1170.228

>  <PUBCHEM_TOTAL_CHARGE>
0

>  <PUBCHEM_HEAVY_ATOM_COUNT>
85

>  <PUBCHEM_ATOM_DEF_STEREO_COUNT>
0

>  <PUBCHEM_ATOM_UDEF_STEREO_COUNT>
8

>  <PUBCHEM_BOND_DEF_STEREO_COUNT>
0

>  <PUBCHEM_BOND_UDEF_STEREO_COUNT>
0

>  <PUBCHEM_ISOTOPIC_ATOM_COUNT>
0

>  <PUBCHEM_COMPONENT_COUNT>
1

>  <PUBCHEM_CACTVS_TAUTO_COUNT>
938

>  <PUBCHEM_COORDINATE_TYPE>
1
5
255

>  <PUBCHEM_BONDANNOTATIONS>
28  2  3
27  34  3
29  32  8
29  39  8
30  33  3
31  42  3
32  33  8
33  41  8
34  36  8
34  46  8
36  40  8
37  50  3
38  47  8
38  51  8
39  48  8
40  49  8
41  48  8
42  53  8
42  54  8
45  55  3
46  52  8
47  56  8
49  52  8
35  5  3
50  60  8
50  61  8
51  58  8
53  62  8
54  63  8
55  64  8
55  65  8
56  59  8
58  59  8
60  68  8
61  69  8
62  66  8
63  66  8
64  72  8
65  73  8
67  75  8
67  76  8
68  71  8
69  71  8
44  7  3
72  74  8
73  74  8
75  79  8
76  78  8
77  81  8
77  82  8
78  80  8
79  80  8
81  84  8
82  83  8
83  85  8
84  85  8

$$$$
