73828339
 OpenBabel06101807152D

 41 42  0  0  1  0  0  0  0  0999 V2000
    8.1282    1.0414    0.0000 O   0  0  0  0  0  0  0  0  0  0  0  0
    4.5981    2.0173    0.0000 O   0  0  0  0  0  0  0  0  0  0  0  0
    5.4641   -0.4827    0.0000 C   0  0  3  0  0  0  0  0  0  0  0  0
    5.4641    0.5173    0.0000 C   0  0  3  0  0  0  0  0  0  0  0  0
    6.3580   -1.0174    0.0000 C   0  0  3  0  0  0  0  0  0  0  0  0
    4.5981   -0.9827    0.0000 C   0  0  0  0  0  0  0  0  0  0  0  0
    6.3580    1.0520    0.0000 C   0  0  0  0  0  0  0  0  0  0  0  0
    7.2641   -0.5035    0.0000 C   0  0  0  0  0  0  0  0  0  0  0  0
    3.7320   -0.4827    0.0000 C   0  0  3  0  0  0  0  0  0  0  0  0
    7.2641    0.5381    0.0000 C   0  0  3  0  0  0  0  0  0  0  0  0
    5.4641   -1.4827    0.0000 C   0  0  0  0  0  0  0  0  0  0  0  0
    4.5981    1.0173    0.0000 C   0  0  0  0  0  0  0  0  0  0  0  0
    3.7320    0.5173    0.0000 C   0  0  0  0  0  0  0  0  0  0  0  0
    6.3465   -2.0173    0.0000 C   0  0  0  0  0  0  0  0  0  0  0  0
    2.8660   -0.9827    0.0000 C   0  0  0  0  0  0  0  0  0  0  0  0
    2.0000   -0.4827    0.0000 C   0  0  0  0  0  0  0  0  0  0  0  0
    2.8660   -1.9827    0.0000 C   0  0  0  0  0  0  0  0  0  0  0  0
    5.4593    1.1373    0.0000 H   0  0  0  0  0  0  0  0  0  0  0  0
    6.8920   -1.3325    0.0000 H   0  0  0  0  0  0  0  0  0  0  0  0
    4.1996   -1.4576    0.0000 H   0  0  0  0  0  0  0  0  0  0  0  0
    4.9966   -1.4576    0.0000 H   0  0  0  0  0  0  0  0  0  0  0  0
    6.7517    1.5310    0.0000 H   0  0  0  0  0  0  0  0  0  0  0  0
    5.9534    1.5218    0.0000 H   0  0  0  0  0  0  0  0  0  0  0  0
    7.4732   -1.0872    0.0000 H   0  0  0  0  0  0  0  0  0  0  0  0
    7.8750   -0.3974    0.0000 H   0  0  0  0  0  0  0  0  0  0  0  0
    3.7320   -1.1027    0.0000 H   0  0  0  0  0  0  0  0  0  0  0  0
    7.2605    1.1581    0.0000 H   0  0  0  0  0  0  0  0  0  0  0  0
    4.8441   -1.4827    0.0000 H   0  0  0  0  0  0  0  0  0  0  0  0
    5.4641   -2.1027    0.0000 H   0  0  0  0  0  0  0  0  0  0  0  0
    6.0841   -1.4827    0.0000 H   0  0  0  0  0  0  0  0  0  0  0  0
    3.5200    1.0999    0.0000 H   0  0  0  0  0  0  0  0  0  0  0  0
    3.1215    0.4096    0.0000 H   0  0  0  0  0  0  0  0  0  0  0  0
    5.7265   -2.0101    0.0000 H   0  0  0  0  0  0  0  0  0  0  0  0
    6.3393   -2.6373    0.0000 H   0  0  0  0  0  0  0  0  0  0  0  0
    6.9664   -2.0245    0.0000 H   0  0  0  0  0  0  0  0  0  0  0  0
    8.6663    0.7335    0.0000 H   0  0  0  0  0  0  0  0  0  0  0  0
    2.3100    0.0542    0.0000 H   0  0  0  0  0  0  0  0  0  0  0  0
    1.4631   -0.1727    0.0000 H   0  0  0  0  0  0  0  0  0  0  0  0
    1.6900   -1.0196    0.0000 H   0  0  0  0  0  0  0  0  0  0  0  0
    2.3291   -2.2927    0.0000 H   0  0  0  0  0  0  0  0  0  0  0  0
    3.4030   -2.2927    0.0000 H   0  0  0  0  0  0  0  0  0  0  0  0
  1 10  1  0  0  0  0
  1 36  1  0  0  0  0
  2 12  2  0  0  0  0
  3  4  1  0  0  0  0
  3  5  1  0  0  0  0
  3  6  1  0  0  0  0
  3 11  1  0  0  0  0
  4  7  1  0  0  0  0
  4 12  1  0  0  0  0
  4 18  1  0  0  0  0
  5  8  1  0  0  0  0
  5 14  1  0  0  0  0
  5 19  1  0  0  0  0
  6  9  1  0  0  0  0
  6 20  1  0  0  0  0
  6 21  1  0  0  0  0
  7 10  1  0  0  0  0
  7 22  1  0  0  0  0
  7 23  1  0  0  0  0
  8 10  1  0  0  0  0
  8 24  1  0  0  0  0
  8 25  1  0  0  0  0
  9 13  1  0  0  0  0
  9 15  1  0  0  0  0
  9 26  1  0  0  0  0
 10 27  1  0  0  0  0
 11 28  1  0  0  0  0
 11 29  1  0  0  0  0
 11 30  1  0  0  0  0
 12 13  1  0  0  0  0
 13 31  1  0  0  0  0
 13 32  1  0  0  0  0
 14 33  1  0  0  0  0
 14 34  1  0  0  0  0
 14 35  1  0  0  0  0
 15 16  1  0  0  0  0
 15 17  2  0  0  0  0
 16 37  1  0  0  0  0
 16 38  1  0  0  0  0
 16 39  1  0  0  0  0
 17 40  1  0  0  0  0
 17 41  1  0  0  0  0
M  END
>  <PUBCHEM_COMPOUND_CID>
73828339

>  <PUBCHEM_COMPOUND_CANONICALIZED>
1

>  <PUBCHEM_CACTVS_COMPLEXITY>
347

>  <PUBCHEM_CACTVS_HBOND_ACCEPTOR>
2

>  <PUBCHEM_CACTVS_HBOND_DONOR>
1

>  <PUBCHEM_CACTVS_ROTATABLE_BOND>
1

>  <PUBCHEM_CACTVS_SUBSKEYS>
AAADceBwMAAAAAAAAAAAAAAAAAAAAAAAAAAwYAAAAAAAAADAAAAAGgAACAAADxSggAICAAAAAgCIAoBSAAAAAAAgAAAAAAEAAAgAEBIAAQAAQAAEgAAAAAGKyPCPgAAAAAAAAADAAAYAACAAAAAAAAAAAA==

>  <PUBCHEM_IUPAC_OPENEYE_NAME>
7-hydroxy-3-isopropenyl-4a,5-dimethyl-decalin-1-one

>  <PUBCHEM_IUPAC_CAS_NAME>
7-hydroxy-4a,5-dimethyl-3-(1-methylethenyl)-2,3,4,5,6,7,8,8a-octahydronaphthalen-1-one

>  <PUBCHEM_IUPAC_NAME>
7-hydroxy-4a,5-dimethyl-3-prop-1-en-2-yl-2,3,4,5,6,7,8,8a-octahydronaphthalen-1-one

>  <PUBCHEM_IUPAC_SYSTEMATIC_NAME>
4a,5-dimethyl-7-oxidanyl-3-prop-1-en-2-yl-2,3,4,5,6,7,8,8a-octahydronaphthalen-1-one

>  <PUBCHEM_IUPAC_TRADITIONAL_NAME>
7-hydroxy-3-isopropenyl-4a,5-dimethyl-decalin-1-one

>  <PUBCHEM_IUPAC_INCHI>
InChI=1S/C15H24O2/c1-9(2)11-6-14(17)13-7-12(16)5-10(3)15(13,4)8-11/h10-13,16H,1,5-8H2,2-4H3

>  <PUBCHEM_IUPAC_INCHIKEY>
MZPGODIAQREELD-UHFFFAOYSA-N

>  <PUBCHEM_XLOGP3_AA>
3.1

>  <PUBCHEM_EXACT_MASS>
236.178

>  <PUBCHEM_MOLECULAR_FORMULA>
C15H24O2

>  <PUBCHEM_MOLECULAR_WEIGHT>
236.355

>  <PUBCHEM_OPENEYE_CAN_SMILES>
CC1CC(CC2C1(CC(CC2=O)C(=C)C)C)O

>  <PUBCHEM_OPENEYE_ISO_SMILES>
CC1CC(CC2C1(CC(CC2=O)C(=C)C)C)O

>  <PUBCHEM_CACTVS_TPSA>
37.3

>  <PUBCHEM_MONOISOTOPIC_WEIGHT>
236.178

>  <PUBCHEM_TOTAL_CHARGE>
0

>  <PUBCHEM_HEAVY_ATOM_COUNT>
17

>  <PUBCHEM_ATOM_DEF_STEREO_COUNT>
0

>  <PUBCHEM_ATOM_UDEF_STEREO_COUNT>
5

>  <PUBCHEM_BOND_DEF_STEREO_COUNT>
0

>  <PUBCHEM_BOND_UDEF_STEREO_COUNT>
0

>  <PUBCHEM_ISOTOPIC_ATOM_COUNT>
0

>  <PUBCHEM_COMPONENT_COUNT>
1

>  <PUBCHEM_CACTVS_TAUTO_COUNT>
3

>  <PUBCHEM_COORDINATE_TYPE>
1
5
255

>  <PUBCHEM_BONDANNOTATIONS>
10  1  3
3  11  3
4  12  3
5  14  3
9  15  3

$$$$
