73981676
 OpenBabel06101807152D

 72 76  0  0  1  0  0  0  0  0999 V2000
    7.8003   -2.4050    0.0000 O   0  0  0  0  0  0  0  0  0  0  0  0
    6.0682   -2.4050    0.0000 O   0  0  0  0  0  0  0  0  0  0  0  0
    6.9343    0.0950    0.0000 O   0  0  0  0  0  0  0  0  0  0  0  0
    9.5323   -1.4050    0.0000 O   0  0  0  0  0  0  0  0  0  0  0  0
    7.8003   -4.4050    0.0000 O   0  0  0  0  0  0  0  0  0  0  0  0
    7.8003    1.5950    0.0000 O   0  0  0  0  0  0  0  0  0  0  0  0
    9.5323    0.5950    0.0000 O   0  0  0  0  0  0  0  0  0  0  0  0
    6.0682   -5.4050    0.0000 O   0  0  0  0  0  0  0  0  0  0  0  0
    4.3362   -4.4050    0.0000 O   0  0  0  0  0  0  0  0  0  0  0  0
    3.4702   -2.9050    0.0000 O   0  0  0  0  0  0  0  0  0  0  0  0
    6.0682    3.5950    0.0000 O   0  0  0  0  0  0  0  0  0  0  0  0
    6.0682    0.5950    0.0000 O   0  0  0  0  0  0  0  0  0  0  0  0
    4.3198    0.5604    0.0000 O   0  0  0  0  0  0  0  0  0  0  0  0
    2.5381    3.6192    0.0000 O   0  0  0  0  0  0  0  0  0  0  0  0
   10.3984    5.0950    0.0000 O   0  0  0  0  0  0  0  0  0  0  0  0
    7.8003   -1.4050    0.0000 C   0  0  3  0  0  0  0  0  0  0  0  0
    8.6663   -0.9050    0.0000 C   0  0  3  0  0  0  0  0  0  0  0  0
    6.9343   -0.9050    0.0000 C   0  0  3  0  0  0  0  0  0  0  0  0
    6.9343   -2.9050    0.0000 C   0  0  3  0  0  0  0  0  0  0  0  0
    6.9343   -3.9050    0.0000 C   0  0  3  0  0  0  0  0  0  0  0  0
    8.6663    0.0950    0.0000 C   0  0  3  0  0  0  0  0  0  0  0  0
    6.0682   -4.4050    0.0000 C   0  0  3  0  0  0  0  0  0  0  0  0
    5.2022   -3.9050    0.0000 C   0  0  3  0  0  0  0  0  0  0  0  0
    5.2022   -2.9050    0.0000 C   0  0  3  0  0  0  0  0  0  0  0  0
    7.8003    0.5950    0.0000 C   0  0  3  0  0  0  0  0  0  0  0  0
    6.0682   -1.4050    0.0000 C   0  0  0  0  0  0  0  0  0  0  0  0
    4.3362   -2.4050    0.0000 C   0  0  0  0  0  0  0  0  0  0  0  0
    6.9343    2.0950    0.0000 C   0  0  0  0  0  0  0  0  0  0  0  0
    6.9343    3.0950    0.0000 C   0  0  0  0  0  0  0  0  0  0  0  0
    6.0682    1.5950    0.0000 C   0  0  0  0  0  0  0  0  0  0  0  0
    5.2022    2.0950    0.0000 C   0  0  0  0  0  0  0  0  0  0  0  0
    7.8003    3.5950    0.0000 C   0  0  0  0  0  0  0  0  0  0  0  0
    5.2022    3.0950    0.0000 C   0  0  0  0  0  0  0  0  0  0  0  0
    4.3083    1.5603    0.0000 C   0  0  0  0  0  0  0  0  0  0  0  0
    4.3083    3.6297    0.0000 C   0  0  0  0  0  0  0  0  0  0  0  0
    7.8003    4.5950    0.0000 C   0  0  0  0  0  0  0  0  0  0  0  0
    8.6663    3.0950    0.0000 C   0  0  0  0  0  0  0  0  0  0  0  0
    3.4022    2.0742    0.0000 C   0  0  0  0  0  0  0  0  0  0  0  0
    3.4022    3.1158    0.0000 C   0  0  0  0  0  0  0  0  0  0  0  0
    8.6663    5.0950    0.0000 C   0  0  0  0  0  0  0  0  0  0  0  0
    9.5323    3.5950    0.0000 C   0  0  0  0  0  0  0  0  0  0  0  0
    9.5323    4.5950    0.0000 C   0  0  0  0  0  0  0  0  0  0  0  0
    8.3372   -1.7150    0.0000 H   0  0  0  0  0  0  0  0  0  0  0  0
    9.2033   -0.5950    0.0000 H   0  0  0  0  0  0  0  0  0  0  0  0
    6.3973   -0.5950    0.0000 H   0  0  0  0  0  0  0  0  0  0  0  0
    6.9343   -2.2850    0.0000 H   0  0  0  0  0  0  0  0  0  0  0  0
    7.4712   -3.5950    0.0000 H   0  0  0  0  0  0  0  0  0  0  0  0
    8.6663    0.7150    0.0000 H   0  0  0  0  0  0  0  0  0  0  0  0
    6.6052   -4.7150    0.0000 H   0  0  0  0  0  0  0  0  0  0  0  0
    4.6653   -3.5950    0.0000 H   0  0  0  0  0  0  0  0  0  0  0  0
    5.2022   -2.2850    0.0000 H   0  0  0  0  0  0  0  0  0  0  0  0
    7.2634    0.9050    0.0000 H   0  0  0  0  0  0  0  0  0  0  0  0
    5.7582   -0.8681    0.0000 H   0  0  0  0  0  0  0  0  0  0  0  0
    5.5313   -1.7150    0.0000 H   0  0  0  0  0  0  0  0  0  0  0  0
    6.3783   -1.9419    0.0000 H   0  0  0  0  0  0  0  0  0  0  0  0
    4.7347   -1.9300    0.0000 H   0  0  0  0  0  0  0  0  0  0  0  0
    3.9377   -1.9300    0.0000 H   0  0  0  0  0  0  0  0  0  0  0  0
   10.0693   -1.0950    0.0000 H   0  0  0  0  0  0  0  0  0  0  0  0
    8.3372   -4.0950    0.0000 H   0  0  0  0  0  0  0  0  0  0  0  0
    9.5323    1.2150    0.0000 H   0  0  0  0  0  0  0  0  0  0  0  0
    6.6052   -5.7150    0.0000 H   0  0  0  0  0  0  0  0  0  0  0  0
    4.3362   -5.0250    0.0000 H   0  0  0  0  0  0  0  0  0  0  0  0
    2.9332   -2.5950    0.0000 H   0  0  0  0  0  0  0  0  0  0  0  0
    4.3154    4.2496    0.0000 H   0  0  0  0  0  0  0  0  0  0  0  0
    7.2634    4.9050    0.0000 H   0  0  0  0  0  0  0  0  0  0  0  0
    8.6663    2.4750    0.0000 H   0  0  0  0  0  0  0  0  0  0  0  0
    2.8665    1.7621    0.0000 H   0  0  0  0  0  0  0  0  0  0  0  0
    8.6663    5.7150    0.0000 H   0  0  0  0  0  0  0  0  0  0  0  0
   10.0693    3.2850    0.0000 H   0  0  0  0  0  0  0  0  0  0  0  0
    3.7865    0.2442    0.0000 H   0  0  0  0  0  0  0  0  0  0  0  0
    2.0000    3.3112    0.0000 H   0  0  0  0  0  0  0  0  0  0  0  0
   10.3984    5.7150    0.0000 H   0  0  0  0  0  0  0  0  0  0  0  0
  1 16  1  0  0  0  0
  1 19  1  0  0  0  0
  2 19  1  0  0  0  0
  2 24  1  0  0  0  0
  3 18  1  0  0  0  0
  3 25  1  0  0  0  0
  4 17  1  0  0  0  0
  4 58  1  0  0  0  0
  5 20  1  0  0  0  0
  5 59  1  0  0  0  0
  6 25  1  0  0  0  0
  6 28  1  0  0  0  0
  7 21  1  0  0  0  0
  7 60  1  0  0  0  0
  8 22  1  0  0  0  0
  8 61  1  0  0  0  0
  9 23  1  0  0  0  0
  9 62  1  0  0  0  0
 10 27  1  0  0  0  0
 10 63  1  0  0  0  0
 11 29  1  0  0  0  0
 11 33  1  0  0  0  0
 12 30  2  0  0  0  0
 13 34  1  0  0  0  0
 13 70  1  0  0  0  0
 14 39  1  0  0  0  0
 14 71  1  0  0  0  0
 15 42  1  0  0  0  0
 15 72  1  0  0  0  0
 16 17  1  0  0  0  0
 16 18  1  0  0  0  0
 16 43  1  0  0  0  0
 17 21  1  0  0  0  0
 17 44  1  0  0  0  0
 18 26  1  0  0  0  0
 18 45  1  0  0  0  0
 19 20  1  0  0  0  0
 19 46  1  0  0  0  0
 20 22  1  0  0  0  0
 20 47  1  0  0  0  0
 21 25  1  0  0  0  0
 21 48  1  0  0  0  0
 22 23  1  0  0  0  0
 22 49  1  0  0  0  0
 23 24  1  0  0  0  0
 23 50  1  0  0  0  0
 24 27  1  0  0  0  0
 24 51  1  0  0  0  0
 25 52  1  0  0  0  0
 26 53  1  0  0  0  0
 26 54  1  0  0  0  0
 26 55  1  0  0  0  0
 27 56  1  0  0  0  0
 27 57  1  0  0  0  0
 28 29  2  0  0  0  0
 28 30  1  0  0  0  0
 29 32  1  0  0  0  0
 30 31  1  0  0  0  0
 31 33  1  0  0  0  0
 31 34  2  0  0  0  0
 32 36  2  0  0  0  0
 32 37  1  0  0  0  0
 33 35  2  0  0  0  0
 34 38  1  0  0  0  0
 35 39  1  0  0  0  0
 35 64  1  0  0  0  0
 36 40  1  0  0  0  0
 36 65  1  0  0  0  0
 37 41  2  0  0  0  0
 37 66  1  0  0  0  0
 38 39  2  0  0  0  0
 38 67  1  0  0  0  0
 40 42  2  0  0  0  0
 40 68  1  0  0  0  0
 41 42  1  0  0  0  0
 41 69  1  0  0  0  0
M  END
>  <PUBCHEM_COMPOUND_CID>
73981676

>  <PUBCHEM_COMPOUND_CANONICALIZED>
1

>  <PUBCHEM_CACTVS_COMPLEXITY>
985

>  <PUBCHEM_CACTVS_HBOND_ACCEPTOR>
15

>  <PUBCHEM_CACTVS_HBOND_DONOR>
9

>  <PUBCHEM_CACTVS_ROTATABLE_BOND>
6

>  <PUBCHEM_CACTVS_SUBSKEYS>
AAADceB4PAAAAAAAAAAAAAAAAAAAAAAAAAA0aIECAAAAAACBQAAAGgAACAAADBSwmAMyDoAABgCIAqBSAAICCAAkIAAIiAFGCMgdNzaGNR6ieWCl4BUPuQfI7KzOIAAACAAIAABAAAAQABAAAAAAAAAAAA==

>  <PUBCHEM_IUPAC_OPENEYE_NAME>
3-[3,4-dihydroxy-6-methyl-5-[3,4,5-trihydroxy-6-(hydroxymethyl)tetrahydropyran-2-yl]oxy-tetrahydropyran-2-yl]oxy-5,7-dihydroxy-2-(4-hydroxyphenyl)chromen-4-one

>  <PUBCHEM_IUPAC_CAS_NAME>
3-[[3,4-dihydroxy-6-methyl-5-[[3,4,5-trihydroxy-6-(hydroxymethyl)-2-oxanyl]oxy]-2-oxanyl]oxy]-5,7-dihydroxy-2-(4-hydroxyphenyl)-1-benzopyran-4-one

>  <PUBCHEM_IUPAC_NAME>
3-[3,4-dihydroxy-6-methyl-5-[3,4,5-trihydroxy-6-(hydroxymethyl)oxan-2-yl]oxyoxan-2-yl]oxy-5,7-dihydroxy-2-(4-hydroxyphenyl)chromen-4-one

>  <PUBCHEM_IUPAC_SYSTEMATIC_NAME>
3-[5-[6-(hydroxymethyl)-3,4,5-tris(oxidanyl)oxan-2-yl]oxy-6-methyl-3,4-bis(oxidanyl)oxan-2-yl]oxy-2-(4-hydroxyphenyl)-5,7-bis(oxidanyl)chromen-4-one

>  <PUBCHEM_IUPAC_TRADITIONAL_NAME>
3-[3,4-dihydroxy-6-methyl-5-(3,4,5-trihydroxy-6-methylol-tetrahydropyran-2-yl)oxy-tetrahydropyran-2-yl]oxy-5,7-dihydroxy-2-(4-hydroxyphenyl)chromone

>  <PUBCHEM_IUPAC_INCHI>
InChI=1S/C27H30O15/c1-9-23(41-27-21(36)19(34)17(32)15(8-28)40-27)20(35)22(37)26(38-9)42-25-18(33)16-13(31)6-12(30)7-14(16)39-24(25)10-2-4-11(29)5-3-10/h2-7,9,15,17,19-23,26-32,34-37H,8H2,1H3

>  <PUBCHEM_IUPAC_INCHIKEY>
ZCSDEGFPWXFQLB-UHFFFAOYSA-N

>  <PUBCHEM_XLOGP3_AA>
-0.4

>  <PUBCHEM_EXACT_MASS>
594.158

>  <PUBCHEM_MOLECULAR_FORMULA>
C27H30O15

>  <PUBCHEM_MOLECULAR_WEIGHT>
594.522

>  <PUBCHEM_OPENEYE_CAN_SMILES>
CC1C(C(C(C(O1)OC2=C(OC3=CC(=CC(=C3C2=O)O)O)C4=CC=C(C=C4)O)O)O)OC5C(C(C(C(O5)CO)O)O)O

>  <PUBCHEM_OPENEYE_ISO_SMILES>
CC1C(C(C(C(O1)OC2=C(OC3=CC(=CC(=C3C2=O)O)O)C4=CC=C(C=C4)O)O)O)OC5C(C(C(C(O5)CO)O)O)O

>  <PUBCHEM_CACTVS_TPSA>
245

>  <PUBCHEM_MONOISOTOPIC_WEIGHT>
594.158

>  <PUBCHEM_TOTAL_CHARGE>
0

>  <PUBCHEM_HEAVY_ATOM_COUNT>
42

>  <PUBCHEM_ATOM_DEF_STEREO_COUNT>
0

>  <PUBCHEM_ATOM_UDEF_STEREO_COUNT>
10

>  <PUBCHEM_BOND_DEF_STEREO_COUNT>
0

>  <PUBCHEM_BOND_UDEF_STEREO_COUNT>
0

>  <PUBCHEM_ISOTOPIC_ATOM_COUNT>
0

>  <PUBCHEM_COMPONENT_COUNT>
1

>  <PUBCHEM_CACTVS_TAUTO_COUNT>
57

>  <PUBCHEM_COORDINATE_TYPE>
1
5
255

>  <PUBCHEM_BONDANNOTATIONS>
16  1  3
19  1  3
11  29  8
11  33  8
18  26  3
24  27  3
28  29  8
28  30  8
30  31  8
31  33  8
31  34  8
32  36  8
32  37  8
33  35  8
34  38  8
35  39  8
36  40  8
37  41  8
38  39  8
17  4  3
40  42  8
41  42  8
20  5  3
25  6  3
21  7  3
22  8  3
23  9  3

$$$$
