74193140
 OpenBabel06101807152D

133141  0  0  1  0  0  0  0  0999 V2000
   12.6203    5.5403    0.0000 O   0  0  0  0  0  0  0  0  0  0  0  0
   10.8478    6.4351    0.0000 O   0  0  0  0  0  0  0  0  0  0  0  0
   11.1972   -2.7038    0.0000 O   0  0  0  0  0  0  0  0  0  0  0  0
    9.4651   -2.7038    0.0000 O   0  0  0  0  0  0  0  0  0  0  0  0
   11.1972   -4.7038    0.0000 O   0  0  0  0  0  0  0  0  0  0  0  0
    9.4651   -5.7038    0.0000 O   0  0  0  0  0  0  0  0  0  0  0  0
    7.7331   -4.7038    0.0000 O   0  0  0  0  0  0  0  0  0  0  0  0
    7.7331   -1.7038    0.0000 O   0  0  0  0  0  0  0  0  0  0  0  0
    6.8671   -3.2038    0.0000 O   0  0  0  0  0  0  0  0  0  0  0  0
    6.0010   -5.7038    0.0000 O   0  0  0  0  0  0  0  0  0  0  0  0
    4.2690   -4.7038    0.0000 O   0  0  0  0  0  0  0  0  0  0  0  0
    4.2690   -2.7038    0.0000 O   0  0  0  0  0  0  0  0  0  0  0  0
    4.2690   -5.7038    0.0000 O   0  0  0  0  0  0  0  0  0  0  0  0
    6.0010   -7.7038    0.0000 O   0  0  0  0  0  0  0  0  0  0  0  0
    4.2690   -8.7038    0.0000 O   0  0  0  0  0  0  0  0  0  0  0  0
    2.5369   -7.7038    0.0000 O   0  0  0  0  0  0  0  0  0  0  0  0
   11.2264    3.4931    0.0000 C   0  0  3  0  0  0  0  0  0  0  0  0
   12.0944    2.9965    0.0000 C   0  0  3  0  0  0  0  0  0  0  0  0
   11.4319    4.4657    0.0000 C   0  0  3  0  0  0  0  0  0  0  0  0
   12.0983    1.9965    0.0000 C   0  0  3  0  0  0  0  0  0  0  0  0
   12.4202    4.5726    0.0000 C   0  0  3  0  0  0  0  0  0  0  0  0
   11.2342    1.4931    0.0000 C   0  0  3  0  0  0  0  0  0  0  0  0
   12.8288    3.6664    0.0000 C   0  0  0  0  0  0  0  0  0  0  0  0
   10.3624    2.9898    0.0000 C   0  0  0  0  0  0  0  0  0  0  0  0
   11.0296    5.3683    0.0000 C   0  0  3  0  0  0  0  0  0  0  0  0
   10.3662    1.9898    0.0000 C   0  0  0  0  0  0  0  0  0  0  0  0
   11.2221    0.4516    0.0000 C   0  0  3  0  0  0  0  0  0  0  0  0
   11.7626    6.0311    0.0000 C   0  0  3  0  0  0  0  0  0  0  0  0
   10.3585    3.9898    0.0000 C   0  0  0  0  0  0  0  0  0  0  0  0
   13.0102    1.4931    0.0000 C   0  0  0  0  0  0  0  0  0  0  0  0
   12.1222   -0.0727    0.0000 C   0  0  0  0  0  0  0  0  0  0  0  0
   10.2722   -0.0727    0.0000 C   0  0  0  0  0  0  0  0  0  0  0  0
   10.0512    5.5750    0.0000 C   0  0  0  0  0  0  0  0  0  0  0  0
   12.5698    6.6213    0.0000 C   0  0  0  0  0  0  0  0  0  0  0  0
   13.0222    0.4516    0.0000 C   0  0  0  0  0  0  0  0  0  0  0  0
   10.3580    0.9549    0.0000 C   0  0  0  0  0  0  0  0  0  0  0  0
   12.1347   -1.1576    0.0000 C   0  0  0  0  0  0  0  0  0  0  0  0
   10.2597   -1.1576    0.0000 C   0  0  0  0  0  0  0  0  0  0  0  0
   11.1972   -1.7038    0.0000 C   0  0  3  0  0  0  0  0  0  0  0  0
   12.4623    7.6155    0.0000 C   0  0  0  0  0  0  0  0  0  0  0  0
   11.5476    8.0195    0.0000 C   0  0  3  0  0  0  0  0  0  0  0  0
   10.7403    7.4293    0.0000 C   0  0  0  0  0  0  0  0  0  0  0  0
   11.4401    9.0138    0.0000 C   0  0  0  0  0  0  0  0  0  0  0  0
   10.3312   -3.2038    0.0000 C   0  0  3  0  0  0  0  0  0  0  0  0
   10.3312   -4.2038    0.0000 C   0  0  3  0  0  0  0  0  0  0  0  0
    9.4651   -4.7038    0.0000 C   0  0  3  0  0  0  0  0  0  0  0  0
    8.5991   -3.2038    0.0000 C   0  0  3  0  0  0  0  0  0  0  0  0
    8.5991   -4.2038    0.0000 C   0  0  3  0  0  0  0  0  0  0  0  0
    7.7331   -2.7038    0.0000 C   0  0  0  0  0  0  0  0  0  0  0  0
    6.8671   -4.2038    0.0000 C   0  0  3  0  0  0  0  0  0  0  0  0
    6.0010   -4.7038    0.0000 C   0  0  3  0  0  0  0  0  0  0  0  0
    5.1350   -4.2038    0.0000 C   0  0  3  0  0  0  0  0  0  0  0  0
    6.0010   -2.7038    0.0000 C   0  0  3  0  0  0  0  0  0  0  0  0
    5.1350   -3.2038    0.0000 C   0  0  3  0  0  0  0  0  0  0  0  0
    5.1350   -6.2038    0.0000 C   0  0  3  0  0  0  0  0  0  0  0  0
    6.0010   -1.7038    0.0000 C   0  0  0  0  0  0  0  0  0  0  0  0
    5.1350   -7.2038    0.0000 C   0  0  3  0  0  0  0  0  0  0  0  0
    4.2690   -7.7038    0.0000 C   0  0  3  0  0  0  0  0  0  0  0  0
    3.4030   -6.2038    0.0000 C   0  0  3  0  0  0  0  0  0  0  0  0
    3.4030   -7.2038    0.0000 C   0  0  3  0  0  0  0  0  0  0  0  0
    2.5369   -5.7038    0.0000 C   0  0  0  0  0  0  0  0  0  0  0  0
   12.6621    2.7472    0.0000 H   0  0  0  0  0  0  0  0  0  0  0  0
   10.8154    4.4004    0.0000 H   0  0  0  0  0  0  0  0  0  0  0  0
   12.6316    2.3127    0.0000 H   0  0  0  0  0  0  0  0  0  0  0  0
   13.0365    4.6406    0.0000 H   0  0  0  0  0  0  0  0  0  0  0  0
   11.7699    1.1811    0.0000 H   0  0  0  0  0  0  0  0  0  0  0  0
   13.1962    3.1670    0.0000 H   0  0  0  0  0  0  0  0  0  0  0  0
   13.3641    3.9792    0.0000 H   0  0  0  0  0  0  0  0  0  0  0  0
   10.1481    3.5716    0.0000 H   0  0  0  0  0  0  0  0  0  0  0  0
    9.7522    2.8798    0.0000 H   0  0  0  0  0  0  0  0  0  0  0  0
   10.6398    4.8862    0.0000 H   0  0  0  0  0  0  0  0  0  0  0  0
    9.7552    2.0951    0.0000 H   0  0  0  0  0  0  0  0  0  0  0  0
   10.1564    1.4064    0.0000 H   0  0  0  0  0  0  0  0  0  0  0  0
   10.6664    4.5279    0.0000 H   0  0  0  0  0  0  0  0  0  0  0  0
    9.8204    4.2977    0.0000 H   0  0  0  0  0  0  0  0  0  0  0  0
   10.0506    3.4517    0.0000 H   0  0  0  0  0  0  0  0  0  0  0  0
   13.6222    1.3941    0.0000 H   0  0  0  0  0  0  0  0  0  0  0  0
   13.2125    2.0792    0.0000 H   0  0  0  0  0  0  0  0  0  0  0  0
   10.0699    0.5134    0.0000 H   0  0  0  0  0  0  0  0  0  0  0  0
    9.6602   -0.1717    0.0000 H   0  0  0  0  0  0  0  0  0  0  0  0
   10.1793    6.1816    0.0000 H   0  0  0  0  0  0  0  0  0  0  0  0
    9.4446    5.7032    0.0000 H   0  0  0  0  0  0  0  0  0  0  0  0
    9.9231    4.9684    0.0000 H   0  0  0  0  0  0  0  0  0  0  0  0
   12.8433    6.0649    0.0000 H   0  0  0  0  0  0  0  0  0  0  0  0
   13.1653    6.7940    0.0000 H   0  0  0  0  0  0  0  0  0  0  0  0
   13.5616    0.1457    0.0000 H   0  0  0  0  0  0  0  0  0  0  0  0
   10.6701    1.4906    0.0000 H   0  0  0  0  0  0  0  0  0  0  0  0
    9.8223    1.2670    0.0000 H   0  0  0  0  0  0  0  0  0  0  0  0
   10.0460    0.4192    0.0000 H   0  0  0  0  0  0  0  0  0  0  0  0
   12.3505   -1.7389    0.0000 H   0  0  0  0  0  0  0  0  0  0  0  0
   12.7443   -1.0445    0.0000 H   0  0  0  0  0  0  0  0  0  0  0  0
    9.6501   -1.0445    0.0000 H   0  0  0  0  0  0  0  0  0  0  0  0
   10.0439   -1.7389    0.0000 H   0  0  0  0  0  0  0  0  0  0  0  0
   11.7347   -2.0127    0.0000 H   0  0  0  0  0  0  0  0  0  0  0  0
   13.0810    7.5741    0.0000 H   0  0  0  0  0  0  0  0  0  0  0  0
   12.6105    8.2176    0.0000 H   0  0  0  0  0  0  0  0  0  0  0  0
   12.0481    8.3855    0.0000 H   0  0  0  0  0  0  0  0  0  0  0  0
   10.4669    7.9858    0.0000 H   0  0  0  0  0  0  0  0  0  0  0  0
   10.1449    7.2567    0.0000 H   0  0  0  0  0  0  0  0  0  0  0  0
   12.0565    9.0804    0.0000 H   0  0  0  0  0  0  0  0  0  0  0  0
   11.3734    9.6302    0.0000 H   0  0  0  0  0  0  0  0  0  0  0  0
   10.8237    8.9471    0.0000 H   0  0  0  0  0  0  0  0  0  0  0  0
   10.3312   -2.5838    0.0000 H   0  0  0  0  0  0  0  0  0  0  0  0
   10.3312   -4.8238    0.0000 H   0  0  0  0  0  0  0  0  0  0  0  0
    8.9282   -5.0138    0.0000 H   0  0  0  0  0  0  0  0  0  0  0  0
    8.5991   -2.5838    0.0000 H   0  0  0  0  0  0  0  0  0  0  0  0
    8.0622   -3.8938    0.0000 H   0  0  0  0  0  0  0  0  0  0  0  0
   11.7341   -4.3938    0.0000 H   0  0  0  0  0  0  0  0  0  0  0  0
    7.1225   -2.5961    0.0000 H   0  0  0  0  0  0  0  0  0  0  0  0
    7.5210   -3.2864    0.0000 H   0  0  0  0  0  0  0  0  0  0  0  0
   10.0021   -6.0138    0.0000 H   0  0  0  0  0  0  0  0  0  0  0  0
    6.8671   -4.8238    0.0000 H   0  0  0  0  0  0  0  0  0  0  0  0
    7.1962   -1.3938    0.0000 H   0  0  0  0  0  0  0  0  0  0  0  0
    5.4641   -5.0138    0.0000 H   0  0  0  0  0  0  0  0  0  0  0  0
    4.5981   -3.8938    0.0000 H   0  0  0  0  0  0  0  0  0  0  0  0
    6.5380   -2.3938    0.0000 H   0  0  0  0  0  0  0  0  0  0  0  0
    5.1350   -2.5838    0.0000 H   0  0  0  0  0  0  0  0  0  0  0  0
    5.6720   -6.5138    0.0000 H   0  0  0  0  0  0  0  0  0  0  0  0
    6.6210   -1.7038    0.0000 H   0  0  0  0  0  0  0  0  0  0  0  0
    6.0010   -1.0838    0.0000 H   0  0  0  0  0  0  0  0  0  0  0  0
    5.3810   -1.7038    0.0000 H   0  0  0  0  0  0  0  0  0  0  0  0
    3.7320   -4.3938    0.0000 H   0  0  0  0  0  0  0  0  0  0  0  0
    5.1350   -7.8238    0.0000 H   0  0  0  0  0  0  0  0  0  0  0  0
    4.2690   -2.0838    0.0000 H   0  0  0  0  0  0  0  0  0  0  0  0
    3.7320   -8.0138    0.0000 H   0  0  0  0  0  0  0  0  0  0  0  0
    3.4030   -5.5838    0.0000 H   0  0  0  0  0  0  0  0  0  0  0  0
    2.8660   -6.8938    0.0000 H   0  0  0  0  0  0  0  0  0  0  0  0
    6.0010   -8.3238    0.0000 H   0  0  0  0  0  0  0  0  0  0  0  0
    2.8469   -5.1668    0.0000 H   0  0  0  0  0  0  0  0  0  0  0  0
    2.0000   -5.3938    0.0000 H   0  0  0  0  0  0  0  0  0  0  0  0
    2.2269   -6.2407    0.0000 H   0  0  0  0  0  0  0  0  0  0  0  0
    3.7320   -9.0138    0.0000 H   0  0  0  0  0  0  0  0  0  0  0  0
    2.0000   -7.3938    0.0000 H   0  0  0  0  0  0  0  0  0  0  0  0
  1 21  1  0  0  0  0
  1 28  1  0  0  0  0
  2 28  1  0  0  0  0
  2 42  1  0  0  0  0
  3 39  1  0  0  0  0
  3 44  1  0  0  0  0
  4 44  1  0  0  0  0
  4 47  1  0  0  0  0
  5 45  1  0  0  0  0
  5108  1  0  0  0  0
  6 46  1  0  0  0  0
  6111  1  0  0  0  0
  7 48  1  0  0  0  0
  7 50  1  0  0  0  0
  8 49  1  0  0  0  0
  8113  1  0  0  0  0
  9 50  1  0  0  0  0
  9 53  1  0  0  0  0
 10 51  1  0  0  0  0
 10 55  1  0  0  0  0
 11 52  1  0  0  0  0
 11122  1  0  0  0  0
 12 54  1  0  0  0  0
 12124  1  0  0  0  0
 13 55  1  0  0  0  0
 13 59  1  0  0  0  0
 14 57  1  0  0  0  0
 14128  1  0  0  0  0
 15 58  1  0  0  0  0
 15132  1  0  0  0  0
 16 60  1  0  0  0  0
 16133  1  0  0  0  0
 17 18  1  0  0  0  0
 17 19  1  0  0  0  0
 17 24  1  0  0  0  0
 17 29  1  0  0  0  0
 18 20  1  0  0  0  0
 18 23  1  0  0  0  0
 18 62  1  0  0  0  0
 19 21  1  0  0  0  0
 19 25  1  0  0  0  0
 19 63  1  0  0  0  0
 20 22  1  0  0  0  0
 20 30  1  0  0  0  0
 20 64  1  0  0  0  0
 21 23  1  0  0  0  0
 21 65  1  0  0  0  0
 22 26  1  0  0  0  0
 22 27  1  0  0  0  0
 22 66  1  0  0  0  0
 23 67  1  0  0  0  0
 23 68  1  0  0  0  0
 24 26  1  0  0  0  0
 24 69  1  0  0  0  0
 24 70  1  0  0  0  0
 25 28  1  0  0  0  0
 25 33  1  0  0  0  0
 25 71  1  0  0  0  0
 26 72  1  0  0  0  0
 26 73  1  0  0  0  0
 27 31  1  0  0  0  0
 27 32  1  0  0  0  0
 27 36  1  0  0  0  0
 28 34  1  0  0  0  0
 29 74  1  0  0  0  0
 29 75  1  0  0  0  0
 29 76  1  0  0  0  0
 30 35  1  0  0  0  0
 30 77  1  0  0  0  0
 30 78  1  0  0  0  0
 31 35  2  0  0  0  0
 31 37  1  0  0  0  0
 32 38  1  0  0  0  0
 32 79  1  0  0  0  0
 32 80  1  0  0  0  0
 33 81  1  0  0  0  0
 33 82  1  0  0  0  0
 33 83  1  0  0  0  0
 34 40  1  0  0  0  0
 34 84  1  0  0  0  0
 34 85  1  0  0  0  0
 35 86  1  0  0  0  0
 36 87  1  0  0  0  0
 36 88  1  0  0  0  0
 36 89  1  0  0  0  0
 37 39  1  0  0  0  0
 37 90  1  0  0  0  0
 37 91  1  0  0  0  0
 38 39  1  0  0  0  0
 38 92  1  0  0  0  0
 38 93  1  0  0  0  0
 39 94  1  0  0  0  0
 40 41  1  0  0  0  0
 40 95  1  0  0  0  0
 40 96  1  0  0  0  0
 41 42  1  0  0  0  0
 41 43  1  0  0  0  0
 41 97  1  0  0  0  0
 42 98  1  0  0  0  0
 42 99  1  0  0  0  0
 43100  1  0  0  0  0
 43101  1  0  0  0  0
 43102  1  0  0  0  0
 44 45  1  0  0  0  0
 44103  1  0  0  0  0
 45 46  1  0  0  0  0
 45104  1  0  0  0  0
 46 48  1  0  0  0  0
 46105  1  0  0  0  0
 47 48  1  0  0  0  0
 47 49  1  0  0  0  0
 47106  1  0  0  0  0
 48107  1  0  0  0  0
 49109  1  0  0  0  0
 49110  1  0  0  0  0
 50 51  1  0  0  0  0
 50112  1  0  0  0  0
 51 52  1  0  0  0  0
 51114  1  0  0  0  0
 52 54  1  0  0  0  0
 52115  1  0  0  0  0
 53 54  1  0  0  0  0
 53 56  1  0  0  0  0
 53116  1  0  0  0  0
 54117  1  0  0  0  0
 55 57  1  0  0  0  0
 55118  1  0  0  0  0
 56119  1  0  0  0  0
 56120  1  0  0  0  0
 56121  1  0  0  0  0
 57 58  1  0  0  0  0
 57123  1  0  0  0  0
 58 60  1  0  0  0  0
 58125  1  0  0  0  0
 59 60  1  0  0  0  0
 59 61  1  0  0  0  0
 59126  1  0  0  0  0
 60127  1  0  0  0  0
 61129  1  0  0  0  0
 61130  1  0  0  0  0
 61131  1  0  0  0  0
M  END
>  <PUBCHEM_COMPOUND_CID>
74193140

>  <PUBCHEM_COMPOUND_CANONICALIZED>
1

>  <PUBCHEM_CACTVS_COMPLEXITY>
1600

>  <PUBCHEM_CACTVS_HBOND_ACCEPTOR>
16

>  <PUBCHEM_CACTVS_HBOND_DONOR>
8

>  <PUBCHEM_CACTVS_ROTATABLE_BOND>
7

>  <PUBCHEM_CACTVS_SUBSKEYS>
AAADcfB8PgAAAAAAAAAAAAAAAAAAAaIAAAA0aJEiAAASAGCAAAAAGgAACAAADxSwgAMCCAAABgCAAiBCAAAAAAAgAAAACAAAAAgREAIAAQAiQAAFwAAPAAPA4PwPgAAAAAAAAADAAAQAACAAAYAADAAAAA==

>  <PUBCHEM_IUPAC_INCHI>
InChI=1S/C45H72O16/c1-19-9-14-45(54-18-19)20(2)30-28(61-45)16-27-25-8-7-23-15-24(10-12-43(23,5)26(25)11-13-44(27,30)6)57-41-37(53)35(51)38(29(17-46)58-41)59-42-39(34(50)32(48)22(4)56-42)60-40-36(52)33(49)31(47)21(3)55-40/h7,19-22,24-42,46-53H,8-18H2,1-6H3

>  <PUBCHEM_IUPAC_INCHIKEY>
SLKDWTBGYHJQNM-UHFFFAOYSA-N

>  <PUBCHEM_XLOGP3_AA>
1.3

>  <PUBCHEM_EXACT_MASS>
868.482

>  <PUBCHEM_MOLECULAR_FORMULA>
C45H72O16

>  <PUBCHEM_MOLECULAR_WEIGHT>
869.055

>  <PUBCHEM_OPENEYE_CAN_SMILES>
CC1CCC2(C(C3C(O2)CC4C3(CCC5C4CC=C6C5(CCC(C6)OC7C(C(C(C(O7)CO)OC8C(C(C(C(O8)C)O)O)OC9C(C(C(C(O9)C)O)O)O)O)O)C)C)C)OC1

>  <PUBCHEM_OPENEYE_ISO_SMILES>
CC1CCC2(C(C3C(O2)CC4C3(CCC5C4CC=C6C5(CCC(C6)OC7C(C(C(C(O7)CO)OC8C(C(C(C(O8)C)O)O)OC9C(C(C(C(O9)C)O)O)O)O)O)C)C)C)OC1

>  <PUBCHEM_CACTVS_TPSA>
236

>  <PUBCHEM_MONOISOTOPIC_WEIGHT>
868.482

>  <PUBCHEM_TOTAL_CHARGE>
0

>  <PUBCHEM_HEAVY_ATOM_COUNT>
61

>  <PUBCHEM_ATOM_DEF_STEREO_COUNT>
0

>  <PUBCHEM_ATOM_UDEF_STEREO_COUNT>
26

>  <PUBCHEM_BOND_DEF_STEREO_COUNT>
0

>  <PUBCHEM_BOND_UDEF_STEREO_COUNT>
0

>  <PUBCHEM_ISOTOPIC_ATOM_COUNT>
0

>  <PUBCHEM_COMPONENT_COUNT>
1

>  <PUBCHEM_CACTVS_TAUTO_COUNT>
1

>  <PUBCHEM_COORDINATE_TYPE>
1
5
255

>  <PUBCHEM_BONDANNOTATIONS>
51  10  3
55  10  3
52  11  3
54  12  3
57  14  3
58  15  3
60  16  3
17  29  3
18  23  3
19  25  3
20  30  3
21  23  3
22  26  3
25  33  3
27  36  3
28  34  3
39  3  3
44  3  3
41  43  3
47  49  3
45  5  3
53  56  3
59  61  3
46  6  3
48  7  3
50  7  3

$$$$
