74376401
 OpenBabel06101807152D

159167  0  0  1  0  0  0  0  0999 V2000
    6.8671   -3.6772    0.0000 O   0  0  0  0  0  0  0  0  0  0  0  0
    8.6424    5.6772    0.0000 O   0  0  0  0  0  0  0  0  0  0  0  0
    9.3112   -2.9856    0.0000 O   0  0  0  0  0  0  0  0  0  0  0  0
    5.1350   -3.6772    0.0000 O   0  0  0  0  0  0  0  0  0  0  0  0
    9.5085    7.1772    0.0000 O   0  0  0  0  0  0  0  0  0  0  0  0
    6.8671   -5.6772    0.0000 O   0  0  0  0  0  0  0  0  0  0  0  0
    5.1350   -6.6772    0.0000 O   0  0  0  0  0  0  0  0  0  0  0  0
    3.4030   -5.6772    0.0000 O   0  0  0  0  0  0  0  0  0  0  0  0
    6.9104    8.6773    0.0000 O   0  0  0  0  0  0  0  0  0  0  0  0
    6.0010   -7.1772    0.0000 O   0  0  0  0  0  0  0  0  0  0  0  0
    8.6424    9.6773    0.0000 O   0  0  0  0  0  0  0  0  0  0  0  0
    2.5369   -4.1772    0.0000 O   0  0  0  0  0  0  0  0  0  0  0  0
    3.4030   -2.6772    0.0000 O   0  0  0  0  0  0  0  0  0  0  0  0
    8.5991   -6.6772    0.0000 O   0  0  0  0  0  0  0  0  0  0  0  0
    8.5991   -8.6773    0.0000 O   0  0  0  0  0  0  0  0  0  0  0  0
    6.8671   -9.6773    0.0000 O   0  0  0  0  0  0  0  0  0  0  0  0
    9.4651   -8.1773    0.0000 O   0  0  0  0  0  0  0  0  0  0  0  0
    5.1350   -9.6773    0.0000 O   0  0  0  0  0  0  0  0  0  0  0  0
   10.3312   -5.6772    0.0000 O   0  0  0  0  0  0  0  0  0  0  0  0
   12.0632   -6.6772    0.0000 O   0  0  0  0  0  0  0  0  0  0  0  0
   12.0632   -8.6773    0.0000 O   0  0  0  0  0  0  0  0  0  0  0  0
    7.7681    1.0230    0.0000 C   0  0  3  0  0  0  0  0  0  0  0  0
    6.9040    0.5196    0.0000 C   0  0  3  0  0  0  0  0  0  0  0  0
    6.8920   -0.5219    0.0000 C   0  0  3  0  0  0  0  0  0  0  0  0
    7.7643    2.0230    0.0000 C   0  0  3  0  0  0  0  0  0  0  0  0
    7.7920   -1.0462    0.0000 C   0  0  3  0  0  0  0  0  0  0  0  0
    8.6801    0.5196    0.0000 C   0  0  0  0  0  0  0  0  0  0  0  0
    6.8963    2.5196    0.0000 C   0  0  0  0  0  0  0  0  0  0  0  0
    7.8046   -2.1311    0.0000 C   0  0  3  0  0  0  0  0  0  0  0  0
    8.6921   -0.5219    0.0000 C   0  0  0  0  0  0  0  0  0  0  0  0
    6.8762    3.5611    0.0000 C   0  0  3  0  0  0  0  0  0  0  0  0
    7.7722    4.0923    0.0000 C   0  0  3  0  0  0  0  0  0  0  0  0
    8.6723    2.5333    0.0000 C   0  0  0  0  0  0  0  0  0  0  0  0
    6.0361    1.0163    0.0000 C   0  0  0  0  0  0  0  0  0  0  0  0
    5.9421   -1.0462    0.0000 C   0  0  0  0  0  0  0  0  0  0  0  0
    8.6763    3.5749    0.0000 C   0  0  0  0  0  0  0  0  0  0  0  0
    8.7522    1.2004    0.0000 C   0  0  0  0  0  0  0  0  0  0  0  0
    6.8671   -2.6772    0.0000 C   0  0  3  0  0  0  0  0  0  0  0  0
    6.0322    2.0163    0.0000 C   0  0  0  0  0  0  0  0  0  0  0  0
    6.0279   -0.0186    0.0000 C   0  0  0  0  0  0  0  0  0  0  0  0
    5.9295   -2.1311    0.0000 C   0  0  0  0  0  0  0  0  0  0  0  0
    8.7497    1.8531    0.0000 C   0  0  0  0  0  0  0  0  0  0  0  0
    5.9223    4.0780    0.0000 C   0  0  0  0  0  0  0  0  0  0  0  0
    7.7764    5.1772    0.0000 C   0  0  3  0  0  0  0  0  0  0  0  0
    5.9014    5.1628    0.0000 C   0  0  0  0  0  0  0  0  0  0  0  0
    6.8347    5.7161    0.0000 C   0  0  0  0  0  0  0  0  0  0  0  0
    8.8046   -2.1234    0.0000 C   0  0  0  0  0  0  0  0  0  0  0  0
    8.3113   -2.9933    0.0000 C   0  0  0  0  0  0  0  0  0  0  0  0
    8.6324    4.6022    0.0000 C   0  0  0  0  0  0  0  0  0  0  0  0
    5.3881    6.0210    0.0000 C   0  0  0  0  0  0  0  0  0  0  0  0
    4.9015    5.1474    0.0000 C   0  0  0  0  0  0  0  0  0  0  0  0
    6.0010   -4.1772    0.0000 C   0  0  3  0  0  0  0  0  0  0  0  0
    8.6424    6.6772    0.0000 C   0  0  3  0  0  0  0  0  0  0  0  0
    6.0010   -5.1772    0.0000 C   0  0  3  0  0  0  0  0  0  0  0  0
    7.7764    7.1772    0.0000 C   0  0  0  0  0  0  0  0  0  0  0  0
    5.1350   -5.6772    0.0000 C   0  0  3  0  0  0  0  0  0  0  0  0
    4.2690   -4.1772    0.0000 C   0  0  3  0  0  0  0  0  0  0  0  0
    4.2690   -5.1772    0.0000 C   0  0  3  0  0  0  0  0  0  0  0  0
    7.7764    8.1773    0.0000 C   0  0  0  0  0  0  0  0  0  0  0  0
    9.5085    8.1773    0.0000 C   0  0  0  0  0  0  0  0  0  0  0  0
    6.8671   -6.6772    0.0000 C   0  0  3  0  0  0  0  0  0  0  0  0
    8.6424    8.6773    0.0000 C   0  0  0  0  0  0  0  0  0  0  0  0
    3.4030   -3.6772    0.0000 C   0  0  0  0  0  0  0  0  0  0  0  0
    7.7331   -7.1772    0.0000 C   0  0  3  0  0  0  0  0  0  0  0  0
   10.3745    8.6773    0.0000 C   0  0  0  0  0  0  0  0  0  0  0  0
    7.7331   -8.1773    0.0000 C   0  0  3  0  0  0  0  0  0  0  0  0
    6.0010   -8.1773    0.0000 C   0  0  3  0  0  0  0  0  0  0  0  0
    6.8671   -8.6773    0.0000 C   0  0  3  0  0  0  0  0  0  0  0  0
    5.1350   -8.6773    0.0000 C   0  0  0  0  0  0  0  0  0  0  0  0
    9.4651   -7.1772    0.0000 C   0  0  3  0  0  0  0  0  0  0  0  0
   10.3312   -6.6772    0.0000 C   0  0  3  0  0  0  0  0  0  0  0  0
   11.1972   -7.1772    0.0000 C   0  0  3  0  0  0  0  0  0  0  0  0
   10.3312   -8.6773    0.0000 C   0  0  3  0  0  0  0  0  0  0  0  0
   11.1972   -8.1773    0.0000 C   0  0  3  0  0  0  0  0  0  0  0  0
   10.3312   -9.6773    0.0000 C   0  0  0  0  0  0  0  0  0  0  0  0
    7.4398    0.2076    0.0000 H   0  0  0  0  0  0  0  0  0  0  0  0
    8.3314   -1.3521    0.0000 H   0  0  0  0  0  0  0  0  0  0  0  0
    9.2921    0.4206    0.0000 H   0  0  0  0  0  0  0  0  0  0  0  0
    8.8824    1.1057    0.0000 H   0  0  0  0  0  0  0  0  0  0  0  0
    8.9079   -1.1032    0.0000 H   0  0  0  0  0  0  0  0  0  0  0  0
    9.3017   -0.4088    0.0000 H   0  0  0  0  0  0  0  0  0  0  0  0
    6.3466    3.2387    0.0000 H   0  0  0  0  0  0  0  0  0  0  0  0
    8.8791    1.9488    0.0000 H   0  0  0  0  0  0  0  0  0  0  0  0
    9.2836    2.6370    0.0000 H   0  0  0  0  0  0  0  0  0  0  0  0
    5.4251    1.1216    0.0000 H   0  0  0  0  0  0  0  0  0  0  0  0
    5.8263    0.4329    0.0000 H   0  0  0  0  0  0  0  0  0  0  0  0
    5.7398   -0.4601    0.0000 H   0  0  0  0  0  0  0  0  0  0  0  0
    5.3300   -1.1452    0.0000 H   0  0  0  0  0  0  0  0  0  0  0  0
    9.2868    3.4665    0.0000 H   0  0  0  0  0  0  0  0  0  0  0  0
    8.8876    4.1578    0.0000 H   0  0  0  0  0  0  0  0  0  0  0  0
    8.8623    0.5902    0.0000 H   0  0  0  0  0  0  0  0  0  0  0  0
    9.3624    1.3104    0.0000 H   0  0  0  0  0  0  0  0  0  0  0  0
    8.6422    1.8106    0.0000 H   0  0  0  0  0  0  0  0  0  0  0  0
    7.4046   -2.9862    0.0000 H   0  0  0  0  0  0  0  0  0  0  0  0
    5.4941    2.3242    0.0000 H   0  0  0  0  0  0  0  0  0  0  0  0
    6.3400    0.5171    0.0000 H   0  0  0  0  0  0  0  0  0  0  0  0
    5.4922    0.2935    0.0000 H   0  0  0  0  0  0  0  0  0  0  0  0
    5.7158   -0.5543    0.0000 H   0  0  0  0  0  0  0  0  0  0  0  0
    5.3199   -2.0180    0.0000 H   0  0  0  0  0  0  0  0  0  0  0  0
    5.7137   -2.7124    0.0000 H   0  0  0  0  0  0  0  0  0  0  0  0
    8.6444    1.2421    0.0000 H   0  0  0  0  0  0  0  0  0  0  0  0
    9.3607    1.7478    0.0000 H   0  0  0  0  0  0  0  0  0  0  0  0
    8.8550    2.4641    0.0000 H   0  0  0  0  0  0  0  0  0  0  0  0
    5.3095    4.1723    0.0000 H   0  0  0  0  0  0  0  0  0  0  0  0
    5.7246    3.4904    0.0000 H   0  0  0  0  0  0  0  0  0  0  0  0
    7.7752    5.7972    0.0000 H   0  0  0  0  0  0  0  0  0  0  0  0
    7.2302    6.1936    0.0000 H   0  0  0  0  0  0  0  0  0  0  0  0
    6.4319    6.1875    0.0000 H   0  0  0  0  0  0  0  0  0  0  0  0
    9.3855   -1.9069    0.0000 H   0  0  0  0  0  0  0  0  0  0  0  0
    8.6922   -1.5137    0.0000 H   0  0  0  0  0  0  0  0  0  0  0  0
    7.7767   -3.3074    0.0000 H   0  0  0  0  0  0  0  0  0  0  0  0
    8.6254   -3.5278    0.0000 H   0  0  0  0  0  0  0  0  0  0  0  0
    8.8458   -2.6792    0.0000 H   0  0  0  0  0  0  0  0  0  0  0  0
    8.9486    4.0689    0.0000 H   0  0  0  0  0  0  0  0  0  0  0  0
    9.1657    4.9184    0.0000 H   0  0  0  0  0  0  0  0  0  0  0  0
    8.3162    5.1356    0.0000 H   0  0  0  0  0  0  0  0  0  0  0  0
    4.8920    5.7673    0.0000 H   0  0  0  0  0  0  0  0  0  0  0  0
    4.2816    5.1378    0.0000 H   0  0  0  0  0  0  0  0  0  0  0  0
    4.9111    4.5275    0.0000 H   0  0  0  0  0  0  0  0  0  0  0  0
    5.9202    6.3392    0.0000 H   0  0  0  0  0  0  0  0  0  0  0  0
    5.0699    6.5531    0.0000 H   0  0  0  0  0  0  0  0  0  0  0  0
    4.8560    5.7028    0.0000 H   0  0  0  0  0  0  0  0  0  0  0  0
    6.0010   -3.5572    0.0000 H   0  0  0  0  0  0  0  0  0  0  0  0
    9.9312   -2.9808    0.0000 H   0  0  0  0  0  0  0  0  0  0  0  0
    8.1055    6.3672    0.0000 H   0  0  0  0  0  0  0  0  0  0  0  0
    6.0010   -5.7972    0.0000 H   0  0  0  0  0  0  0  0  0  0  0  0
    7.1658    7.2849    0.0000 H   0  0  0  0  0  0  0  0  0  0  0  0
    7.5644    6.5946    0.0000 H   0  0  0  0  0  0  0  0  0  0  0  0
    4.5981   -5.9873    0.0000 H   0  0  0  0  0  0  0  0  0  0  0  0
    4.2690   -3.5572    0.0000 H   0  0  0  0  0  0  0  0  0  0  0  0
    3.7320   -4.8672    0.0000 H   0  0  0  0  0  0  0  0  0  0  0  0
    7.4040   -6.3672    0.0000 H   0  0  0  0  0  0  0  0  0  0  0  0
    4.5981   -6.9872    0.0000 H   0  0  0  0  0  0  0  0  0  0  0  0
    3.4030   -6.2972    0.0000 H   0  0  0  0  0  0  0  0  0  0  0  0
    8.2700   -7.4872    0.0000 H   0  0  0  0  0  0  0  0  0  0  0  0
   10.6845    8.1403    0.0000 H   0  0  0  0  0  0  0  0  0  0  0  0
   10.9114    8.9872    0.0000 H   0  0  0  0  0  0  0  0  0  0  0  0
   10.0645    9.2142    0.0000 H   0  0  0  0  0  0  0  0  0  0  0  0
    7.7331   -8.7972    0.0000 H   0  0  0  0  0  0  0  0  0  0  0  0
    9.1794    9.9872    0.0000 H   0  0  0  0  0  0  0  0  0  0  0  0
    5.4641   -7.8672    0.0000 H   0  0  0  0  0  0  0  0  0  0  0  0
    2.0000   -3.8672    0.0000 H   0  0  0  0  0  0  0  0  0  0  0  0
    6.3301   -8.9872    0.0000 H   0  0  0  0  0  0  0  0  0  0  0  0
    4.9230   -8.0946    0.0000 H   0  0  0  0  0  0  0  0  0  0  0  0
    4.5244   -8.7849    0.0000 H   0  0  0  0  0  0  0  0  0  0  0  0
    9.4651   -6.5572    0.0000 H   0  0  0  0  0  0  0  0  0  0  0  0
    8.5991   -9.2972    0.0000 H   0  0  0  0  0  0  0  0  0  0  0  0
    7.4040   -9.9872    0.0000 H   0  0  0  0  0  0  0  0  0  0  0  0
   10.8681   -6.3672    0.0000 H   0  0  0  0  0  0  0  0  0  0  0  0
    4.5981   -9.9872    0.0000 H   0  0  0  0  0  0  0  0  0  0  0  0
   11.7341   -7.4872    0.0000 H   0  0  0  0  0  0  0  0  0  0  0  0
    9.7942   -8.9872    0.0000 H   0  0  0  0  0  0  0  0  0  0  0  0
   11.1972   -8.7972    0.0000 H   0  0  0  0  0  0  0  0  0  0  0  0
   10.8681   -5.3672    0.0000 H   0  0  0  0  0  0  0  0  0  0  0  0
    9.7112   -9.6773    0.0000 H   0  0  0  0  0  0  0  0  0  0  0  0
   10.3312  -10.2973    0.0000 H   0  0  0  0  0  0  0  0  0  0  0  0
   10.9512   -9.6773    0.0000 H   0  0  0  0  0  0  0  0  0  0  0  0
   12.6002   -6.9872    0.0000 H   0  0  0  0  0  0  0  0  0  0  0  0
   12.0632   -9.2972    0.0000 H   0  0  0  0  0  0  0  0  0  0  0  0
  1 38  1  0  0  0  0
  1 52  1  0  0  0  0
  2 44  1  0  0  0  0
  2 53  1  0  0  0  0
  3 47  1  0  0  0  0
  3124  1  0  0  0  0
  4 52  1  0  0  0  0
  4 57  1  0  0  0  0
  5 53  1  0  0  0  0
  5 60  1  0  0  0  0
  6 54  1  0  0  0  0
  6 61  1  0  0  0  0
  7 56  1  0  0  0  0
  7133  1  0  0  0  0
  8 58  1  0  0  0  0
  8134  1  0  0  0  0
  9 59  2  0  0  0  0
 10 61  1  0  0  0  0
 10 67  1  0  0  0  0
 11 62  1  0  0  0  0
 11140  1  0  0  0  0
 12 63  1  0  0  0  0
 12142  1  0  0  0  0
 13 63  2  0  0  0  0
 14 64  1  0  0  0  0
 14 70  1  0  0  0  0
 15 66  1  0  0  0  0
 15147  1  0  0  0  0
 16 68  1  0  0  0  0
 16148  1  0  0  0  0
 17 70  1  0  0  0  0
 17 73  1  0  0  0  0
 18 69  1  0  0  0  0
 18150  1  0  0  0  0
 19 71  1  0  0  0  0
 19154  1  0  0  0  0
 20 72  1  0  0  0  0
 20158  1  0  0  0  0
 21 74  1  0  0  0  0
 21159  1  0  0  0  0
 22 23  1  0  0  0  0
 22 25  1  0  0  0  0
 22 27  1  0  0  0  0
 22 37  1  0  0  0  0
 23 24  1  0  0  0  0
 23 34  1  0  0  0  0
 23 76  1  0  0  0  0
 24 26  1  0  0  0  0
 24 35  1  0  0  0  0
 24 40  1  0  0  0  0
 25 28  1  0  0  0  0
 25 33  1  0  0  0  0
 25 42  1  0  0  0  0
 26 29  1  0  0  0  0
 26 30  1  0  0  0  0
 26 77  1  0  0  0  0
 27 30  1  0  0  0  0
 27 78  1  0  0  0  0
 27 79  1  0  0  0  0
 28 31  1  0  0  0  0
 28 39  2  0  0  0  0
 29 38  1  0  0  0  0
 29 47  1  0  0  0  0
 29 48  1  0  0  0  0
 30 80  1  0  0  0  0
 30 81  1  0  0  0  0
 31 32  1  0  0  0  0
 31 43  1  0  0  0  0
 31 82  1  0  0  0  0
 32 36  1  0  0  0  0
 32 44  1  0  0  0  0
 32 49  1  0  0  0  0
 33 36  1  0  0  0  0
 33 83  1  0  0  0  0
 33 84  1  0  0  0  0
 34 39  1  0  0  0  0
 34 85  1  0  0  0  0
 34 86  1  0  0  0  0
 35 41  1  0  0  0  0
 35 87  1  0  0  0  0
 35 88  1  0  0  0  0
 36 89  1  0  0  0  0
 36 90  1  0  0  0  0
 37 91  1  0  0  0  0
 37 92  1  0  0  0  0
 37 93  1  0  0  0  0
 38 41  1  0  0  0  0
 38 94  1  0  0  0  0
 39 95  1  0  0  0  0
 40 96  1  0  0  0  0
 40 97  1  0  0  0  0
 40 98  1  0  0  0  0
 41 99  1  0  0  0  0
 41100  1  0  0  0  0
 42101  1  0  0  0  0
 42102  1  0  0  0  0
 42103  1  0  0  0  0
 43 45  1  0  0  0  0
 43104  1  0  0  0  0
 43105  1  0  0  0  0
 44 46  1  0  0  0  0
 44106  1  0  0  0  0
 45 46  1  0  0  0  0
 45 50  1  0  0  0  0
 45 51  1  0  0  0  0
 46107  1  0  0  0  0
 46108  1  0  0  0  0
 47109  1  0  0  0  0
 47110  1  0  0  0  0
 48111  1  0  0  0  0
 48112  1  0  0  0  0
 48113  1  0  0  0  0
 49114  1  0  0  0  0
 49115  1  0  0  0  0
 49116  1  0  0  0  0
 50120  1  0  0  0  0
 50121  1  0  0  0  0
 50122  1  0  0  0  0
 51117  1  0  0  0  0
 51118  1  0  0  0  0
 51119  1  0  0  0  0
 52 54  1  0  0  0  0
 52123  1  0  0  0  0
 53 55  1  0  0  0  0
 53125  1  0  0  0  0
 54 56  1  0  0  0  0
 54126  1  0  0  0  0
 55 59  1  0  0  0  0
 55127  1  0  0  0  0
 55128  1  0  0  0  0
 56 58  1  0  0  0  0
 56129  1  0  0  0  0
 57 58  1  0  0  0  0
 57 63  1  0  0  0  0
 57130  1  0  0  0  0
 58131  1  0  0  0  0
 59 62  1  0  0  0  0
 60 62  2  0  0  0  0
 60 65  1  0  0  0  0
 61 64  1  0  0  0  0
 61132  1  0  0  0  0
 64 66  1  0  0  0  0
 64135  1  0  0  0  0
 65136  1  0  0  0  0
 65137  1  0  0  0  0
 65138  1  0  0  0  0
 66 68  1  0  0  0  0
 66139  1  0  0  0  0
 67 68  1  0  0  0  0
 67 69  1  0  0  0  0
 67141  1  0  0  0  0
 68143  1  0  0  0  0
 69144  1  0  0  0  0
 69145  1  0  0  0  0
 70 71  1  0  0  0  0
 70146  1  0  0  0  0
 71 72  1  0  0  0  0
 71149  1  0  0  0  0
 72 74  1  0  0  0  0
 72151  1  0  0  0  0
 73 74  1  0  0  0  0
 73 75  1  0  0  0  0
 73152  1  0  0  0  0
 74153  1  0  0  0  0
 75155  1  0  0  0  0
 75156  1  0  0  0  0
 75157  1  0  0  0  0
M  END
>  <PUBCHEM_COMPOUND_CID>
74376401

>  <PUBCHEM_COMPOUND_CANONICALIZED>
1

>  <PUBCHEM_CACTVS_COMPLEXITY>
2210

>  <PUBCHEM_CACTVS_HBOND_ACCEPTOR>
21

>  <PUBCHEM_CACTVS_HBOND_DONOR>
11

>  <PUBCHEM_CACTVS_ROTATABLE_BOND>
11

>  <PUBCHEM_CACTVS_SUBSKEYS>
AAADcfB8PgAAAAAAAAAAAAAAAAAAAAAAAAA0aNGCAAAAAADAAAAAGgAACAAADxSwgAMCCAAABgCIAqDSCAIACAAgIAAACAFAAEgREBYAAQQiQAAFoAAPAQPK7PxPgAAAAAAAAADAAAYAADAAAAAAAAAAAA==

>  <PUBCHEM_IUPAC_OPENEYE_NAME>
5-[4,5-dihydroxy-6-(hydroxymethyl)-3-(3,4,5-trihydroxy-6-methyl-tetrahydropyran-2-yl)oxy-tetrahydropyran-2-yl]oxy-3,4-dihydroxy-6-[[4-(hydroxymethyl)-9-[(5-hydroxy-6-methyl-4-oxo-2,3-dihydropyran-2-yl)oxy]-4,6a,6b,8a,11,11,14b-heptamethyl-1,2,3,4a,5,6,7,8,9,10,12,12a,14,14a-tetradecahydropicen-3-yl]oxy]tetrahydropyran-2-carboxylic acid

>  <PUBCHEM_IUPAC_CAS_NAME>
5-[[4,5-dihydroxy-6-(hydroxymethyl)-3-[(3,4,5-trihydroxy-6-methyl-2-oxanyl)oxy]-2-oxanyl]oxy]-3,4-dihydroxy-6-[[4-(hydroxymethyl)-9-[(5-hydroxy-6-methyl-4-oxo-2,3-dihydropyran-2-yl)oxy]-4,6a,6b,8a,11,11,14b-heptamethyl-1,2,3,4a,5,6,7,8,9,10,12,12a,14,14a-tetradecahydropicen-3-yl]oxy]-2-oxanecarboxylic acid

>  <PUBCHEM_IUPAC_NAME>
5-[4,5-dihydroxy-6-(hydroxymethyl)-3-(3,4,5-trihydroxy-6-methyloxan-2-yl)oxyoxan-2-yl]oxy-3,4-dihydroxy-6-[[4-(hydroxymethyl)-9-[(5-hydroxy-6-methyl-4-oxo-2,3-dihydropyran-2-yl)oxy]-4,6a,6b,8a,11,11,14b-heptamethyl-1,2,3,4a,5,6,7,8,9,10,12,12a,14,14a-tetradecahydropicen-3-yl]oxy]oxane-2-carboxylic acid

>  <PUBCHEM_IUPAC_SYSTEMATIC_NAME>
6-[[4-(hydroxymethyl)-4,6a,6b,8a,11,11,14b-heptamethyl-9-[(6-methyl-5-oxidanyl-4-oxidanylidene-2,3-dihydropyran-2-yl)oxy]-1,2,3,4a,5,6,7,8,9,10,12,12a,14,14a-tetradecahydropicen-3-yl]oxy]-5-[6-(hydroxymethyl)-3-[6-methyl-3,4,5-tris(oxidanyl)oxan-2-yl]oxy-4,5-bis(oxidanyl)oxan-2-yl]oxy-3,4-bis(oxidanyl)oxane-2-carboxylic acid

>  <PUBCHEM_IUPAC_TRADITIONAL_NAME>
5-[4,5-dihydroxy-6-methylol-3-(3,4,5-trihydroxy-6-methyl-tetrahydropyran-2-yl)oxy-tetrahydropyran-2-yl]oxy-3,4-dihydroxy-6-[[9-[(5-hydroxy-4-keto-6-methyl-2,3-dihydropyran-2-yl)oxy]-4,6a,6b,8a,11,11,14b-heptamethyl-4-methylol-1,2,3,4a,5,6,7,8,9,10,12,12a,14,14a-tetradecahydropicen-3-yl]oxy]tetrahydropyran-2-carboxylic acid

>  <PUBCHEM_IUPAC_INCHI>
InChI=1S/C54H84O21/c1-23-34(58)27(57)18-33(68-23)71-32-20-49(3,4)19-26-25-10-11-30-51(6)14-13-31(52(7,22-56)29(51)12-15-54(30,9)53(25,8)17-16-50(26,32)5)72-48-44(40(64)39(63)42(73-48)45(66)67)75-47-43(38(62)36(60)28(21-55)70-47)74-46-41(65)37(61)35(59)24(2)69-46/h10,24,26,28-33,35-44,46-48,55-56,58-65H,11-22H2,1-9H3,(H,66,67)

>  <PUBCHEM_IUPAC_INCHIKEY>
ONAAMCDHQSWPDU-UHFFFAOYSA-N

>  <PUBCHEM_XLOGP3_AA>
3

>  <PUBCHEM_EXACT_MASS>
1068.551

>  <PUBCHEM_MOLECULAR_FORMULA>
C54H84O21

>  <PUBCHEM_MOLECULAR_WEIGHT>
1069.245

>  <PUBCHEM_OPENEYE_CAN_SMILES>
CC1C(C(C(C(O1)OC2C(C(C(OC2OC3C(C(C(OC3OC4CCC5(C(C4(C)CO)CCC6(C5CC=C7C6(CCC8(C7CC(CC8OC9CC(=O)C(=C(O9)C)O)(C)C)C)C)C)C)C(=O)O)O)O)CO)O)O)O)O)O

>  <PUBCHEM_OPENEYE_ISO_SMILES>
CC1C(C(C(C(O1)OC2C(C(C(OC2OC3C(C(C(OC3OC4CCC5(C(C4(C)CO)CCC6(C5CC=C7C6(CCC8(C7CC(CC8OC9CC(=O)C(=C(O9)C)O)(C)C)C)C)C)C)C(=O)O)O)O)CO)O)O)O)O)O

>  <PUBCHEM_CACTVS_TPSA>
331

>  <PUBCHEM_MONOISOTOPIC_WEIGHT>
1068.551

>  <PUBCHEM_TOTAL_CHARGE>
0

>  <PUBCHEM_HEAVY_ATOM_COUNT>
75

>  <PUBCHEM_ATOM_DEF_STEREO_COUNT>
0

>  <PUBCHEM_ATOM_UDEF_STEREO_COUNT>
26

>  <PUBCHEM_BOND_DEF_STEREO_COUNT>
0

>  <PUBCHEM_BOND_UDEF_STEREO_COUNT>
0

>  <PUBCHEM_ISOTOPIC_ATOM_COUNT>
0

>  <PUBCHEM_COMPONENT_COUNT>
1

>  <PUBCHEM_CACTVS_TAUTO_COUNT>
8

>  <PUBCHEM_COORDINATE_TYPE>
1
5
255

>  <PUBCHEM_BONDANNOTATIONS>
38  1  3
52  1  3
64  14  3
70  14  3
66  15  3
68  16  3
71  19  3
44  2  3
53  2  3
72  20  3
74  21  3
22  37  3
23  34  3
24  40  3
25  42  3
26  30  3
29  48  3
31  43  3
32  49  3
57  63  3
54  6  3
61  6  3
67  69  3
56  7  3
73  75  3
58  8  3

$$$$
