74413288
 OpenBabel06101807152D

 53 56  0  0  1  0  0  0  0  0999 V2000
    2.3275   -0.1021    0.0000 O   0  0  0  0  0  0  0  0  0  0  0  0
    8.0438   -0.4158    0.0000 O   0  0  0  0  0  0  0  0  0  0  0  0
    6.8446   -1.6657    0.0000 O   0  0  0  0  0  0  0  0  0  0  0  0
    3.9615   -2.5532    0.0000 O   0  0  0  0  0  0  0  0  0  0  0  0
    5.6933   -2.5835    0.0000 O   0  0  0  0  0  0  0  0  0  0  0  0
    6.4978    0.9824    0.0000 C   0  0  3  0  0  0  0  0  0  0  0  0
    5.5968    1.4163    0.0000 C   0  0  3  0  0  0  0  0  0  0  0  0
    4.9117    0.6960    0.0000 C   0  0  3  0  0  0  0  0  0  0  0  0
    5.3836   -0.1790    0.0000 C   0  0  3  0  0  0  0  0  0  0  0  0
    6.3618   -0.0023    0.0000 C   0  0  3  0  0  0  0  0  0  0  0  0
    6.3910    2.1592    0.0000 C   0  0  0  0  0  0  0  0  0  0  0  0
    4.8536   -1.0686    0.0000 C   0  0  3  0  0  0  0  0  0  0  0  0
    7.3988    1.4163    0.0000 C   0  0  0  0  0  0  0  0  0  0  0  0
    6.9978    3.1731    0.0000 C   0  0  3  0  0  0  0  0  0  0  0  0
    5.3743    2.3912    0.0000 C   0  0  0  0  0  0  0  0  0  0  0  0
    3.8773    0.7421    0.0000 C   0  0  0  0  0  0  0  0  0  0  0  0
    5.9978    3.1731    0.0000 C   0  0  0  0  0  0  0  0  0  0  0  0
    7.6213    2.3912    0.0000 C   0  0  0  0  0  0  0  0  0  0  0  0
    4.4371    1.5762    0.0000 C   0  0  0  0  0  0  0  0  0  0  0  0
    3.8184   -1.0465    0.0000 C   0  0  0  0  0  0  0  0  0  0  0  0
    3.3270   -0.1350    0.0000 C   0  0  3  0  0  0  0  0  0  0  0  0
    7.0834   -0.6946    0.0000 C   0  0  0  0  0  0  0  0  0  0  0  0
    5.7108   -1.5836    0.0000 C   0  0  0  0  0  0  0  0  0  0  0  0
    4.8362   -2.0684    0.0000 C   0  0  0  0  0  0  0  0  0  0  0  0
    8.5962    2.6138    0.0000 C   0  0  0  0  0  0  0  0  0  0  0  0
    4.9990    1.5805    0.0000 H   0  0  0  0  0  0  0  0  0  0  0  0
    5.7368   -0.6885    0.0000 H   0  0  0  0  0  0  0  0  0  0  0  0
    6.1827   -0.5959    0.0000 H   0  0  0  0  0  0  0  0  0  0  0  0
    5.9832    2.6262    0.0000 H   0  0  0  0  0  0  0  0  0  0  0  0
    5.8209    1.9154    0.0000 H   0  0  0  0  0  0  0  0  0  0  0  0
    7.5367    0.8119    0.0000 H   0  0  0  0  0  0  0  0  0  0  0  0
    8.0188    1.4163    0.0000 H   0  0  0  0  0  0  0  0  0  0  0  0
    7.2668    3.7317    0.0000 H   0  0  0  0  0  0  0  0  0  0  0  0
    4.9878    2.8760    0.0000 H   0  0  0  0  0  0  0  0  0  0  0  0
    4.8157    2.1222    0.0000 H   0  0  0  0  0  0  0  0  0  0  0  0
    4.0104    1.3476    0.0000 H   0  0  0  0  0  0  0  0  0  0  0  0
    3.3035    0.9769    0.0000 H   0  0  0  0  0  0  0  0  0  0  0  0
    6.1358    3.7775    0.0000 H   0  0  0  0  0  0  0  0  0  0  0  0
    5.4392    3.4421    0.0000 H   0  0  0  0  0  0  0  0  0  0  0  0
    4.9828    1.8705    0.0000 H   0  0  0  0  0  0  0  0  0  0  0  0
    4.1428    2.1219    0.0000 H   0  0  0  0  0  0  0  0  0  0  0  0
    3.8914    1.2819    0.0000 H   0  0  0  0  0  0  0  0  0  0  0  0
    3.2304   -1.2430    0.0000 H   0  0  0  0  0  0  0  0  0  0  0  0
    3.9114   -1.6594    0.0000 H   0  0  0  0  0  0  0  0  0  0  0  0
    3.0005   -0.6621    0.0000 H   0  0  0  0  0  0  0  0  0  0  0  0
    5.3914   -2.1150    0.0000 H   0  0  0  0  0  0  0  0  0  0  0  0
    6.2422   -1.9030    0.0000 H   0  0  0  0  0  0  0  0  0  0  0  0
    6.0301   -1.0522    0.0000 H   0  0  0  0  0  0  0  0  0  0  0  0
    9.0179    2.1593    0.0000 H   0  0  0  0  0  0  0  0  0  0  0  0
    8.7790    3.2062    0.0000 H   0  0  0  0  0  0  0  0  0  0  0  0
    2.0000   -0.6286    0.0000 H   0  0  0  0  0  0  0  0  0  0  0  0
    8.4912   -0.8451    0.0000 H   0  0  0  0  0  0  0  0  0  0  0  0
    3.9507   -3.1731    0.0000 H   0  0  0  0  0  0  0  0  0  0  0  0
  1 21  1  0  0  0  0
  1 51  1  0  0  0  0
  2 22  1  0  0  0  0
  2 52  1  0  0  0  0
  3 22  2  0  0  0  0
  4 24  1  0  0  0  0
  4 53  1  0  0  0  0
  5 24  2  0  0  0  0
  6  7  1  0  0  0  0
  6 10  1  0  0  0  0
  6 11  1  0  0  0  0
  6 13  1  0  0  0  0
  7  8  1  0  0  0  0
  7 15  1  0  0  0  0
  7 26  1  0  0  0  0
  8  9  1  0  0  0  0
  8 16  1  0  0  0  0
  8 19  1  0  0  0  0
  9 10  1  0  0  0  0
  9 12  1  0  0  0  0
  9 27  1  0  0  0  0
 10 22  1  0  0  0  0
 10 28  1  0  0  0  0
 11 14  1  0  0  0  0
 11 29  1  0  0  0  0
 11 30  1  0  0  0  0
 12 20  1  0  0  0  0
 12 23  1  0  0  0  0
 12 24  1  0  0  0  0
 13 18  1  0  0  0  0
 13 31  1  0  0  0  0
 13 32  1  0  0  0  0
 14 17  1  0  0  0  0
 14 18  1  0  0  0  0
 14 33  1  0  0  0  0
 15 17  1  0  0  0  0
 15 34  1  0  0  0  0
 15 35  1  0  0  0  0
 16 21  1  0  0  0  0
 16 36  1  0  0  0  0
 16 37  1  0  0  0  0
 17 38  1  0  0  0  0
 17 39  1  0  0  0  0
 18 25  2  0  0  0  0
 19 40  1  0  0  0  0
 19 41  1  0  0  0  0
 19 42  1  0  0  0  0
 20 21  1  0  0  0  0
 20 43  1  0  0  0  0
 20 44  1  0  0  0  0
 21 45  1  0  0  0  0
 23 46  1  0  0  0  0
 23 47  1  0  0  0  0
 23 48  1  0  0  0  0
 25 49  1  0  0  0  0
 25 50  1  0  0  0  0
M  END
>  <PUBCHEM_COMPOUND_CID>
74413288

>  <PUBCHEM_COMPOUND_CANONICALIZED>
1

>  <PUBCHEM_CACTVS_COMPLEXITY>
671

>  <PUBCHEM_CACTVS_HBOND_ACCEPTOR>
5

>  <PUBCHEM_CACTVS_HBOND_DONOR>
3

>  <PUBCHEM_CACTVS_ROTATABLE_BOND>
2

>  <PUBCHEM_CACTVS_SUBSKEYS>
AAADceB4OAAAAAAAAAAAAAAAAAAAAYMAAAAwYAAABgAAAGDAAAAAGgAACAAADxSggAICCAAAAgCIAgDSCAAAAAAgAAAAAAEAAAgAEBIAAQAAQAAEgAAAAAHK7vCPgAAAAAAAAADAAAYAACAAAQAACAAAAA==

>  <PUBCHEM_IUPAC_INCHI>
InChI=1S/C20H28O5/c1-10-6-20-7-11(10)4-5-13(20)18(2)8-12(21)9-19(3,17(24)25)15(18)14(20)16(22)23/h11-15,21H,1,4-9H2,2-3H3,(H,22,23)(H,24,25)

>  <PUBCHEM_IUPAC_INCHIKEY>
SFGDEUSMQMGAFH-UHFFFAOYSA-N

>  <PUBCHEM_XLOGP3_AA>
2.5

>  <PUBCHEM_EXACT_MASS>
348.194

>  <PUBCHEM_MOLECULAR_FORMULA>
C20H28O5

>  <PUBCHEM_MOLECULAR_WEIGHT>
348.439

>  <PUBCHEM_OPENEYE_CAN_SMILES>
CC12CC(CC(C1C(C34C2CCC(C3)C(=C)C4)C(=O)O)(C)C(=O)O)O

>  <PUBCHEM_OPENEYE_ISO_SMILES>
CC12CC(CC(C1C(C34C2CCC(C3)C(=C)C4)C(=O)O)(C)C(=O)O)O

>  <PUBCHEM_CACTVS_TPSA>
94.8

>  <PUBCHEM_MONOISOTOPIC_WEIGHT>
348.194

>  <PUBCHEM_TOTAL_CHARGE>
0

>  <PUBCHEM_HEAVY_ATOM_COUNT>
25

>  <PUBCHEM_ATOM_DEF_STEREO_COUNT>
0

>  <PUBCHEM_ATOM_UDEF_STEREO_COUNT>
8

>  <PUBCHEM_BOND_DEF_STEREO_COUNT>
0

>  <PUBCHEM_BOND_UDEF_STEREO_COUNT>
0

>  <PUBCHEM_ISOTOPIC_ATOM_COUNT>
0

>  <PUBCHEM_COMPONENT_COUNT>
1

>  <PUBCHEM_CACTVS_TAUTO_COUNT>
1

>  <PUBCHEM_COORDINATE_TYPE>
1
5
255

>  <PUBCHEM_BONDANNOTATIONS>
21  1  3
10  22  3
12  23  3
14  17  3
6  11  3
7  15  3
8  19  3
9  10  3

$$$$
