74819370
 OpenBabel06101807152D

 81 85  0  0  1  0  0  0  0  0999 V2000
    8.1101   -2.7787    0.0000 O   0  0  0  0  0  0  0  0  0  0  0  0
    7.2441   -0.2787    0.0000 O   0  0  0  0  0  0  0  0  0  0  0  0
    6.3781   -2.7787    0.0000 O   0  0  0  0  0  0  0  0  0  0  0  0
    6.3781   -1.7787    0.0000 O   0  0  0  0  0  0  0  0  0  0  0  0
    9.8422   -1.7787    0.0000 O   0  0  0  0  0  0  0  0  0  0  0  0
    9.8422    0.2213    0.0000 O   0  0  0  0  0  0  0  0  0  0  0  0
    8.1101   -4.7787    0.0000 O   0  0  0  0  0  0  0  0  0  0  0  0
    6.3781   -5.7787    0.0000 O   0  0  0  0  0  0  0  0  0  0  0  0
    4.6460   -4.7787    0.0000 O   0  0  0  0  0  0  0  0  0  0  0  0
    8.9761    1.7213    0.0000 O   0  0  0  0  0  0  0  0  0  0  0  0
    4.6038    1.2733    0.0000 O   0  0  0  0  0  0  0  0  0  0  0  0
    2.8383   -1.7514    0.0000 O   0  0  0  0  0  0  0  0  0  0  0  0
    8.1101    3.2213    0.0000 O   0  0  0  0  0  0  0  0  0  0  0  0
    2.0000   -0.2167    0.0000 O   0  0  0  0  0  0  0  0  0  0  0  0
   10.7082    4.7213    0.0000 O   0  0  0  0  0  0  0  0  0  0  0  0
    8.9761    4.7213    0.0000 O   0  0  0  0  0  0  0  0  0  0  0  0
    3.7552    5.7766    0.0000 O   0  0  0  0  0  0  0  0  0  0  0  0
    8.1101   -1.7787    0.0000 C   0  0  3  0  0  0  0  0  0  0  0  0
    8.9761   -1.2787    0.0000 C   0  0  3  0  0  0  0  0  0  0  0  0
    8.9761   -0.2787    0.0000 C   0  0  3  0  0  0  0  0  0  0  0  0
    7.2441   -3.2787    0.0000 C   0  0  3  0  0  0  0  0  0  0  0  0
    7.2441   -1.2787    0.0000 C   0  0  3  0  0  0  0  0  0  0  0  0
    8.1101    0.2213    0.0000 C   0  0  3  0  0  0  0  0  0  0  0  0
    7.2441   -4.2787    0.0000 C   0  0  3  0  0  0  0  0  0  0  0  0
    6.3781   -4.7787    0.0000 C   0  0  3  0  0  0  0  0  0  0  0  0
    5.5120   -4.2787    0.0000 C   0  0  3  0  0  0  0  0  0  0  0  0
    5.5120   -3.2787    0.0000 C   0  0  3  0  0  0  0  0  0  0  0  0
    8.1101    1.2213    0.0000 C   0  0  0  0  0  0  0  0  0  0  0  0
    4.6460   -2.7787    0.0000 C   0  0  0  0  0  0  0  0  0  0  0  0
    5.5120   -1.2787    0.0000 C   0  0  0  0  0  0  0  0  0  0  0  0
    5.5080   -0.2370    0.0000 C   0  0  0  0  0  0  0  0  0  0  0  0
    4.6080   -1.7960    0.0000 C   0  0  0  0  0  0  0  0  0  0  0  0
    4.6000    0.2733    0.0000 C   0  0  0  0  0  0  0  0  0  0  0  0
    3.7320   -0.2234    0.0000 C   0  0  0  0  0  0  0  0  0  0  0  0
    3.7120   -1.2648    0.0000 C   0  0  0  0  0  0  0  0  0  0  0  0
    8.9761    2.7213    0.0000 C   0  0  0  0  0  0  0  0  0  0  0  0
    3.7398    1.7766    0.0000 C   0  0  3  0  0  0  0  0  0  0  0  0
    2.8718    1.2800    0.0000 C   0  0  0  0  0  0  0  0  0  0  0  0
    2.8680    0.2800    0.0000 C   0  0  0  0  0  0  0  0  0  0  0  0
    3.7436    2.7766    0.0000 C   0  0  0  0  0  0  0  0  0  0  0  0
    9.8422    3.2213    0.0000 C   0  0  0  0  0  0  0  0  0  0  0  0
    4.6116    3.2733    0.0000 C   0  0  0  0  0  0  0  0  0  0  0  0
    2.8795    3.2800    0.0000 C   0  0  0  0  0  0  0  0  0  0  0  0
    9.8422    4.2213    0.0000 C   0  0  0  0  0  0  0  0  0  0  0  0
    4.6154    4.2733    0.0000 C   0  0  0  0  0  0  0  0  0  0  0  0
    2.8834    4.2800    0.0000 C   0  0  0  0  0  0  0  0  0  0  0  0
    3.7513    4.7766    0.0000 C   0  0  0  0  0  0  0  0  0  0  0  0
    7.5732   -2.0887    0.0000 H   0  0  0  0  0  0  0  0  0  0  0  0
    8.9761   -1.8987    0.0000 H   0  0  0  0  0  0  0  0  0  0  0  0
    9.5131   -0.5887    0.0000 H   0  0  0  0  0  0  0  0  0  0  0  0
    7.2441   -2.6587    0.0000 H   0  0  0  0  0  0  0  0  0  0  0  0
    6.7072   -0.9687    0.0000 H   0  0  0  0  0  0  0  0  0  0  0  0
    7.5732    0.5313    0.0000 H   0  0  0  0  0  0  0  0  0  0  0  0
    7.2441   -4.8987    0.0000 H   0  0  0  0  0  0  0  0  0  0  0  0
    5.8411   -5.0887    0.0000 H   0  0  0  0  0  0  0  0  0  0  0  0
    4.9751   -3.9687    0.0000 H   0  0  0  0  0  0  0  0  0  0  0  0
    5.5120   -2.6587    0.0000 H   0  0  0  0  0  0  0  0  0  0  0  0
    7.8981    1.8039    0.0000 H   0  0  0  0  0  0  0  0  0  0  0  0
    7.4995    1.1137    0.0000 H   0  0  0  0  0  0  0  0  0  0  0  0
    4.9560   -2.2417    0.0000 H   0  0  0  0  0  0  0  0  0  0  0  0
    4.1091   -2.4687    0.0000 H   0  0  0  0  0  0  0  0  0  0  0  0
    4.3360   -3.3156    0.0000 H   0  0  0  0  0  0  0  0  0  0  0  0
   10.3791   -1.4687    0.0000 H   0  0  0  0  0  0  0  0  0  0  0  0
   10.3791   -0.0887    0.0000 H   0  0  0  0  0  0  0  0  0  0  0  0
    8.1101   -5.3987    0.0000 H   0  0  0  0  0  0  0  0  0  0  0  0
    5.8411   -6.0887    0.0000 H   0  0  0  0  0  0  0  0  0  0  0  0
    4.1091   -4.4687    0.0000 H   0  0  0  0  0  0  0  0  0  0  0  0
    6.0426    0.0771    0.0000 H   0  0  0  0  0  0  0  0  0  0  0  0
    4.6032   -2.4160    0.0000 H   0  0  0  0  0  0  0  0  0  0  0  0
    4.2779    2.0846    0.0000 H   0  0  0  0  0  0  0  0  0  0  0  0
    2.6620    1.8634    0.0000 H   0  0  0  0  0  0  0  0  0  0  0  0
    2.2608    1.1747    0.0000 H   0  0  0  0  0  0  0  0  0  0  0  0
   10.0542    2.6387    0.0000 H   0  0  0  0  0  0  0  0  0  0  0  0
   10.4527    3.3290    0.0000 H   0  0  0  0  0  0  0  0  0  0  0  0
    2.8288   -2.3713    0.0000 H   0  0  0  0  0  0  0  0  0  0  0  0
    5.1473    2.9612    0.0000 H   0  0  0  0  0  0  0  0  0  0  0  0
    2.3414    2.9720    0.0000 H   0  0  0  0  0  0  0  0  0  0  0  0
    5.1535    4.5812    0.0000 H   0  0  0  0  0  0  0  0  0  0  0  0
    2.3476    4.5920    0.0000 H   0  0  0  0  0  0  0  0  0  0  0  0
   10.7082    5.3413    0.0000 H   0  0  0  0  0  0  0  0  0  0  0  0
    3.2194    6.0887    0.0000 H   0  0  0  0  0  0  0  0  0  0  0  0
  1 18  1  0  0  0  0
  1 21  1  0  0  0  0
  2 22  1  0  0  0  0
  2 23  1  0  0  0  0
  3 21  1  0  0  0  0
  3 27  1  0  0  0  0
  4 22  1  0  0  0  0
  4 30  1  0  0  0  0
  5 19  1  0  0  0  0
  5 63  1  0  0  0  0
  6 20  1  0  0  0  0
  6 64  1  0  0  0  0
  7 24  1  0  0  0  0
  7 65  1  0  0  0  0
  8 25  1  0  0  0  0
  8 66  1  0  0  0  0
  9 26  1  0  0  0  0
  9 67  1  0  0  0  0
 10 28  1  0  0  0  0
 10 36  1  0  0  0  0
 11 33  1  0  0  0  0
 11 37  1  0  0  0  0
 12 35  1  0  0  0  0
 12 75  1  0  0  0  0
 13 36  2  0  0  0  0
 14 39  2  0  0  0  0
 15 44  1  0  0  0  0
 15 80  1  0  0  0  0
 16 44  2  0  0  0  0
 17 47  1  0  0  0  0
 17 81  1  0  0  0  0
 18 19  1  0  0  0  0
 18 22  1  0  0  0  0
 18 48  1  0  0  0  0
 19 20  1  0  0  0  0
 19 49  1  0  0  0  0
 20 23  1  0  0  0  0
 20 50  1  0  0  0  0
 21 24  1  0  0  0  0
 21 51  1  0  0  0  0
 22 52  1  0  0  0  0
 23 28  1  0  0  0  0
 23 53  1  0  0  0  0
 24 25  1  0  0  0  0
 24 54  1  0  0  0  0
 25 26  1  0  0  0  0
 25 55  1  0  0  0  0
 26 27  1  0  0  0  0
 26 56  1  0  0  0  0
 27 29  1  0  0  0  0
 27 57  1  0  0  0  0
 28 58  1  0  0  0  0
 28 59  1  0  0  0  0
 29 60  1  0  0  0  0
 29 61  1  0  0  0  0
 29 62  1  0  0  0  0
 30 31  1  0  0  0  0
 30 32  2  0  0  0  0
 31 33  2  0  0  0  0
 31 68  1  0  0  0  0
 32 35  1  0  0  0  0
 32 69  1  0  0  0  0
 33 34  1  0  0  0  0
 34 35  2  0  0  0  0
 34 39  1  0  0  0  0
 36 41  1  0  0  0  0
 37 38  1  0  0  0  0
 37 40  1  0  0  0  0
 37 70  1  0  0  0  0
 38 39  1  0  0  0  0
 38 71  1  0  0  0  0
 38 72  1  0  0  0  0
 40 42  2  0  0  0  0
 40 43  1  0  0  0  0
 41 44  1  0  0  0  0
 41 73  1  0  0  0  0
 41 74  1  0  0  0  0
 42 45  1  0  0  0  0
 42 76  1  0  0  0  0
 43 46  2  0  0  0  0
 43 77  1  0  0  0  0
 45 47  2  0  0  0  0
 45 78  1  0  0  0  0
 46 47  1  0  0  0  0
 46 79  1  0  0  0  0
M  END
>  <PUBCHEM_COMPOUND_CID>
74819370

>  <PUBCHEM_COMPOUND_CANONICALIZED>
1

>  <PUBCHEM_CACTVS_COMPLEXITY>
1100

>  <PUBCHEM_CACTVS_HBOND_ACCEPTOR>
17

>  <PUBCHEM_CACTVS_HBOND_DONOR>
8

>  <PUBCHEM_CACTVS_ROTATABLE_BOND>
10

>  <PUBCHEM_CACTVS_SUBSKEYS>
AAADcfB4PgAAAAAAAAAAAAAAAAAAAAAAAAA0aJECAAAAAACRQAAAGgAACAAADBSwmAMyDoAABgCIAqDSCAACCAAkIAAIiAEGCMgdNzaONRqieWCl4BUPuQfI7OzOIAAACAAIAABAAAAQABAAAAAAAAAAAA==

>  <PUBCHEM_IUPAC_OPENEYE_NAME>
3-[[3,4-dihydroxy-6-[5-hydroxy-2-(4-hydroxyphenyl)-4-oxo-chroman-7-yl]oxy-5-(3,4,5-trihydroxy-6-methyl-tetrahydropyran-2-yl)oxy-tetrahydropyran-2-yl]methoxy]-3-oxo-propanoic acid

>  <PUBCHEM_IUPAC_CAS_NAME>
3-[[3,4-dihydroxy-6-[[5-hydroxy-2-(4-hydroxyphenyl)-4-oxo-3,4-dihydro-2H-1-benzopyran-7-yl]oxy]-5-[(3,4,5-trihydroxy-6-methyl-2-oxanyl)oxy]-2-oxanyl]methoxy]-3-oxopropanoic acid

>  <PUBCHEM_IUPAC_NAME>
3-[[3,4-dihydroxy-6-[[5-hydroxy-2-(4-hydroxyphenyl)-4-oxo-2,3-dihydrochromen-7-yl]oxy]-5-(3,4,5-trihydroxy-6-methyloxan-2-yl)oxyoxan-2-yl]methoxy]-3-oxopropanoic acid

>  <PUBCHEM_IUPAC_SYSTEMATIC_NAME>
3-[[6-[[2-(4-hydroxyphenyl)-5-oxidanyl-4-oxidanylidene-2,3-dihydrochromen-7-yl]oxy]-5-[6-methyl-3,4,5-tris(oxidanyl)oxan-2-yl]oxy-3,4-bis(oxidanyl)oxan-2-yl]methoxy]-3-oxidanylidene-propanoic acid

>  <PUBCHEM_IUPAC_TRADITIONAL_NAME>
3-[[3,4-dihydroxy-6-[5-hydroxy-2-(4-hydroxyphenyl)-4-keto-chroman-7-yl]oxy-5-(3,4,5-trihydroxy-6-methyl-tetrahydropyran-2-yl)oxy-tetrahydropyran-2-yl]methoxy]-3-keto-propionic acid

>  <PUBCHEM_IUPAC_INCHI>
InChI=1S/C30H34O17/c1-11-23(37)25(39)27(41)29(43-11)47-28-26(40)24(38)19(10-42-21(36)9-20(34)35)46-30(28)44-14-6-15(32)22-16(33)8-17(45-18(22)7-14)12-2-4-13(31)5-3-12/h2-7,11,17,19,23-32,37-41H,8-10H2,1H3,(H,34,35)

>  <PUBCHEM_IUPAC_INCHIKEY>
YCOQCRMFNLZUCL-UHFFFAOYSA-N

>  <PUBCHEM_XLOGP3_AA>
-0.8

>  <PUBCHEM_EXACT_MASS>
666.18

>  <PUBCHEM_MOLECULAR_FORMULA>
C30H34O17

>  <PUBCHEM_MOLECULAR_WEIGHT>
666.585

>  <PUBCHEM_OPENEYE_CAN_SMILES>
CC1C(C(C(C(O1)OC2C(C(C(OC2OC3=CC(=C4C(=O)CC(OC4=C3)C5=CC=C(C=C5)O)O)COC(=O)CC(=O)O)O)O)O)O)O

>  <PUBCHEM_OPENEYE_ISO_SMILES>
CC1C(C(C(C(O1)OC2C(C(C(OC2OC3=CC(=C4C(=O)CC(OC4=C3)C5=CC=C(C=C5)O)O)COC(=O)CC(=O)O)O)O)O)O)O

>  <PUBCHEM_CACTVS_TPSA>
268

>  <PUBCHEM_MONOISOTOPIC_WEIGHT>
666.18

>  <PUBCHEM_TOTAL_CHARGE>
0

>  <PUBCHEM_HEAVY_ATOM_COUNT>
47

>  <PUBCHEM_ATOM_DEF_STEREO_COUNT>
0

>  <PUBCHEM_ATOM_UDEF_STEREO_COUNT>
11

>  <PUBCHEM_BOND_DEF_STEREO_COUNT>
0

>  <PUBCHEM_BOND_UDEF_STEREO_COUNT>
0

>  <PUBCHEM_ISOTOPIC_ATOM_COUNT>
0

>  <PUBCHEM_COMPONENT_COUNT>
1

>  <PUBCHEM_CACTVS_TAUTO_COUNT>
18

>  <PUBCHEM_COORDINATE_TYPE>
1
5
255

>  <PUBCHEM_BONDANNOTATIONS>
18  1  3
21  1  3
23  28  3
27  29  3
30  31  8
30  32  8
31  33  8
32  35  8
33  34  8
34  35  8
37  40  3
22  4  3
40  42  8
40  43  8
42  45  8
43  46  8
45  47  8
46  47  8
19  5  3
20  6  3
24  7  3
25  8  3
26  9  3

$$$$
