74818467
 OpenBabel06101807152D

 92 97  0  0  1  0  0  0  0  0999 V2000
    8.6565   -2.1383    0.0000 O   0  0  0  0  0  0  0  0  0  0  0  0
    6.9245   -0.1383    0.0000 O   0  0  0  0  0  0  0  0  0  0  0  0
    7.7905   -3.6383    0.0000 O   0  0  0  0  0  0  0  0  0  0  0  0
    8.6565   -0.1383    0.0000 O   0  0  0  0  0  0  0  0  0  0  0  0
    6.9245   -3.1383    0.0000 O   0  0  0  0  0  0  0  0  0  0  0  0
    5.1924   -2.1383    0.0000 O   0  0  0  0  0  0  0  0  0  0  0  0
    5.1370    3.8485    0.0000 O   0  0  0  0  0  0  0  0  0  0  0  0
   10.3886   -3.1383    0.0000 O   0  0  0  0  0  0  0  0  0  0  0  0
   10.3886   -5.1383    0.0000 O   0  0  0  0  0  0  0  0  0  0  0  0
    6.0203    2.3586    0.0000 O   0  0  0  0  0  0  0  0  0  0  0  0
    8.6565   -6.1383    0.0000 O   0  0  0  0  0  0  0  0  0  0  0  0
    4.3264   -0.6383    0.0000 O   0  0  0  0  0  0  0  0  0  0  0  0
    2.5564    2.3185    0.0000 O   0  0  0  0  0  0  0  0  0  0  0  0
    2.5333    4.3184    0.0000 O   0  0  0  0  0  0  0  0  0  0  0  0
    4.2999    1.3386    0.0000 O   0  0  0  0  0  0  0  0  0  0  0  0
    9.5226    2.3617    0.0000 O   0  3  0  0  0  0  0  0  0  0  0  0
    3.3819    5.8283    0.0000 O   0  0  0  0  0  0  0  0  0  0  0  0
    7.7784    5.4310    0.0000 O   0  0  0  0  0  0  0  0  0  0  0  0
   11.2546   -1.6383    0.0000 O   0  0  0  0  0  0  0  0  0  0  0  0
   12.9867    1.3617    0.0000 O   0  0  0  0  0  0  0  0  0  0  0  0
   12.9867   -0.6383    0.0000 O   0  0  0  0  0  0  0  0  0  0  0  0
    7.7905   -1.6383    0.0000 C   0  0  3  0  0  0  0  0  0  0  0  0
    6.9245   -2.1383    0.0000 C   0  0  3  0  0  0  0  0  0  0  0  0
    6.0584   -1.6383    0.0000 C   0  0  3  0  0  0  0  0  0  0  0  0
    7.7905   -0.6383    0.0000 C   0  0  3  0  0  0  0  0  0  0  0  0
    6.0584   -0.6383    0.0000 C   0  0  3  0  0  0  0  0  0  0  0  0
    8.6565   -3.1383    0.0000 C   0  0  3  0  0  0  0  0  0  0  0  0
    9.5226   -3.6383    0.0000 C   0  0  3  0  0  0  0  0  0  0  0  0
    9.5226   -4.6383    0.0000 C   0  0  3  0  0  0  0  0  0  0  0  0
    8.6565   -5.1383    0.0000 C   0  0  3  0  0  0  0  0  0  0  0  0
    5.1924   -0.1383    0.0000 C   0  0  0  0  0  0  0  0  0  0  0  0
    7.7905   -4.6383    0.0000 C   0  0  0  0  0  0  0  0  0  0  0  0
    3.4166    2.8285    0.0000 C   0  0  3  0  0  0  0  0  0  0  0  0
    3.4051    3.8284    0.0000 C   0  0  3  0  0  0  0  0  0  0  0  0
    4.2884    2.3386    0.0000 C   0  0  3  0  0  0  0  0  0  0  0  0
    4.2652    4.3384    0.0000 C   0  0  3  0  0  0  0  0  0  0  0  0
    5.1486    2.8485    0.0000 C   0  0  3  0  0  0  0  0  0  0  0  0
    8.6565    0.8617    0.0000 C   0  0  0  0  0  0  0  0  0  0  0  0
    4.2537    5.3384    0.0000 C   0  0  0  0  0  0  0  0  0  0  0  0
    7.7905    2.3617    0.0000 C   0  0  0  0  0  0  0  0  0  0  0  0
    7.7905    1.3617    0.0000 C   0  0  0  0  0  0  0  0  0  0  0  0
    6.8805    2.8686    0.0000 C   0  0  0  0  0  0  0  0  0  0  0  0
    9.5226    1.3617    0.0000 C   0  0  0  0  0  0  0  0  0  0  0  0
    8.6565    2.8617    0.0000 C   0  0  0  0  0  0  0  0  0  0  0  0
    6.8725    3.9102    0.0000 C   0  0  0  0  0  0  0  0  0  0  0  0
   10.3886    0.8617    0.0000 C   0  0  0  0  0  0  0  0  0  0  0  0
    8.6726    3.9032    0.0000 C   0  0  0  0  0  0  0  0  0  0  0  0
    7.7746    4.4310    0.0000 C   0  0  0  0  0  0  0  0  0  0  0  0
   11.2546    1.3617    0.0000 C   0  0  0  0  0  0  0  0  0  0  0  0
   10.3886   -0.1383    0.0000 C   0  0  0  0  0  0  0  0  0  0  0  0
   11.2546   -0.6383    0.0000 C   0  0  0  0  0  0  0  0  0  0  0  0
   12.1206    0.8617    0.0000 C   0  0  0  0  0  0  0  0  0  0  0  0
   12.1206   -0.1383    0.0000 C   0  0  0  0  0  0  0  0  0  0  0  0
    7.7905   -2.2583    0.0000 H   0  0  0  0  0  0  0  0  0  0  0  0
    6.3875   -2.4483    0.0000 H   0  0  0  0  0  0  0  0  0  0  0  0
    5.5215   -1.3283    0.0000 H   0  0  0  0  0  0  0  0  0  0  0  0
    7.7905   -0.0183    0.0000 H   0  0  0  0  0  0  0  0  0  0  0  0
    6.0584   -0.0183    0.0000 H   0  0  0  0  0  0  0  0  0  0  0  0
    9.1935   -2.8283    0.0000 H   0  0  0  0  0  0  0  0  0  0  0  0
   10.0595   -3.9483    0.0000 H   0  0  0  0  0  0  0  0  0  0  0  0
    9.5226   -5.2583    0.0000 H   0  0  0  0  0  0  0  0  0  0  0  0
    8.1196   -5.4483    0.0000 H   0  0  0  0  0  0  0  0  0  0  0  0
    5.5910    0.3367    0.0000 H   0  0  0  0  0  0  0  0  0  0  0  0
    4.7939    0.3367    0.0000 H   0  0  0  0  0  0  0  0  0  0  0  0
    7.1799   -4.5306    0.0000 H   0  0  0  0  0  0  0  0  0  0  0  0
    7.5784   -5.2209    0.0000 H   0  0  0  0  0  0  0  0  0  0  0  0
    2.8761    3.1323    0.0000 H   0  0  0  0  0  0  0  0  0  0  0  0
    3.3979    4.4484    0.0000 H   0  0  0  0  0  0  0  0  0  0  0  0
    3.7551    2.0224    0.0000 H   0  0  0  0  0  0  0  0  0  0  0  0
    4.7986    4.6546    0.0000 H   0  0  0  0  0  0  0  0  0  0  0  0
    5.1557    2.2286    0.0000 H   0  0  0  0  0  0  0  0  0  0  0  0
    6.3875   -3.4483    0.0000 H   0  0  0  0  0  0  0  0  0  0  0  0
    5.1924   -2.7583    0.0000 H   0  0  0  0  0  0  0  0  0  0  0  0
    4.8655    5.2378    0.0000 H   0  0  0  0  0  0  0  0  0  0  0  0
    4.4590    5.9234    0.0000 H   0  0  0  0  0  0  0  0  0  0  0  0
   10.9255   -3.4483    0.0000 H   0  0  0  0  0  0  0  0  0  0  0  0
   10.3886   -5.7583    0.0000 H   0  0  0  0  0  0  0  0  0  0  0  0
    8.1196   -6.4483    0.0000 H   0  0  0  0  0  0  0  0  0  0  0  0
    7.2536    1.0517    0.0000 H   0  0  0  0  0  0  0  0  0  0  0  0
    3.7895   -0.3283    0.0000 H   0  0  0  0  0  0  0  0  0  0  0  0
    2.0160    2.6223    0.0000 H   0  0  0  0  0  0  0  0  0  0  0  0
    2.0000    4.0022    0.0000 H   0  0  0  0  0  0  0  0  0  0  0  0
    3.7666    1.0224    0.0000 H   0  0  0  0  0  0  0  0  0  0  0  0
    6.3343    4.2181    0.0000 H   0  0  0  0  0  0  0  0  0  0  0  0
    3.3748    6.4483    0.0000 H   0  0  0  0  0  0  0  0  0  0  0  0
    9.2131    4.2070    0.0000 H   0  0  0  0  0  0  0  0  0  0  0  0
   11.2546    1.9817    0.0000 H   0  0  0  0  0  0  0  0  0  0  0  0
    9.8516   -0.4483    0.0000 H   0  0  0  0  0  0  0  0  0  0  0  0
    8.3165    5.7389    0.0000 H   0  0  0  0  0  0  0  0  0  0  0  0
   11.7915   -1.9483    0.0000 H   0  0  0  0  0  0  0  0  0  0  0  0
   12.9867    1.9817    0.0000 H   0  0  0  0  0  0  0  0  0  0  0  0
   12.9867   -1.2583    0.0000 H   0  0  0  0  0  0  0  0  0  0  0  0
  1 22  1  0  0  0  0
  1 27  1  0  0  0  0
  2 25  1  0  0  0  0
  2 26  1  0  0  0  0
  3 27  1  0  0  0  0
  3 32  1  0  0  0  0
  4 25  1  0  0  0  0
  4 38  1  0  0  0  0
  5 23  1  0  0  0  0
  5 72  1  0  0  0  0
  6 24  1  0  0  0  0
  6 73  1  0  0  0  0
  7 36  1  0  0  0  0
  7 37  1  0  0  0  0
  8 28  1  0  0  0  0
  8 76  1  0  0  0  0
  9 29  1  0  0  0  0
  9 77  1  0  0  0  0
 10 37  1  0  0  0  0
 10 42  1  0  0  0  0
 11 30  1  0  0  0  0
 11 78  1  0  0  0  0
 12 31  1  0  0  0  0
 12 80  1  0  0  0  0
 13 33  1  0  0  0  0
 13 81  1  0  0  0  0
 14 34  1  0  0  0  0
 14 82  1  0  0  0  0
 15 35  1  0  0  0  0
 15 83  1  0  0  0  0
 16 43  1  0  0  0  0
 16 44  2  0  0  0  0
 17 39  1  0  0  0  0
 17 85  1  0  0  0  0
 18 48  1  0  0  0  0
 18 89  1  0  0  0  0
 19 51  1  0  0  0  0
 19 90  1  0  0  0  0
 20 52  1  0  0  0  0
 20 91  1  0  0  0  0
 21 53  1  0  0  0  0
 21 92  1  0  0  0  0
 22 23  1  0  0  0  0
 22 25  1  0  0  0  0
 22 54  1  0  0  0  0
 23 24  1  0  0  0  0
 23 55  1  0  0  0  0
 24 26  1  0  0  0  0
 24 56  1  0  0  0  0
 25 57  1  0  0  0  0
 26 31  1  0  0  0  0
 26 58  1  0  0  0  0
 27 28  1  0  0  0  0
 27 59  1  0  0  0  0
 28 29  1  0  0  0  0
 28 60  1  0  0  0  0
 29 30  1  0  0  0  0
 29 61  1  0  0  0  0
 30 32  1  0  0  0  0
 30 62  1  0  0  0  0
 31 63  1  0  0  0  0
 31 64  1  0  0  0  0
 32 65  1  0  0  0  0
 32 66  1  0  0  0  0
 33 34  1  0  0  0  0
 33 35  1  0  0  0  0
 33 67  1  0  0  0  0
 34 36  1  0  0  0  0
 34 68  1  0  0  0  0
 35 37  1  0  0  0  0
 35 69  1  0  0  0  0
 36 39  1  0  0  0  0
 36 70  1  0  0  0  0
 37 71  1  0  0  0  0
 38 41  1  0  0  0  0
 38 43  2  0  0  0  0
 39 74  1  0  0  0  0
 39 75  1  0  0  0  0
 40 41  2  0  0  0  0
 40 42  1  0  0  0  0
 40 44  1  0  0  0  0
 41 79  1  0  0  0  0
 42 45  2  0  0  0  0
 43 46  1  0  0  0  0
 44 47  1  0  0  0  0
 45 48  1  0  0  0  0
 45 84  1  0  0  0  0
 46 49  2  0  0  0  0
 46 50  1  0  0  0  0
 47 48  2  0  0  0  0
 47 86  1  0  0  0  0
 49 52  1  0  0  0  0
 49 87  1  0  0  0  0
 50 51  2  0  0  0  0
 50 88  1  0  0  0  0
 51 53  1  0  0  0  0
 52 53  2  0  0  0  0
M  CHG  1  16   1
M  END
>  <PUBCHEM_COMPOUND_CID>
74818467

>  <PUBCHEM_COMPOUND_CANONICALIZED>
1

>  <PUBCHEM_CACTVS_COMPLEXITY>
1160

>  <PUBCHEM_CACTVS_HBOND_ACCEPTOR>
20

>  <PUBCHEM_CACTVS_HBOND_DONOR>
14

>  <PUBCHEM_CACTVS_ROTATABLE_BOND>
9

>  <PUBCHEM_CACTVS_SUBSKEYS>
AAADcfB8PgAAAAAAAAAAAAAAAAAAAAAAAAA0aJEiAAAAAACR9AAAGgAACAAADBSwmAMwDsAABkCIAqBSAAICCAAkIAAAiAFGiMgdNzaGNR6ieWOl4BUPuYfK7PzOIAABCAAIQABAAAIQABCAAAAAAAAAAA==

>  <PUBCHEM_IUPAC_OPENEYE_NAME>
2-[3-[4,5-dihydroxy-6-(hydroxymethyl)-3-(3,4,5-trihydroxytetrahydropyran-2-yl)oxy-tetrahydropyran-2-yl]oxy-7-hydroxy-2-(3,4,5-trihydroxyphenyl)chromenylium-5-yl]oxy-6-(hydroxymethyl)tetrahydropyran-3,4,5-triol

>  <PUBCHEM_IUPAC_CAS_NAME>
2-[[3-[[4,5-dihydroxy-6-(hydroxymethyl)-3-[(3,4,5-trihydroxy-2-oxanyl)oxy]-2-oxanyl]oxy]-7-hydroxy-2-(3,4,5-trihydroxyphenyl)-1-benzopyrylium-5-yl]oxy]-6-(hydroxymethyl)oxane-3,4,5-triol

>  <PUBCHEM_IUPAC_NAME>
2-[3-[4,5-dihydroxy-6-(hydroxymethyl)-3-(3,4,5-trihydroxyoxan-2-yl)oxyoxan-2-yl]oxy-7-hydroxy-2-(3,4,5-trihydroxyphenyl)chromenylium-5-yl]oxy-6-(hydroxymethyl)oxane-3,4,5-triol

>  <PUBCHEM_IUPAC_SYSTEMATIC_NAME>
2-(hydroxymethyl)-6-[3-[6-(hydroxymethyl)-4,5-bis(oxidanyl)-3-[3,4,5-tris(oxidanyl)oxan-2-yl]oxy-oxan-2-yl]oxy-7-oxidanyl-2-[3,4,5-tris(oxidanyl)phenyl]chromenylium-5-yl]oxy-oxane-3,4,5-triol

>  <PUBCHEM_IUPAC_TRADITIONAL_NAME>
2-[[3-[4,5-dihydroxy-6-methylol-3-(3,4,5-trihydroxytetrahydropyran-2-yl)oxy-tetrahydropyran-2-yl]oxy-7-hydroxy-2-(3,4,5-trihydroxyphenyl)-1-benzopyrylium-5-yl]oxy]-6-methylol-tetrahydropyran-3,4,5-triol

>  <PUBCHEM_IUPAC_INCHI>
InChI=1S/C32H38O21/c33-6-18-22(41)24(43)27(46)31(51-18)49-16-4-10(35)3-15-11(16)5-17(28(48-15)9-1-12(36)20(39)13(37)2-9)50-32-29(25(44)23(42)19(7-34)52-32)53-30-26(45)21(40)14(38)8-47-30/h1-5,14,18-19,21-27,29-34,38,40-46H,6-8H2,(H3-,35,36,37,39)/p+1

>  <PUBCHEM_IUPAC_INCHIKEY>
SVKUZBZQDMYGEP-UHFFFAOYSA-O

>  <PUBCHEM_EXACT_MASS>
759.198

>  <PUBCHEM_MOLECULAR_FORMULA>
C32H39O21+

>  <PUBCHEM_MOLECULAR_WEIGHT>
759.643

>  <PUBCHEM_OPENEYE_CAN_SMILES>
C1C(C(C(C(O1)OC2C(C(C(OC2OC3=C([O+]=C4C=C(C=C(C4=C3)OC5C(C(C(C(O5)CO)O)O)O)O)C6=CC(=C(C(=C6)O)O)O)CO)O)O)O)O)O

>  <PUBCHEM_OPENEYE_ISO_SMILES>
C1C(C(C(C(O1)OC2C(C(C(OC2OC3=C([O+]=C4C=C(C=C(C4=C3)OC5C(C(C(C(O5)CO)O)O)O)O)C6=CC(=C(C(=C6)O)O)O)CO)O)O)O)O)O

>  <PUBCHEM_CACTVS_TPSA>
340

>  <PUBCHEM_MONOISOTOPIC_WEIGHT>
759.198

>  <PUBCHEM_TOTAL_CHARGE>
1

>  <PUBCHEM_HEAVY_ATOM_COUNT>
53

>  <PUBCHEM_ATOM_DEF_STEREO_COUNT>
0

>  <PUBCHEM_ATOM_UDEF_STEREO_COUNT>
14

>  <PUBCHEM_BOND_DEF_STEREO_COUNT>
0

>  <PUBCHEM_BOND_UDEF_STEREO_COUNT>
0

>  <PUBCHEM_ISOTOPIC_ATOM_COUNT>
0

>  <PUBCHEM_COMPONENT_COUNT>
1

>  <PUBCHEM_CACTVS_TAUTO_COUNT>
100

>  <PUBCHEM_COORDINATE_TYPE>
1
5
255

>  <PUBCHEM_BONDANNOTATIONS>
22  1  3
27  1  3
37  10  3
30  11  3
33  13  3
34  14  3
35  15  3
16  43  8
16  44  8
26  31  3
36  39  3
38  41  8
38  43  8
25  4  3
40  41  8
40  42  8
40  44  8
42  45  8
44  47  8
45  48  8
46  49  8
46  50  8
47  48  8
49  52  8
23  5  3
50  51  8
51  53  8
52  53  8
24  6  3
28  8  3
29  9  3

$$$$
