74819423
 OpenBabel06101807152D

 60 63  0  0  1  0  0  0  0  0999 V2000
    6.0427   -2.1313    0.0000 O   0  0  0  0  0  0  0  0  0  0  0  0
    7.7748   -2.1313    0.0000 O   0  0  0  0  0  0  0  0  0  0  0  0
    6.0427   -5.1313    0.0000 O   0  0  0  0  0  0  0  0  0  0  0  0
    4.3107   -4.1313    0.0000 O   0  0  0  0  0  0  0  0  0  0  0  0
    7.7748   -4.1313    0.0000 O   0  0  0  0  0  0  0  0  0  0  0  0
    3.4446   -2.6313    0.0000 O   0  0  0  0  0  0  0  0  0  0  0  0
    6.0427    1.8687    0.0000 O   0  0  0  0  0  0  0  0  0  0  0  0
    9.5068   -1.1313    0.0000 O   0  0  0  0  0  0  0  0  0  0  0  0
    3.4446    0.3687    0.0000 O   0  0  0  0  0  0  0  0  0  0  0  0
    2.5405    1.8656    0.0000 O   0  0  0  0  0  0  0  0  0  0  0  0
    4.2986    4.9380    0.0000 O   0  0  0  0  0  0  0  0  0  0  0  0
    6.0427   -4.1313    0.0000 C   0  0  3  0  0  0  0  0  0  0  0  0
    5.1767   -3.6313    0.0000 C   0  0  3  0  0  0  0  0  0  0  0  0
    6.9088   -3.6313    0.0000 C   0  0  3  0  0  0  0  0  0  0  0  0
    5.1767   -2.6313    0.0000 C   0  0  3  0  0  0  0  0  0  0  0  0
    6.9088   -2.6313    0.0000 C   0  0  3  0  0  0  0  0  0  0  0  0
    4.3107   -2.1313    0.0000 C   0  0  0  0  0  0  0  0  0  0  0  0
    7.7748   -1.1313    0.0000 C   0  0  0  0  0  0  0  0  0  0  0  0
    6.0427    0.8687    0.0000 C   0  0  3  0  0  0  0  0  0  0  0  0
    6.9088    0.3687    0.0000 C   0  0  0  0  0  0  0  0  0  0  0  0
    5.1767    0.3687    0.0000 C   0  0  0  0  0  0  0  0  0  0  0  0
    6.9088   -0.6313    0.0000 C   0  0  0  0  0  0  0  0  0  0  0  0
    8.6408   -0.6313    0.0000 C   0  0  0  0  0  0  0  0  0  0  0  0
    7.7748    0.8687    0.0000 C   0  0  0  0  0  0  0  0  0  0  0  0
    4.3107    0.8687    0.0000 C   0  0  0  0  0  0  0  0  0  0  0  0
    4.3107    1.8687    0.0000 C   0  0  0  0  0  0  0  0  0  0  0  0
    5.1767    2.3687    0.0000 C   0  0  0  0  0  0  0  0  0  0  0  0
    8.6408    0.3687    0.0000 C   0  0  0  0  0  0  0  0  0  0  0  0
    3.4007    2.3756    0.0000 C   0  0  0  0  0  0  0  0  0  0  0  0
    5.1928    3.4102    0.0000 C   0  0  0  0  0  0  0  0  0  0  0  0
    4.2947    3.9380    0.0000 C   0  0  0  0  0  0  0  0  0  0  0  0
    3.3926    3.4172    0.0000 C   0  0  0  0  0  0  0  0  0  0  0  0
   10.3728   -0.6313    0.0000 C   0  0  0  0  0  0  0  0  0  0  0  0
    3.4345    5.4413    0.0000 C   0  0  0  0  0  0  0  0  0  0  0  0
    6.5797   -4.4413    0.0000 H   0  0  0  0  0  0  0  0  0  0  0  0
    5.1767   -4.2513    0.0000 H   0  0  0  0  0  0  0  0  0  0  0  0
    7.4457   -3.3213    0.0000 H   0  0  0  0  0  0  0  0  0  0  0  0
    5.1767   -2.0113    0.0000 H   0  0  0  0  0  0  0  0  0  0  0  0
    6.9088   -2.0113    0.0000 H   0  0  0  0  0  0  0  0  0  0  0  0
    4.7092   -1.6564    0.0000 H   0  0  0  0  0  0  0  0  0  0  0  0
    3.9121   -1.6564    0.0000 H   0  0  0  0  0  0  0  0  0  0  0  0
    6.5797   -5.4413    0.0000 H   0  0  0  0  0  0  0  0  0  0  0  0
    4.3107   -4.7513    0.0000 H   0  0  0  0  0  0  0  0  0  0  0  0
    8.3117   -3.8213    0.0000 H   0  0  0  0  0  0  0  0  0  0  0  0
    6.0427    0.2487    0.0000 H   0  0  0  0  0  0  0  0  0  0  0  0
    4.7782   -0.1062    0.0000 H   0  0  0  0  0  0  0  0  0  0  0  0
    5.5752   -0.1062    0.0000 H   0  0  0  0  0  0  0  0  0  0  0  0
    6.3718   -0.9413    0.0000 H   0  0  0  0  0  0  0  0  0  0  0  0
    2.9077   -2.3213    0.0000 H   0  0  0  0  0  0  0  0  0  0  0  0
    7.7748    1.4887    0.0000 H   0  0  0  0  0  0  0  0  0  0  0  0
    9.1777    0.6787    0.0000 H   0  0  0  0  0  0  0  0  0  0  0  0
    5.7332    3.7140    0.0000 H   0  0  0  0  0  0  0  0  0  0  0  0
    2.8545    3.7251    0.0000 H   0  0  0  0  0  0  0  0  0  0  0  0
   10.6828   -1.1682    0.0000 H   0  0  0  0  0  0  0  0  0  0  0  0
   10.9098   -0.3213    0.0000 H   0  0  0  0  0  0  0  0  0  0  0  0
   10.0628   -0.0944    0.0000 H   0  0  0  0  0  0  0  0  0  0  0  0
    2.0000    2.1693    0.0000 H   0  0  0  0  0  0  0  0  0  0  0  0
    3.7466    5.9770    0.0000 H   0  0  0  0  0  0  0  0  0  0  0  0
    2.8988    5.7534    0.0000 H   0  0  0  0  0  0  0  0  0  0  0  0
    3.1224    4.9056    0.0000 H   0  0  0  0  0  0  0  0  0  0  0  0
  1 15  1  0  0  0  0
  1 16  1  0  0  0  0
  2 16  1  0  0  0  0
  2 18  1  0  0  0  0
  3 12  1  0  0  0  0
  3 42  1  0  0  0  0
  4 13  1  0  0  0  0
  4 43  1  0  0  0  0
  5 14  1  0  0  0  0
  5 44  1  0  0  0  0
  6 17  1  0  0  0  0
  6 49  1  0  0  0  0
  7 19  1  0  0  0  0
  7 27  1  0  0  0  0
  8 23  1  0  0  0  0
  8 33  1  0  0  0  0
  9 25  2  0  0  0  0
 10 29  1  0  0  0  0
 10 57  1  0  0  0  0
 11 31  1  0  0  0  0
 11 34  1  0  0  0  0
 12 13  1  0  0  0  0
 12 14  1  0  0  0  0
 12 35  1  0  0  0  0
 13 15  1  0  0  0  0
 13 36  1  0  0  0  0
 14 16  1  0  0  0  0
 14 37  1  0  0  0  0
 15 17  1  0  0  0  0
 15 38  1  0  0  0  0
 16 39  1  0  0  0  0
 17 40  1  0  0  0  0
 17 41  1  0  0  0  0
 18 22  1  0  0  0  0
 18 23  2  0  0  0  0
 19 20  1  0  0  0  0
 19 21  1  0  0  0  0
 19 45  1  0  0  0  0
 20 22  2  0  0  0  0
 20 24  1  0  0  0  0
 21 25  1  0  0  0  0
 21 46  1  0  0  0  0
 21 47  1  0  0  0  0
 22 48  1  0  0  0  0
 23 28  1  0  0  0  0
 24 28  2  0  0  0  0
 24 50  1  0  0  0  0
 25 26  1  0  0  0  0
 26 27  1  0  0  0  0
 26 29  2  0  0  0  0
 27 30  2  0  0  0  0
 28 51  1  0  0  0  0
 29 32  1  0  0  0  0
 30 31  1  0  0  0  0
 30 52  1  0  0  0  0
 31 32  2  0  0  0  0
 32 53  1  0  0  0  0
 33 54  1  0  0  0  0
 33 55  1  0  0  0  0
 33 56  1  0  0  0  0
 34 58  1  0  0  0  0
 34 59  1  0  0  0  0
 34 60  1  0  0  0  0
M  END
>  <PUBCHEM_COMPOUND_CID>
74819423

>  <PUBCHEM_COMPOUND_CANONICALIZED>
1

>  <PUBCHEM_CACTVS_COMPLEXITY>
692

>  <PUBCHEM_CACTVS_HBOND_ACCEPTOR>
11

>  <PUBCHEM_CACTVS_HBOND_DONOR>
5

>  <PUBCHEM_CACTVS_ROTATABLE_BOND>
6

>  <PUBCHEM_CACTVS_SUBSKEYS>
AAADceB4PAAAAAAAAAAAAAAAAAAAAAAAAAA0aIEAAAAAAACRQAAAGgAACAAADBSwmAMyDoAABgCIAqBSAAACCAAkIAAIiAEGiMgdNzaGNRqieWKl4BUPuQfI7PzOIAABCAAIQABAAAIQABCAAAAAAAAAAA==

>  <PUBCHEM_IUPAC_OPENEYE_NAME>
5-hydroxy-7-methoxy-2-[4-methoxy-3-[3,4,5-trihydroxy-6-(hydroxymethyl)tetrahydropyran-2-yl]oxy-phenyl]chroman-4-one

>  <PUBCHEM_IUPAC_CAS_NAME>
5-hydroxy-7-methoxy-2-[4-methoxy-3-[[3,4,5-trihydroxy-6-(hydroxymethyl)-2-oxanyl]oxy]phenyl]-3,4-dihydro-2H-1-benzopyran-4-one

>  <PUBCHEM_IUPAC_NAME>
5-hydroxy-7-methoxy-2-[4-methoxy-3-[3,4,5-trihydroxy-6-(hydroxymethyl)oxan-2-yl]oxyphenyl]-2,3-dihydrochromen-4-one

>  <PUBCHEM_IUPAC_SYSTEMATIC_NAME>
2-[3-[6-(hydroxymethyl)-3,4,5-tris(oxidanyl)oxan-2-yl]oxy-4-methoxy-phenyl]-7-methoxy-5-oxidanyl-2,3-dihydrochromen-4-one

>  <PUBCHEM_IUPAC_TRADITIONAL_NAME>
5-hydroxy-7-methoxy-2-[4-methoxy-3-(3,4,5-trihydroxy-6-methylol-tetrahydropyran-2-yl)oxy-phenyl]chroman-4-one

>  <PUBCHEM_IUPAC_INCHI>
InChI=1S/C23H26O11/c1-30-11-6-12(25)19-13(26)8-15(32-17(19)7-11)10-3-4-14(31-2)16(5-10)33-23-22(29)21(28)20(27)18(9-24)34-23/h3-7,15,18,20-25,27-29H,8-9H2,1-2H3

>  <PUBCHEM_IUPAC_INCHIKEY>
VHGJMSVFUPCQGC-UHFFFAOYSA-N

>  <PUBCHEM_XLOGP3_AA>
0.9

>  <PUBCHEM_EXACT_MASS>
478.148

>  <PUBCHEM_MOLECULAR_FORMULA>
C23H26O11

>  <PUBCHEM_MOLECULAR_WEIGHT>
478.45

>  <PUBCHEM_OPENEYE_CAN_SMILES>
COC1=C(C=C(C=C1)C2CC(=O)C3=C(C=C(C=C3O2)OC)O)OC4C(C(C(C(O4)CO)O)O)O

>  <PUBCHEM_OPENEYE_ISO_SMILES>
COC1=C(C=C(C=C1)C2CC(=O)C3=C(C=C(C=C3O2)OC)O)OC4C(C(C(C(O4)CO)O)O)O

>  <PUBCHEM_CACTVS_TPSA>
164

>  <PUBCHEM_MONOISOTOPIC_WEIGHT>
478.148

>  <PUBCHEM_TOTAL_CHARGE>
0

>  <PUBCHEM_HEAVY_ATOM_COUNT>
34

>  <PUBCHEM_ATOM_DEF_STEREO_COUNT>
0

>  <PUBCHEM_ATOM_UDEF_STEREO_COUNT>
6

>  <PUBCHEM_BOND_DEF_STEREO_COUNT>
0

>  <PUBCHEM_BOND_UDEF_STEREO_COUNT>
0

>  <PUBCHEM_ISOTOPIC_ATOM_COUNT>
0

>  <PUBCHEM_COMPONENT_COUNT>
1

>  <PUBCHEM_CACTVS_TAUTO_COUNT>
9

>  <PUBCHEM_COORDINATE_TYPE>
1
5
255

>  <PUBCHEM_BONDANNOTATIONS>
15  17  3
18  22  8
18  23  8
19  20  3
16  2  3
20  22  8
20  24  8
23  28  8
24  28  8
26  27  8
26  29  8
27  30  8
29  32  8
12  3  3
30  31  8
31  32  8
13  4  3
14  5  3

$$$$
