74978547
 OpenBabel06101807152D

 80 84  0  0  1  0  0  0  0  0999 V2000
    6.9343   -0.3450    0.0000 O   0  0  0  0  0  0  0  0  0  0  0  0
    6.0682   -2.8450    0.0000 O   0  0  0  0  0  0  0  0  0  0  0  0
    4.3362   -2.8450    0.0000 O   0  0  0  0  0  0  0  0  0  0  0  0
    7.8003   -2.8450    0.0000 O   0  0  0  0  0  0  0  0  0  0  0  0
    9.5323   -1.8450    0.0000 O   0  0  0  0  0  0  0  0  0  0  0  0
    7.8003    1.1550    0.0000 O   0  0  0  0  0  0  0  0  0  0  0  0
    9.5323    0.1550    0.0000 O   0  0  0  0  0  0  0  0  0  0  0  0
    6.0682   -4.8450    0.0000 O   0  0  0  0  0  0  0  0  0  0  0  0
    4.3362   -5.8450    0.0000 O   0  0  0  0  0  0  0  0  0  0  0  0
    2.6042   -4.8450    0.0000 O   0  0  0  0  0  0  0  0  0  0  0  0
    6.0682    3.1550    0.0000 O   0  0  0  0  0  0  0  0  0  0  0  0
    6.0682    0.1550    0.0000 O   0  0  0  0  0  0  0  0  0  0  0  0
    4.3198    4.1896    0.0000 O   0  0  0  0  0  0  0  0  0  0  0  0
    4.3198    0.1204    0.0000 O   0  0  0  0  0  0  0  0  0  0  0  0
    2.5381    3.1792    0.0000 O   0  0  0  0  0  0  0  0  0  0  0  0
    8.6663    5.6550    0.0000 O   0  0  0  0  0  0  0  0  0  0  0  0
   10.3984    4.6550    0.0000 O   0  0  0  0  0  0  0  0  0  0  0  0
    6.9343   -1.3450    0.0000 C   0  0  3  0  0  0  0  0  0  0  0  0
    7.8003   -1.8450    0.0000 C   0  0  3  0  0  0  0  0  0  0  0  0
    8.6663   -1.3450    0.0000 C   0  0  3  0  0  0  0  0  0  0  0  0
    8.6663   -0.3450    0.0000 C   0  0  3  0  0  0  0  0  0  0  0  0
    5.2022   -4.3450    0.0000 C   0  0  3  0  0  0  0  0  0  0  0  0
    5.2022   -3.3450    0.0000 C   0  0  3  0  0  0  0  0  0  0  0  0
    4.3362   -4.8450    0.0000 C   0  0  3  0  0  0  0  0  0  0  0  0
    3.4702   -4.3450    0.0000 C   0  0  3  0  0  0  0  0  0  0  0  0
    7.8003    0.1550    0.0000 C   0  0  3  0  0  0  0  0  0  0  0  0
    6.0682   -1.8450    0.0000 C   0  0  0  0  0  0  0  0  0  0  0  0
    3.4702   -3.3450    0.0000 C   0  0  3  0  0  0  0  0  0  0  0  0
    2.6042   -2.8450    0.0000 C   0  0  0  0  0  0  0  0  0  0  0  0
    6.9343    1.6550    0.0000 C   0  0  0  0  0  0  0  0  0  0  0  0
    6.9343    2.6550    0.0000 C   0  0  0  0  0  0  0  0  0  0  0  0
    6.0682    1.1550    0.0000 C   0  0  0  0  0  0  0  0  0  0  0  0
    5.2022    1.6550    0.0000 C   0  0  0  0  0  0  0  0  0  0  0  0
    5.2022    2.6550    0.0000 C   0  0  0  0  0  0  0  0  0  0  0  0
    7.8003    3.1550    0.0000 C   0  0  0  0  0  0  0  0  0  0  0  0
    4.3083    1.1203    0.0000 C   0  0  0  0  0  0  0  0  0  0  0  0
    4.3083    3.1897    0.0000 C   0  0  0  0  0  0  0  0  0  0  0  0
    7.8003    4.1550    0.0000 C   0  0  0  0  0  0  0  0  0  0  0  0
    8.6663    2.6550    0.0000 C   0  0  0  0  0  0  0  0  0  0  0  0
    3.4022    1.6342    0.0000 C   0  0  0  0  0  0  0  0  0  0  0  0
    3.4022    2.6758    0.0000 C   0  0  0  0  0  0  0  0  0  0  0  0
    8.6663    4.6550    0.0000 C   0  0  0  0  0  0  0  0  0  0  0  0
    9.5323    3.1550    0.0000 C   0  0  0  0  0  0  0  0  0  0  0  0
    9.5323    4.1550    0.0000 C   0  0  0  0  0  0  0  0  0  0  0  0
    3.4597    4.6996    0.0000 C   0  0  0  0  0  0  0  0  0  0  0  0
    7.8003    6.1550    0.0000 C   0  0  0  0  0  0  0  0  0  0  0  0
    6.3973   -1.0350    0.0000 H   0  0  0  0  0  0  0  0  0  0  0  0
    8.3372   -2.1550    0.0000 H   0  0  0  0  0  0  0  0  0  0  0  0
    9.2033   -1.0350    0.0000 H   0  0  0  0  0  0  0  0  0  0  0  0
    8.6663    0.2750    0.0000 H   0  0  0  0  0  0  0  0  0  0  0  0
    5.7392   -4.0350    0.0000 H   0  0  0  0  0  0  0  0  0  0  0  0
    5.2022   -2.7250    0.0000 H   0  0  0  0  0  0  0  0  0  0  0  0
    3.7993   -5.1550    0.0000 H   0  0  0  0  0  0  0  0  0  0  0  0
    2.9332   -4.0350    0.0000 H   0  0  0  0  0  0  0  0  0  0  0  0
    7.2634    0.4650    0.0000 H   0  0  0  0  0  0  0  0  0  0  0  0
    5.8562   -1.2624    0.0000 H   0  0  0  0  0  0  0  0  0  0  0  0
    5.4577   -1.9527    0.0000 H   0  0  0  0  0  0  0  0  0  0  0  0
    3.4702   -2.7250    0.0000 H   0  0  0  0  0  0  0  0  0  0  0  0
    2.9141   -2.3081    0.0000 H   0  0  0  0  0  0  0  0  0  0  0  0
    2.0672   -2.5350    0.0000 H   0  0  0  0  0  0  0  0  0  0  0  0
    2.2942   -3.3819    0.0000 H   0  0  0  0  0  0  0  0  0  0  0  0
    7.2634   -3.1550    0.0000 H   0  0  0  0  0  0  0  0  0  0  0  0
    9.5323   -2.4650    0.0000 H   0  0  0  0  0  0  0  0  0  0  0  0
   10.0693   -0.1550    0.0000 H   0  0  0  0  0  0  0  0  0  0  0  0
    6.6052   -4.5350    0.0000 H   0  0  0  0  0  0  0  0  0  0  0  0
    3.7993   -6.1550    0.0000 H   0  0  0  0  0  0  0  0  0  0  0  0
    2.0672   -4.5350    0.0000 H   0  0  0  0  0  0  0  0  0  0  0  0
    7.2634    4.4650    0.0000 H   0  0  0  0  0  0  0  0  0  0  0  0
    8.6663    2.0350    0.0000 H   0  0  0  0  0  0  0  0  0  0  0  0
    2.8665    1.3221    0.0000 H   0  0  0  0  0  0  0  0  0  0  0  0
   10.0693    2.8450    0.0000 H   0  0  0  0  0  0  0  0  0  0  0  0
    3.7865   -0.1958    0.0000 H   0  0  0  0  0  0  0  0  0  0  0  0
    2.0000    2.8712    0.0000 H   0  0  0  0  0  0  0  0  0  0  0  0
    3.7758    5.2329    0.0000 H   0  0  0  0  0  0  0  0  0  0  0  0
    2.9263    5.0158    0.0000 H   0  0  0  0  0  0  0  0  0  0  0  0
    3.1435    4.1663    0.0000 H   0  0  0  0  0  0  0  0  0  0  0  0
   10.3984    5.2750    0.0000 H   0  0  0  0  0  0  0  0  0  0  0  0
    8.1103    6.6919    0.0000 H   0  0  0  0  0  0  0  0  0  0  0  0
    7.2634    6.4650    0.0000 H   0  0  0  0  0  0  0  0  0  0  0  0
    7.4903    5.6181    0.0000 H   0  0  0  0  0  0  0  0  0  0  0  0
  1 18  1  0  0  0  0
  1 26  1  0  0  0  0
  2 23  1  0  0  0  0
  2 27  1  0  0  0  0
  3 23  1  0  0  0  0
  3 28  1  0  0  0  0
  4 19  1  0  0  0  0
  4 62  1  0  0  0  0
  5 20  1  0  0  0  0
  5 63  1  0  0  0  0
  6 26  1  0  0  0  0
  6 30  1  0  0  0  0
  7 21  1  0  0  0  0
  7 64  1  0  0  0  0
  8 22  1  0  0  0  0
  8 65  1  0  0  0  0
  9 24  1  0  0  0  0
  9 66  1  0  0  0  0
 10 25  1  0  0  0  0
 10 67  1  0  0  0  0
 11 31  1  0  0  0  0
 11 34  1  0  0  0  0
 12 32  2  0  0  0  0
 13 37  1  0  0  0  0
 13 45  1  0  0  0  0
 14 36  1  0  0  0  0
 14 72  1  0  0  0  0
 15 41  1  0  0  0  0
 15 73  1  0  0  0  0
 16 42  1  0  0  0  0
 16 46  1  0  0  0  0
 17 44  1  0  0  0  0
 17 77  1  0  0  0  0
 18 19  1  0  0  0  0
 18 27  1  0  0  0  0
 18 47  1  0  0  0  0
 19 20  1  0  0  0  0
 19 48  1  0  0  0  0
 20 21  1  0  0  0  0
 20 49  1  0  0  0  0
 21 26  1  0  0  0  0
 21 50  1  0  0  0  0
 22 23  1  0  0  0  0
 22 24  1  0  0  0  0
 22 51  1  0  0  0  0
 23 52  1  0  0  0  0
 24 25  1  0  0  0  0
 24 53  1  0  0  0  0
 25 28  1  0  0  0  0
 25 54  1  0  0  0  0
 26 55  1  0  0  0  0
 27 56  1  0  0  0  0
 27 57  1  0  0  0  0
 28 29  1  0  0  0  0
 28 58  1  0  0  0  0
 29 59  1  0  0  0  0
 29 60  1  0  0  0  0
 29 61  1  0  0  0  0
 30 31  2  0  0  0  0
 30 32  1  0  0  0  0
 31 35  1  0  0  0  0
 32 33  1  0  0  0  0
 33 34  2  0  0  0  0
 33 36  1  0  0  0  0
 34 37  1  0  0  0  0
 35 38  2  0  0  0  0
 35 39  1  0  0  0  0
 36 40  2  0  0  0  0
 37 41  2  0  0  0  0
 38 42  1  0  0  0  0
 38 68  1  0  0  0  0
 39 43  2  0  0  0  0
 39 69  1  0  0  0  0
 40 41  1  0  0  0  0
 40 70  1  0  0  0  0
 42 44  2  0  0  0  0
 43 44  1  0  0  0  0
 43 71  1  0  0  0  0
 45 74  1  0  0  0  0
 45 75  1  0  0  0  0
 45 76  1  0  0  0  0
 46 78  1  0  0  0  0
 46 79  1  0  0  0  0
 46 80  1  0  0  0  0
M  END
>  <PUBCHEM_COMPOUND_CID>
74978547

>  <PUBCHEM_COMPOUND_CANONICALIZED>
1

>  <PUBCHEM_CACTVS_COMPLEXITY>
1090

>  <PUBCHEM_CACTVS_HBOND_ACCEPTOR>
17

>  <PUBCHEM_CACTVS_HBOND_DONOR>
9

>  <PUBCHEM_CACTVS_ROTATABLE_BOND>
8

>  <PUBCHEM_CACTVS_SUBSKEYS>
AAADcfB4PgAAAAAAAAAAAAAAAAAAAAAAAAA0aIECAAAAAACBQAAAGgAACAAADBSwmAMyDoAABgCIAqBSAAICCAAkIAAIiAFGiMgdNzaGNR6ieWOl4BUPuQfK7LzOIQABCAAIQABCAAIQABCAAAAAAAAAAA==

>  <PUBCHEM_IUPAC_OPENEYE_NAME>
5,7-dihydroxy-2-(4-hydroxy-3-methoxy-phenyl)-8-methoxy-3-[3,4,5-trihydroxy-6-[(3,4,5-trihydroxy-6-methyl-tetrahydropyran-2-yl)oxymethyl]tetrahydropyran-2-yl]oxy-chromen-4-one

>  <PUBCHEM_IUPAC_CAS_NAME>
5,7-dihydroxy-2-(4-hydroxy-3-methoxyphenyl)-8-methoxy-3-[[3,4,5-trihydroxy-6-[(3,4,5-trihydroxy-6-methyl-2-oxanyl)oxymethyl]-2-oxanyl]oxy]-1-benzopyran-4-one

>  <PUBCHEM_IUPAC_NAME>
5,7-dihydroxy-2-(4-hydroxy-3-methoxyphenyl)-8-methoxy-3-[3,4,5-trihydroxy-6-[(3,4,5-trihydroxy-6-methyloxan-2-yl)oxymethyl]oxan-2-yl]oxychromen-4-one

>  <PUBCHEM_IUPAC_SYSTEMATIC_NAME>
8-methoxy-2-(3-methoxy-4-oxidanyl-phenyl)-3-[6-[[6-methyl-3,4,5-tris(oxidanyl)oxan-2-yl]oxymethyl]-3,4,5-tris(oxidanyl)oxan-2-yl]oxy-5,7-bis(oxidanyl)chromen-4-one

>  <PUBCHEM_IUPAC_TRADITIONAL_NAME>
5,7-dihydroxy-2-(4-hydroxy-3-methoxy-phenyl)-8-methoxy-3-[3,4,5-trihydroxy-6-[(3,4,5-trihydroxy-6-methyl-tetrahydropyran-2-yl)oxymethyl]tetrahydropyran-2-yl]oxy-chromone

>  <PUBCHEM_IUPAC_INCHI>
InChI=1S/C29H34O17/c1-9-17(33)20(36)22(38)28(43-9)42-8-15-18(34)21(37)23(39)29(44-15)46-27-19(35)16-12(31)7-13(32)25(41-3)26(16)45-24(27)10-4-5-11(30)14(6-10)40-2/h4-7,9,15,17-18,20-23,28-34,36-39H,8H2,1-3H3

>  <PUBCHEM_IUPAC_INCHIKEY>
SCMBTGLLYCNHPV-UHFFFAOYSA-N

>  <PUBCHEM_XLOGP3_AA>
-1

>  <PUBCHEM_EXACT_MASS>
654.18

>  <PUBCHEM_MOLECULAR_FORMULA>
C29H34O17

>  <PUBCHEM_MOLECULAR_WEIGHT>
654.574

>  <PUBCHEM_OPENEYE_CAN_SMILES>
CC1C(C(C(C(O1)OCC2C(C(C(C(O2)OC3=C(OC4=C(C3=O)C(=CC(=C4OC)O)O)C5=CC(=C(C=C5)O)OC)O)O)O)O)O)O

>  <PUBCHEM_OPENEYE_ISO_SMILES>
CC1C(C(C(C(O1)OCC2C(C(C(C(O2)OC3=C(OC4=C(C3=O)C(=CC(=C4OC)O)O)C5=CC(=C(C=C5)O)OC)O)O)O)O)O)O

>  <PUBCHEM_CACTVS_TPSA>
264

>  <PUBCHEM_MONOISOTOPIC_WEIGHT>
654.18

>  <PUBCHEM_TOTAL_CHARGE>
0

>  <PUBCHEM_HEAVY_ATOM_COUNT>
46

>  <PUBCHEM_ATOM_DEF_STEREO_COUNT>
0

>  <PUBCHEM_ATOM_UDEF_STEREO_COUNT>
10

>  <PUBCHEM_BOND_DEF_STEREO_COUNT>
0

>  <PUBCHEM_BOND_UDEF_STEREO_COUNT>
0

>  <PUBCHEM_ISOTOPIC_ATOM_COUNT>
0

>  <PUBCHEM_COMPONENT_COUNT>
1

>  <PUBCHEM_CACTVS_TAUTO_COUNT>
69

>  <PUBCHEM_COORDINATE_TYPE>
1
5
255

>  <PUBCHEM_BONDANNOTATIONS>
25  10  3
11  31  8
11  34  8
18  27  3
23  2  3
28  29  3
30  31  8
30  32  8
32  33  8
33  34  8
33  36  8
34  37  8
35  38  8
35  39  8
36  40  8
37  41  8
38  42  8
39  43  8
19  4  3
40  41  8
42  44  8
43  44  8
20  5  3
26  6  3
21  7  3
22  8  3
24  9  3

$$$$
