74977595
 OpenBabel06101807152D

 93 98  0  0  1  0  0  0  0  0999 V2000
   12.9292   -0.5219    0.0000 O   0  0  0  0  0  0  0  0  0  0  0  0
    8.5991   -2.0219    0.0000 O   0  0  0  0  0  0  0  0  0  0  0  0
   10.3312   -2.0219    0.0000 O   0  0  0  0  0  0  0  0  0  0  0  0
    6.0010   -2.5219    0.0000 O   0  0  0  0  0  0  0  0  0  0  0  0
    5.1350   -1.0219    0.0000 O   0  0  0  0  0  0  0  0  0  0  0  0
   11.1972   -2.5219    0.0000 O   0  0  0  0  0  0  0  0  0  0  0  0
    6.8671   -4.0219    0.0000 O   0  0  0  0  0  0  0  0  0  0  0  0
   12.9292   -3.5219    0.0000 O   0  0  0  0  0  0  0  0  0  0  0  0
    8.5991   -5.0219    0.0000 O   0  0  0  0  0  0  0  0  0  0  0  0
   14.6613   -2.5219    0.0000 O   0  0  0  0  0  0  0  0  0  0  0  0
   10.3312   -4.0219    0.0000 O   0  0  0  0  0  0  0  0  0  0  0  0
    4.2690   -3.5219    0.0000 O   0  0  0  0  0  0  0  0  0  0  0  0
    2.5369   -2.5219    0.0000 O   0  0  0  0  0  0  0  0  0  0  0  0
    2.5369   -0.5219    0.0000 O   0  0  0  0  0  0  0  0  0  0  0  0
   15.5273   -1.0219    0.0000 O   0  0  0  0  0  0  0  0  0  0  0  0
   12.0632    0.9781    0.0000 O   0  0  0  0  0  0  0  0  0  0  0  0
    8.5551    0.9849    0.0000 O   0  0  0  0  0  0  0  0  0  0  0  0
   11.2190    2.5096    0.0000 O   0  0  0  0  0  0  0  0  0  0  0  0
    6.8035    5.0198    0.0000 O   0  0  0  0  0  0  0  0  0  0  0  0
    5.0753    4.0132    0.0000 O   0  0  0  0  0  0  0  0  0  0  0  0
   12.0632   -1.0219    0.0000 C   0  0  3  0  0  0  0  0  0  0  0  0
    7.7331   -2.5219    0.0000 C   0  0  3  0  0  0  0  0  0  0  0  0
   12.0632   -2.0219    0.0000 C   0  0  3  0  0  0  0  0  0  0  0  0
    7.7331   -3.5219    0.0000 C   0  0  3  0  0  0  0  0  0  0  0  0
   12.9292   -2.5219    0.0000 C   0  0  3  0  0  0  0  0  0  0  0  0
    8.5991   -4.0219    0.0000 C   0  0  3  0  0  0  0  0  0  0  0  0
   13.7953   -2.0219    0.0000 C   0  0  3  0  0  0  0  0  0  0  0  0
    9.4651   -3.5219    0.0000 C   0  0  3  0  0  0  0  0  0  0  0  0
   13.7953   -1.0219    0.0000 C   0  0  3  0  0  0  0  0  0  0  0  0
    9.4651   -2.5219    0.0000 C   0  0  3  0  0  0  0  0  0  0  0  0
   11.1972   -0.5219    0.0000 C   0  0  0  0  0  0  0  0  0  0  0  0
    6.8671   -2.0219    0.0000 C   0  0  0  0  0  0  0  0  0  0  0  0
    5.1350   -2.0219    0.0000 C   0  0  3  0  0  0  0  0  0  0  0  0
    4.2690   -2.5219    0.0000 C   0  0  3  0  0  0  0  0  0  0  0  0
    3.4030   -2.0219    0.0000 C   0  0  3  0  0  0  0  0  0  0  0  0
    3.4030   -1.0219    0.0000 C   0  0  3  0  0  0  0  0  0  0  0  0
    4.2690   -0.5219    0.0000 C   0  0  3  0  0  0  0  0  0  0  0  0
   10.3312   -1.0219    0.0000 C   0  0  0  0  0  0  0  0  0  0  0  0
   14.6613   -0.5219    0.0000 C   0  0  0  0  0  0  0  0  0  0  0  0
   11.1972    0.4781    0.0000 C   0  0  0  0  0  0  0  0  0  0  0  0
    9.4651   -0.5219    0.0000 C   0  0  0  0  0  0  0  0  0  0  0  0
    4.2690    0.4781    0.0000 C   0  0  0  0  0  0  0  0  0  0  0  0
   10.3312    0.9781    0.0000 C   0  0  0  0  0  0  0  0  0  0  0  0
    9.4651    0.4781    0.0000 C   0  0  0  0  0  0  0  0  0  0  0  0
   10.3472    2.0196    0.0000 C   0  0  0  0  0  0  0  0  0  0  0  0
    9.4492    2.5473    0.0000 C   0  0  0  0  0  0  0  0  0  0  0  0
    8.5471    2.0265    0.0000 C   0  0  0  0  0  0  0  0  0  0  0  0
    7.6792    2.5232    0.0000 C   0  0  0  0  0  0  0  0  0  0  0  0
    7.6753    3.5232    0.0000 C   0  0  0  0  0  0  0  0  0  0  0  0
    6.8151    2.0199    0.0000 C   0  0  0  0  0  0  0  0  0  0  0  0
    6.8074    4.0198    0.0000 C   0  0  0  0  0  0  0  0  0  0  0  0
    5.9471    2.5165    0.0000 C   0  0  0  0  0  0  0  0  0  0  0  0
    5.9433    3.5165    0.0000 C   0  0  0  0  0  0  0  0  0  0  0  0
   11.5263   -1.3319    0.0000 H   0  0  0  0  0  0  0  0  0  0  0  0
    7.7331   -1.9019    0.0000 H   0  0  0  0  0  0  0  0  0  0  0  0
   12.6002   -1.7119    0.0000 H   0  0  0  0  0  0  0  0  0  0  0  0
    7.7331   -4.1419    0.0000 H   0  0  0  0  0  0  0  0  0  0  0  0
   12.3923   -2.8319    0.0000 H   0  0  0  0  0  0  0  0  0  0  0  0
    9.1360   -4.3319    0.0000 H   0  0  0  0  0  0  0  0  0  0  0  0
   14.3322   -1.7119    0.0000 H   0  0  0  0  0  0  0  0  0  0  0  0
   10.0021   -3.2119    0.0000 H   0  0  0  0  0  0  0  0  0  0  0  0
   13.7953   -0.4019    0.0000 H   0  0  0  0  0  0  0  0  0  0  0  0
    9.4651   -1.9019    0.0000 H   0  0  0  0  0  0  0  0  0  0  0  0
    7.2656   -1.5470    0.0000 H   0  0  0  0  0  0  0  0  0  0  0  0
    6.4685   -1.5470    0.0000 H   0  0  0  0  0  0  0  0  0  0  0  0
    5.1350   -2.6419    0.0000 H   0  0  0  0  0  0  0  0  0  0  0  0
    3.7320   -2.8319    0.0000 H   0  0  0  0  0  0  0  0  0  0  0  0
    2.8660   -1.7119    0.0000 H   0  0  0  0  0  0  0  0  0  0  0  0
    3.4030   -0.4019    0.0000 H   0  0  0  0  0  0  0  0  0  0  0  0
    4.8059   -0.2119    0.0000 H   0  0  0  0  0  0  0  0  0  0  0  0
   15.0598   -0.0470    0.0000 H   0  0  0  0  0  0  0  0  0  0  0  0
   14.2628   -0.0470    0.0000 H   0  0  0  0  0  0  0  0  0  0  0  0
   11.1972   -3.1419    0.0000 H   0  0  0  0  0  0  0  0  0  0  0  0
    6.8671   -4.6419    0.0000 H   0  0  0  0  0  0  0  0  0  0  0  0
    8.9282   -0.8319    0.0000 H   0  0  0  0  0  0  0  0  0  0  0  0
   13.4662   -3.8319    0.0000 H   0  0  0  0  0  0  0  0  0  0  0  0
    8.0622   -5.3319    0.0000 H   0  0  0  0  0  0  0  0  0  0  0  0
    4.8890    0.4781    0.0000 H   0  0  0  0  0  0  0  0  0  0  0  0
    4.2690    1.0981    0.0000 H   0  0  0  0  0  0  0  0  0  0  0  0
    3.6490    0.4781    0.0000 H   0  0  0  0  0  0  0  0  0  0  0  0
   14.6613   -3.1419    0.0000 H   0  0  0  0  0  0  0  0  0  0  0  0
   10.3312   -4.6419    0.0000 H   0  0  0  0  0  0  0  0  0  0  0  0
    3.7320   -3.8319    0.0000 H   0  0  0  0  0  0  0  0  0  0  0  0
    2.0000   -2.2119    0.0000 H   0  0  0  0  0  0  0  0  0  0  0  0
    2.5369    0.0981    0.0000 H   0  0  0  0  0  0  0  0  0  0  0  0
   16.0643   -0.7119    0.0000 H   0  0  0  0  0  0  0  0  0  0  0  0
   12.0632    1.5981    0.0000 H   0  0  0  0  0  0  0  0  0  0  0  0
    9.4516    3.1674    0.0000 H   0  0  0  0  0  0  0  0  0  0  0  0
    8.2110    3.8353    0.0000 H   0  0  0  0  0  0  0  0  0  0  0  0
    6.8175    1.3999    0.0000 H   0  0  0  0  0  0  0  0  0  0  0  0
    5.4114    2.2044    0.0000 H   0  0  0  0  0  0  0  0  0  0  0  0
    7.3392    5.3319    0.0000 H   0  0  0  0  0  0  0  0  0  0  0  0
    4.5396    3.7011    0.0000 H   0  0  0  0  0  0  0  0  0  0  0  0
  1 21  1  0  0  0  0
  1 29  1  0  0  0  0
  2 22  1  0  0  0  0
  2 30  1  0  0  0  0
  3 30  1  0  0  0  0
  3 38  1  0  0  0  0
  4 32  1  0  0  0  0
  4 33  1  0  0  0  0
  5 33  1  0  0  0  0
  5 37  1  0  0  0  0
  6 23  1  0  0  0  0
  6 73  1  0  0  0  0
  7 24  1  0  0  0  0
  7 74  1  0  0  0  0
  8 25  1  0  0  0  0
  8 76  1  0  0  0  0
  9 26  1  0  0  0  0
  9 77  1  0  0  0  0
 10 27  1  0  0  0  0
 10 81  1  0  0  0  0
 11 28  1  0  0  0  0
 11 82  1  0  0  0  0
 12 34  1  0  0  0  0
 12 83  1  0  0  0  0
 13 35  1  0  0  0  0
 13 84  1  0  0  0  0
 14 36  1  0  0  0  0
 14 85  1  0  0  0  0
 15 39  1  0  0  0  0
 15 86  1  0  0  0  0
 16 40  1  0  0  0  0
 16 87  1  0  0  0  0
 17 44  1  0  0  0  0
 17 47  1  0  0  0  0
 18 45  2  0  0  0  0
 19 51  1  0  0  0  0
 19 92  1  0  0  0  0
 20 53  1  0  0  0  0
 20 93  1  0  0  0  0
 21 23  1  0  0  0  0
 21 31  1  0  0  0  0
 21 54  1  0  0  0  0
 22 24  1  0  0  0  0
 22 32  1  0  0  0  0
 22 55  1  0  0  0  0
 23 25  1  0  0  0  0
 23 56  1  0  0  0  0
 24 26  1  0  0  0  0
 24 57  1  0  0  0  0
 25 27  1  0  0  0  0
 25 58  1  0  0  0  0
 26 28  1  0  0  0  0
 26 59  1  0  0  0  0
 27 29  1  0  0  0  0
 27 60  1  0  0  0  0
 28 30  1  0  0  0  0
 28 61  1  0  0  0  0
 29 39  1  0  0  0  0
 29 62  1  0  0  0  0
 30 63  1  0  0  0  0
 31 38  2  0  0  0  0
 31 40  1  0  0  0  0
 32 64  1  0  0  0  0
 32 65  1  0  0  0  0
 33 34  1  0  0  0  0
 33 66  1  0  0  0  0
 34 35  1  0  0  0  0
 34 67  1  0  0  0  0
 35 36  1  0  0  0  0
 35 68  1  0  0  0  0
 36 37  1  0  0  0  0
 36 69  1  0  0  0  0
 37 42  1  0  0  0  0
 37 70  1  0  0  0  0
 38 41  1  0  0  0  0
 39 71  1  0  0  0  0
 39 72  1  0  0  0  0
 40 43  2  0  0  0  0
 41 44  2  0  0  0  0
 41 75  1  0  0  0  0
 42 78  1  0  0  0  0
 42 79  1  0  0  0  0
 42 80  1  0  0  0  0
 43 44  1  0  0  0  0
 43 45  1  0  0  0  0
 45 46  1  0  0  0  0
 46 47  2  0  0  0  0
 46 88  1  0  0  0  0
 47 48  1  0  0  0  0
 48 49  2  0  0  0  0
 48 50  1  0  0  0  0
 49 51  1  0  0  0  0
 49 89  1  0  0  0  0
 50 52  2  0  0  0  0
 50 90  1  0  0  0  0
 51 53  2  0  0  0  0
 52 53  1  0  0  0  0
 52 91  1  0  0  0  0
M  END
>  <PUBCHEM_COMPOUND_CID>
74977595

>  <PUBCHEM_COMPOUND_CANONICALIZED>
1

>  <PUBCHEM_CACTVS_COMPLEXITY>
1290

>  <PUBCHEM_CACTVS_HBOND_ACCEPTOR>
20

>  <PUBCHEM_CACTVS_HBOND_DONOR>
13

>  <PUBCHEM_CACTVS_ROTATABLE_BOND>
8

>  <PUBCHEM_CACTVS_SUBSKEYS>
AAADcfB8PgAAAAAAAAAAAAAAAAAAAAAAAAA0aJECAAAAAACBQAAAGgAACAAADBSwmAMyDoAABgCIAqBSAAACCAAkIAAIiAEGiMgdNzaGNRqieWGl4BUPuQfI7PzOIAADCAAIQABAAAYQABCAAAAAAAAAAA==

>  <PUBCHEM_IUPAC_OPENEYE_NAME>
2-(3,4-dihydroxyphenyl)-5-hydroxy-6-[3,4,5-trihydroxy-6-(hydroxymethyl)tetrahydropyran-2-yl]-7-[3,4,5-trihydroxy-6-[(3,4,5-trihydroxy-6-methyl-tetrahydropyran-2-yl)oxymethyl]tetrahydropyran-2-yl]oxy-chromen-4-one

>  <PUBCHEM_IUPAC_CAS_NAME>
2-(3,4-dihydroxyphenyl)-5-hydroxy-6-[3,4,5-trihydroxy-6-(hydroxymethyl)-2-oxanyl]-7-[[3,4,5-trihydroxy-6-[(3,4,5-trihydroxy-6-methyl-2-oxanyl)oxymethyl]-2-oxanyl]oxy]-1-benzopyran-4-one

>  <PUBCHEM_IUPAC_NAME>
2-(3,4-dihydroxyphenyl)-5-hydroxy-6-[3,4,5-trihydroxy-6-(hydroxymethyl)oxan-2-yl]-7-[3,4,5-trihydroxy-6-[(3,4,5-trihydroxy-6-methyloxan-2-yl)oxymethyl]oxan-2-yl]oxychromen-4-one

>  <PUBCHEM_IUPAC_SYSTEMATIC_NAME>
2-[3,4-bis(oxidanyl)phenyl]-6-[6-(hydroxymethyl)-3,4,5-tris(oxidanyl)oxan-2-yl]-7-[6-[[6-methyl-3,4,5-tris(oxidanyl)oxan-2-yl]oxymethyl]-3,4,5-tris(oxidanyl)oxan-2-yl]oxy-5-oxidanyl-chromen-4-one

>  <PUBCHEM_IUPAC_TRADITIONAL_NAME>
2-(3,4-dihydroxyphenyl)-5-hydroxy-6-(3,4,5-trihydroxy-6-methylol-tetrahydropyran-2-yl)-7-[3,4,5-trihydroxy-6-[(3,4,5-trihydroxy-6-methyl-tetrahydropyran-2-yl)oxymethyl]tetrahydropyran-2-yl]oxy-chromone

>  <PUBCHEM_IUPAC_INCHI>
InChI=1S/C33H40O20/c1-9-21(38)25(42)29(46)32(49-9)48-8-18-23(40)27(44)30(47)33(53-18)52-16-6-15-19(13(37)5-14(50-15)10-2-3-11(35)12(36)4-10)24(41)20(16)31-28(45)26(43)22(39)17(7-34)51-31/h2-6,9,17-18,21-23,25-36,38-47H,7-8H2,1H3

>  <PUBCHEM_IUPAC_INCHIKEY>
LHMSJZLSCNPWNJ-UHFFFAOYSA-N

>  <PUBCHEM_XLOGP3_AA>
-3.6

>  <PUBCHEM_EXACT_MASS>
756.211

>  <PUBCHEM_MOLECULAR_FORMULA>
C33H40O20

>  <PUBCHEM_MOLECULAR_WEIGHT>
756.663

>  <PUBCHEM_OPENEYE_CAN_SMILES>
CC1C(C(C(C(O1)OCC2C(C(C(C(O2)OC3=C(C(=C4C(=C3)OC(=CC4=O)C5=CC(=C(C=C5)O)O)O)C6C(C(C(C(O6)CO)O)O)O)O)O)O)O)O)O

>  <PUBCHEM_OPENEYE_ISO_SMILES>
CC1C(C(C(C(O1)OCC2C(C(C(C(O2)OC3=C(C(=C4C(=C3)OC(=CC4=O)C5=CC(=C(C=C5)O)O)O)C6C(C(C(C(O6)CO)O)O)O)O)O)O)O)O)O

>  <PUBCHEM_CACTVS_TPSA>
335

>  <PUBCHEM_MONOISOTOPIC_WEIGHT>
756.211

>  <PUBCHEM_TOTAL_CHARGE>
0

>  <PUBCHEM_HEAVY_ATOM_COUNT>
53

>  <PUBCHEM_ATOM_DEF_STEREO_COUNT>
0

>  <PUBCHEM_ATOM_UDEF_STEREO_COUNT>
15

>  <PUBCHEM_BOND_DEF_STEREO_COUNT>
0

>  <PUBCHEM_BOND_UDEF_STEREO_COUNT>
0

>  <PUBCHEM_ISOTOPIC_ATOM_COUNT>
0

>  <PUBCHEM_COMPONENT_COUNT>
1

>  <PUBCHEM_CACTVS_TAUTO_COUNT>
68

>  <PUBCHEM_COORDINATE_TYPE>
1
5
255

>  <PUBCHEM_BONDANNOTATIONS>
27  10  3
28  11  3
34  12  3
35  13  3
36  14  3
17  44  8
17  47  8
21  31  3
22  32  3
29  39  3
30  3  3
31  38  8
31  40  8
37  42  3
38  41  8
33  4  3
40  43  8
41  44  8
43  44  8
43  45  8
45  46  8
46  47  8
48  49  8
48  50  8
49  51  8
50  52  8
51  53  8
52  53  8
23  6  3
24  7  3
25  8  3
26  9  3

$$$$
