74976916
 OpenBabel06101807152D

114120  0  0  1  0  0  0  0  0999 V2000
   13.2583   -1.3737    0.0000 O   0  0  0  0  0  0  0  0  0  0  0  0
    9.7942   -2.3737    0.0000 O   0  0  0  0  0  0  0  0  0  0  0  0
   11.5263   -2.3737    0.0000 O   0  0  0  0  0  0  0  0  0  0  0  0
   11.5263    0.6263    0.0000 O   0  0  0  0  0  0  0  0  0  0  0  0
    8.0622   -4.3737    0.0000 O   0  0  0  0  0  0  0  0  0  0  0  0
   14.9904   -1.3737    0.0000 O   0  0  0  0  0  0  0  0  0  0  0  0
   13.2583    1.6263    0.0000 O   0  0  0  0  0  0  0  0  0  0  0  0
    9.7942   -5.3737    0.0000 O   0  0  0  0  0  0  0  0  0  0  0  0
   11.5263   -4.3737    0.0000 O   0  0  0  0  0  0  0  0  0  0  0  0
   14.9904    0.6263    0.0000 O   0  0  0  0  0  0  0  0  0  0  0  0
   16.6832    3.6677    0.0000 O   0  0  0  0  0  0  0  0  0  0  0  0
   15.8346    2.1578    0.0000 O   0  0  0  0  0  0  0  0  0  0  0  0
   14.0680    5.1375    0.0000 O   0  0  0  0  0  0  0  0  0  0  0  0
   15.7884    6.1575    0.0000 O   0  0  0  0  0  0  0  0  0  0  0  0
   14.0911    3.1377    0.0000 O   0  0  0  0  0  0  0  0  0  0  0  0
   17.5885   -0.8737    0.0000 O   0  3  0  0  0  0  0  0  0  0  0  0
   17.5203    6.1775    0.0000 O   0  0  0  0  0  0  0  0  0  0  0  0
    7.1962   -2.8737    0.0000 O   0  0  0  0  0  0  0  0  0  0  0  0
   19.3744    2.1714    0.0000 O   0  0  0  0  0  0  0  0  0  0  0  0
   16.7224   -5.3737    0.0000 O   0  0  0  0  0  0  0  0  0  0  0  0
    2.0000   -3.8737    0.0000 O   0  0  0  0  0  0  0  0  0  0  0  0
    2.0000   -5.8737    0.0000 O   0  0  0  0  0  0  0  0  0  0  0  0
   12.3923   -0.8737    0.0000 C   0  0  3  0  0  0  0  0  0  0  0  0
   12.3923    0.1263    0.0000 C   0  0  3  0  0  0  0  0  0  0  0  0
   13.2583    0.6263    0.0000 C   0  0  3  0  0  0  0  0  0  0  0  0
    9.7942   -4.3737    0.0000 C   0  0  3  0  0  0  0  0  0  0  0  0
   10.6603   -3.8737    0.0000 C   0  0  3  0  0  0  0  0  0  0  0  0
    8.9282   -3.8737    0.0000 C   0  0  3  0  0  0  0  0  0  0  0  0
   10.6603   -2.8737    0.0000 C   0  0  3  0  0  0  0  0  0  0  0  0
   14.1244    0.1263    0.0000 C   0  0  3  0  0  0  0  0  0  0  0  0
    8.9282   -2.8737    0.0000 C   0  0  3  0  0  0  0  0  0  0  0  0
   14.1244   -0.8737    0.0000 C   0  0  3  0  0  0  0  0  0  0  0  0
   11.5263   -1.3737    0.0000 C   0  0  0  0  0  0  0  0  0  0  0  0
   14.9397    4.6476    0.0000 C   0  0  3  0  0  0  0  0  0  0  0  0
   15.7999    5.1575    0.0000 C   0  0  3  0  0  0  0  0  0  0  0  0
    8.0622   -2.3737    0.0000 C   0  0  0  0  0  0  0  0  0  0  0  0
   14.9513    3.6476    0.0000 C   0  0  3  0  0  0  0  0  0  0  0  0
   16.6717    4.6676    0.0000 C   0  0  3  0  0  0  0  0  0  0  0  0
   15.8231    3.1577    0.0000 C   0  0  3  0  0  0  0  0  0  0  0  0
   17.5319    5.1776    0.0000 C   0  0  0  0  0  0  0  0  0  0  0  0
   15.8564   -0.8737    0.0000 C   0  0  0  0  0  0  0  0  0  0  0  0
   16.7224    0.6263    0.0000 C   0  0  0  0  0  0  0  0  0  0  0  0
   16.7064    1.6678    0.0000 C   0  0  0  0  0  0  0  0  0  0  0  0
   15.8564    0.1263    0.0000 C   0  0  0  0  0  0  0  0  0  0  0  0
    7.1962   -3.8737    0.0000 C   0  0  0  0  0  0  0  0  0  0  0  0
   16.7224   -1.3737    0.0000 C   0  0  0  0  0  0  0  0  0  0  0  0
   17.5885    0.1263    0.0000 C   0  0  0  0  0  0  0  0  0  0  0  0
   17.6044    2.1956    0.0000 C   0  0  0  0  0  0  0  0  0  0  0  0
   16.7224   -2.3737    0.0000 C   0  0  0  0  0  0  0  0  0  0  0  0
   18.4985    0.6331    0.0000 C   0  0  0  0  0  0  0  0  0  0  0  0
    6.3301   -4.3737    0.0000 C   0  0  0  0  0  0  0  0  0  0  0  0
   18.5065    1.6747    0.0000 C   0  0  0  0  0  0  0  0  0  0  0  0
   17.5885   -2.8737    0.0000 C   0  0  0  0  0  0  0  0  0  0  0  0
   15.8564   -2.8737    0.0000 C   0  0  0  0  0  0  0  0  0  0  0  0
    5.4641   -3.8737    0.0000 C   0  0  0  0  0  0  0  0  0  0  0  0
   17.5885   -3.8737    0.0000 C   0  0  0  0  0  0  0  0  0  0  0  0
   15.8564   -3.8737    0.0000 C   0  0  0  0  0  0  0  0  0  0  0  0
    4.5981   -4.3737    0.0000 C   0  0  0  0  0  0  0  0  0  0  0  0
   16.7224   -4.3737    0.0000 C   0  0  0  0  0  0  0  0  0  0  0  0
    3.7320   -3.8737    0.0000 C   0  0  0  0  0  0  0  0  0  0  0  0
    4.5981   -5.3737    0.0000 C   0  0  0  0  0  0  0  0  0  0  0  0
    2.8660   -4.3737    0.0000 C   0  0  0  0  0  0  0  0  0  0  0  0
    3.7320   -5.8737    0.0000 C   0  0  0  0  0  0  0  0  0  0  0  0
    2.8660   -5.3737    0.0000 C   0  0  0  0  0  0  0  0  0  0  0  0
    2.0000   -2.8737    0.0000 C   0  0  0  0  0  0  0  0  0  0  0  0
   12.3923   -1.4937    0.0000 H   0  0  0  0  0  0  0  0  0  0  0  0
   12.3923    0.7463    0.0000 H   0  0  0  0  0  0  0  0  0  0  0  0
   13.7953    0.9363    0.0000 H   0  0  0  0  0  0  0  0  0  0  0  0
    9.2573   -4.6837    0.0000 H   0  0  0  0  0  0  0  0  0  0  0  0
   10.6603   -4.4937    0.0000 H   0  0  0  0  0  0  0  0  0  0  0  0
    8.3913   -3.5637    0.0000 H   0  0  0  0  0  0  0  0  0  0  0  0
   11.1972   -3.1837    0.0000 H   0  0  0  0  0  0  0  0  0  0  0  0
   14.6613   -0.1837    0.0000 H   0  0  0  0  0  0  0  0  0  0  0  0
    8.9282   -2.2537    0.0000 H   0  0  0  0  0  0  0  0  0  0  0  0
   14.1244   -1.4937    0.0000 H   0  0  0  0  0  0  0  0  0  0  0  0
   11.3142   -0.7911    0.0000 H   0  0  0  0  0  0  0  0  0  0  0  0
   10.9157   -1.4814    0.0000 H   0  0  0  0  0  0  0  0  0  0  0  0
   14.4064    4.3314    0.0000 H   0  0  0  0  0  0  0  0  0  0  0  0
   15.2594    5.4613    0.0000 H   0  0  0  0  0  0  0  0  0  0  0  0
   15.4846    3.9638    0.0000 H   0  0  0  0  0  0  0  0  0  0  0  0
    8.3722   -1.8368    0.0000 H   0  0  0  0  0  0  0  0  0  0  0  0
    7.5252   -2.0637    0.0000 H   0  0  0  0  0  0  0  0  0  0  0  0
    7.7522   -2.9106    0.0000 H   0  0  0  0  0  0  0  0  0  0  0  0
   17.2122    4.3638    0.0000 H   0  0  0  0  0  0  0  0  0  0  0  0
   15.2897    2.8415    0.0000 H   0  0  0  0  0  0  0  0  0  0  0  0
   10.9893    0.3163    0.0000 H   0  0  0  0  0  0  0  0  0  0  0  0
   12.7214    1.9363    0.0000 H   0  0  0  0  0  0  0  0  0  0  0  0
   10.3312   -5.6837    0.0000 H   0  0  0  0  0  0  0  0  0  0  0  0
   12.0632   -4.0637    0.0000 H   0  0  0  0  0  0  0  0  0  0  0  0
   14.9904    1.2463    0.0000 H   0  0  0  0  0  0  0  0  0  0  0  0
   17.7506    4.5975    0.0000 H   0  0  0  0  0  0  0  0  0  0  0  0
   18.1412    5.2923    0.0000 H   0  0  0  0  0  0  0  0  0  0  0  0
   14.0608    5.7575    0.0000 H   0  0  0  0  0  0  0  0  0  0  0  0
   15.2479    6.4613    0.0000 H   0  0  0  0  0  0  0  0  0  0  0  0
   15.3195    0.4363    0.0000 H   0  0  0  0  0  0  0  0  0  0  0  0
   13.5506    3.4414    0.0000 H   0  0  0  0  0  0  0  0  0  0  0  0
   17.6020    2.8156    0.0000 H   0  0  0  0  0  0  0  0  0  0  0  0
   18.0536    6.4937    0.0000 H   0  0  0  0  0  0  0  0  0  0  0  0
   19.0318    0.3170    0.0000 H   0  0  0  0  0  0  0  0  0  0  0  0
    6.3301   -4.9937    0.0000 H   0  0  0  0  0  0  0  0  0  0  0  0
   18.1254   -2.5637    0.0000 H   0  0  0  0  0  0  0  0  0  0  0  0
   15.3195   -2.5637    0.0000 H   0  0  0  0  0  0  0  0  0  0  0  0
    5.4641   -3.2537    0.0000 H   0  0  0  0  0  0  0  0  0  0  0  0
   18.1254   -4.1837    0.0000 H   0  0  0  0  0  0  0  0  0  0  0  0
   15.3195   -4.1837    0.0000 H   0  0  0  0  0  0  0  0  0  0  0  0
   19.9102    1.8593    0.0000 H   0  0  0  0  0  0  0  0  0  0  0  0
    3.7320   -3.2537    0.0000 H   0  0  0  0  0  0  0  0  0  0  0  0
    5.1350   -5.6837    0.0000 H   0  0  0  0  0  0  0  0  0  0  0  0
   17.2594   -5.6837    0.0000 H   0  0  0  0  0  0  0  0  0  0  0  0
    3.7320   -6.4937    0.0000 H   0  0  0  0  0  0  0  0  0  0  0  0
    2.0000   -6.4937    0.0000 H   0  0  0  0  0  0  0  0  0  0  0  0
    2.6200   -2.8737    0.0000 H   0  0  0  0  0  0  0  0  0  0  0  0
    2.0000   -2.2537    0.0000 H   0  0  0  0  0  0  0  0  0  0  0  0
    1.3800   -2.8737    0.0000 H   0  0  0  0  0  0  0  0  0  0  0  0
  1 23  1  0  0  0  0
  1 32  1  0  0  0  0
  2 29  1  0  0  0  0
  2 31  1  0  0  0  0
  3 29  1  0  0  0  0
  3 33  1  0  0  0  0
  4 24  1  0  0  0  0
  4 86  1  0  0  0  0
  5 28  1  0  0  0  0
  5 45  1  0  0  0  0
  6 32  1  0  0  0  0
  6 41  1  0  0  0  0
  7 25  1  0  0  0  0
  7 87  1  0  0  0  0
  8 26  1  0  0  0  0
  8 88  1  0  0  0  0
  9 27  1  0  0  0  0
  9 89  1  0  0  0  0
 10 30  1  0  0  0  0
 10 90  1  0  0  0  0
 11 38  1  0  0  0  0
 11 39  1  0  0  0  0
 12 39  1  0  0  0  0
 12 43  1  0  0  0  0
 13 34  1  0  0  0  0
 13 93  1  0  0  0  0
 14 35  1  0  0  0  0
 14 94  1  0  0  0  0
 15 37  1  0  0  0  0
 15 96  1  0  0  0  0
 16 46  1  0  0  0  0
 16 47  2  0  0  0  0
 17 40  1  0  0  0  0
 17 98  1  0  0  0  0
 18 45  2  0  0  0  0
 19 52  1  0  0  0  0
 19106  1  0  0  0  0
 20 59  1  0  0  0  0
 20109  1  0  0  0  0
 21 62  1  0  0  0  0
 21 65  1  0  0  0  0
 22 64  1  0  0  0  0
 22111  1  0  0  0  0
 23 24  1  0  0  0  0
 23 33  1  0  0  0  0
 23 66  1  0  0  0  0
 24 25  1  0  0  0  0
 24 67  1  0  0  0  0
 25 30  1  0  0  0  0
 25 68  1  0  0  0  0
 26 27  1  0  0  0  0
 26 28  1  0  0  0  0
 26 69  1  0  0  0  0
 27 29  1  0  0  0  0
 27 70  1  0  0  0  0
 28 31  1  0  0  0  0
 28 71  1  0  0  0  0
 29 72  1  0  0  0  0
 30 32  1  0  0  0  0
 30 73  1  0  0  0  0
 31 36  1  0  0  0  0
 31 74  1  0  0  0  0
 32 75  1  0  0  0  0
 33 76  1  0  0  0  0
 33 77  1  0  0  0  0
 34 35  1  0  0  0  0
 34 37  1  0  0  0  0
 34 78  1  0  0  0  0
 35 38  1  0  0  0  0
 35 79  1  0  0  0  0
 36 81  1  0  0  0  0
 36 82  1  0  0  0  0
 36 83  1  0  0  0  0
 37 39  1  0  0  0  0
 37 80  1  0  0  0  0
 38 40  1  0  0  0  0
 38 84  1  0  0  0  0
 39 85  1  0  0  0  0
 40 91  1  0  0  0  0
 40 92  1  0  0  0  0
 41 44  1  0  0  0  0
 41 46  2  0  0  0  0
 42 43  1  0  0  0  0
 42 44  2  0  0  0  0
 42 47  1  0  0  0  0
 43 48  2  0  0  0  0
 44 95  1  0  0  0  0
 45 51  1  0  0  0  0
 46 49  1  0  0  0  0
 47 50  1  0  0  0  0
 48 52  1  0  0  0  0
 48 97  1  0  0  0  0
 49 53  2  0  0  0  0
 49 54  1  0  0  0  0
 50 52  2  0  0  0  0
 50 99  1  0  0  0  0
 51 55  2  3  0  0  0
 51100  1  0  0  0  0
 53 56  1  0  0  0  0
 53101  1  0  0  0  0
 54 57  2  0  0  0  0
 54102  1  0  0  0  0
 55 58  1  0  0  0  0
 55103  1  0  0  0  0
 56 59  2  0  0  0  0
 56104  1  0  0  0  0
 57 59  1  0  0  0  0
 57105  1  0  0  0  0
 58 60  2  0  0  0  0
 58 61  1  0  0  0  0
 60 62  1  0  0  0  0
 60107  1  0  0  0  0
 61 63  2  0  0  0  0
 61108  1  0  0  0  0
 62 64  2  0  0  0  0
 63 64  1  0  0  0  0
 63110  1  0  0  0  0
 65112  1  0  0  0  0
 65113  1  0  0  0  0
 65114  1  0  0  0  0
M  CHG  1  16   1
M  END
>  <PUBCHEM_COMPOUND_CID>
74976916

>  <PUBCHEM_COMPOUND_CANONICALIZED>
1

>  <PUBCHEM_CACTVS_COMPLEXITY>
1540

>  <PUBCHEM_CACTVS_HBOND_ACCEPTOR>
21

>  <PUBCHEM_CACTVS_HBOND_DONOR>
12

>  <PUBCHEM_CACTVS_ROTATABLE_BOND>
14

>  <PUBCHEM_CACTVS_SUBSKEYS>
AAADcfB8PgAAAAAAAAAAAAAAAAAAAAAAAAA0aNEiAAAAAACR9AAAGgAACAAADBSwmAMyDsAABkCIAqDSCAICCAAkIAAIiAFGiMgdNzaGNR6ieWOl4BUPuYfK7PzOIAABCAAIQABAAAIQABCAAAAAAAAAAA==

>  <PUBCHEM_IUPAC_OPENEYE_NAME>
[4,5-dihydroxy-2-methyl-6-[[3,4,5-trihydroxy-6-[7-hydroxy-2-(4-hydroxyphenyl)-5-[3,4,5-trihydroxy-6-(hydroxymethyl)tetrahydropyran-2-yl]oxy-chromenylium-3-yl]oxy-tetrahydropyran-2-yl]methoxy]tetrahydropyran-3-yl] 3-(4-hydroxy-3-methoxy-phenyl)prop-2-enoate

>  <PUBCHEM_IUPAC_CAS_NAME>
3-(4-hydroxy-3-methoxyphenyl)-2-propenoic acid [4,5-dihydroxy-2-methyl-6-[[3,4,5-trihydroxy-6-[[7-hydroxy-2-(4-hydroxyphenyl)-5-[[3,4,5-trihydroxy-6-(hydroxymethyl)-2-oxanyl]oxy]-1-benzopyrylium-3-yl]oxy]-2-oxanyl]methoxy]-3-oxanyl] ester

>  <PUBCHEM_IUPAC_NAME>
[4,5-dihydroxy-2-methyl-6-[[3,4,5-trihydroxy-6-[7-hydroxy-2-(4-hydroxyphenyl)-5-[3,4,5-trihydroxy-6-(hydroxymethyl)oxan-2-yl]oxychromenylium-3-yl]oxyoxan-2-yl]methoxy]oxan-3-yl] 3-(4-hydroxy-3-methoxyphenyl)prop-2-enoate

>  <PUBCHEM_IUPAC_SYSTEMATIC_NAME>
[6-[[6-[5-[6-(hydroxymethyl)-3,4,5-tris(oxidanyl)oxan-2-yl]oxy-2-(4-hydroxyphenyl)-7-oxidanyl-chromenylium-3-yl]oxy-3,4,5-tris(oxidanyl)oxan-2-yl]methoxy]-2-methyl-4,5-bis(oxidanyl)oxan-3-yl] 3-(3-methoxy-4-oxidanyl-phenyl)prop-2-enoate

>  <PUBCHEM_IUPAC_TRADITIONAL_NAME>
3-(4-hydroxy-3-methoxy-phenyl)acrylic acid [4,5-dihydroxy-2-methyl-6-[[3,4,5-trihydroxy-6-[[7-hydroxy-2-(4-hydroxyphenyl)-5-(3,4,5-trihydroxy-6-methylol-tetrahydropyran-2-yl)oxy-1-benzopyrylium-3-yl]oxy]tetrahydropyran-2-yl]methoxy]tetrahydropyran-3-yl] ester

>  <PUBCHEM_IUPAC_INCHI>
InChI=1S/C43H48O22/c1-17-39(65-30(48)10-4-18-3-9-23(47)26(11-18)57-2)35(53)38(56)41(59-17)58-16-29-32(50)34(52)37(55)43(64-29)62-27-14-22-24(60-40(27)19-5-7-20(45)8-6-19)12-21(46)13-25(22)61-42-36(54)33(51)31(49)28(15-44)63-42/h3-14,17,28-29,31-39,41-44,49-56H,15-16H2,1-2H3,(H2-,45,46,47,48)/p+1

>  <PUBCHEM_IUPAC_INCHIKEY>
DLPFHSHPTWWBRJ-UHFFFAOYSA-O

>  <PUBCHEM_EXACT_MASS>
917.272

>  <PUBCHEM_MOLECULAR_FORMULA>
C43H49O22+

>  <PUBCHEM_MOLECULAR_WEIGHT>
917.843

>  <PUBCHEM_OPENEYE_CAN_SMILES>
CC1C(C(C(C(O1)OCC2C(C(C(C(O2)OC3=C([O+]=C4C=C(C=C(C4=C3)OC5C(C(C(C(O5)CO)O)O)O)O)C6=CC=C(C=C6)O)O)O)O)O)O)OC(=O)C=CC7=CC(=C(C=C7)O)OC

>  <PUBCHEM_OPENEYE_ISO_SMILES>
CC1C(C(C(C(O1)OCC2C(C(C(C(O2)OC3=C([O+]=C4C=C(C=C(C4=C3)OC5C(C(C(C(O5)CO)O)O)O)O)C6=CC=C(C=C6)O)O)O)O)O)O)OC(=O)C=CC7=CC(=C(C=C7)O)OC

>  <PUBCHEM_CACTVS_TPSA>
335

>  <PUBCHEM_MONOISOTOPIC_WEIGHT>
917.272

>  <PUBCHEM_TOTAL_CHARGE>
1

>  <PUBCHEM_HEAVY_ATOM_COUNT>
65

>  <PUBCHEM_ATOM_DEF_STEREO_COUNT>
0

>  <PUBCHEM_ATOM_UDEF_STEREO_COUNT>
15

>  <PUBCHEM_BOND_DEF_STEREO_COUNT>
0

>  <PUBCHEM_BOND_UDEF_STEREO_COUNT>
1

>  <PUBCHEM_ISOTOPIC_ATOM_COUNT>
0

>  <PUBCHEM_COMPONENT_COUNT>
1

>  <PUBCHEM_CACTVS_TAUTO_COUNT>
71

>  <PUBCHEM_COORDINATE_TYPE>
1
5
255

>  <PUBCHEM_BONDANNOTATIONS>
30  10  3
39  12  3
34  13  3
35  14  3
37  15  3
16  46  8
16  47  8
23  33  3
29  3  3
31  36  3
38  40  3
24  4  3
41  44  8
41  46  8
42  43  8
42  44  8
42  47  8
43  48  8
47  50  8
48  52  8
49  53  8
49  54  8
28  5  3
50  52  8
51  55  1
53  56  8
54  57  8
56  59  8
57  59  8
58  60  8
58  61  8
32  6  3
60  62  8
61  63  8
62  64  8
63  64  8
25  7  3
26  8  3
27  9  3

$$$$
