74976917
 OpenBabel06101807152D

 72 76  0  0  1  0  0  0  0  0999 V2000
    5.1350   -0.8812    0.0000 O   0  0  0  0  0  0  0  0  0  0  0  0
   11.2079   -1.3968    0.0000 O   0  0  0  0  0  0  0  0  0  0  0  0
    6.8671   -0.8812    0.0000 O   0  0  0  0  0  0  0  0  0  0  0  0
   10.3592    0.1131    0.0000 O   0  0  0  0  0  0  0  0  0  0  0  0
    5.1350   -3.8812    0.0000 O   0  0  0  0  0  0  0  0  0  0  0  0
    3.4030   -2.8812    0.0000 O   0  0  0  0  0  0  0  0  0  0  0  0
    6.8671   -2.8812    0.0000 O   0  0  0  0  0  0  0  0  0  0  0  0
    8.5926   -2.8666    0.0000 O   0  0  0  0  0  0  0  0  0  0  0  0
   10.3130   -3.8866    0.0000 O   0  0  0  0  0  0  0  0  0  0  0  0
    8.6158   -0.8668    0.0000 O   0  0  0  0  0  0  0  0  0  0  0  0
    2.5369   -1.3812    0.0000 O   0  0  0  0  0  0  0  0  0  0  0  0
    8.6504    2.1330    0.0000 O   0  3  0  0  0  0  0  0  0  0  0  0
    5.1208    2.1980    0.0000 O   0  0  0  0  0  0  0  0  0  0  0  0
   12.9976    3.5828    0.0000 O   0  0  0  0  0  0  0  0  0  0  0  0
    5.1350   -2.8812    0.0000 C   0  0  3  0  0  0  0  0  0  0  0  0
    4.2690   -2.3812    0.0000 C   0  0  3  0  0  0  0  0  0  0  0  0
    6.0010   -2.3812    0.0000 C   0  0  3  0  0  0  0  0  0  0  0  0
    4.2690   -1.3812    0.0000 C   0  0  3  0  0  0  0  0  0  0  0  0
    9.4644   -2.3767    0.0000 C   0  0  3  0  0  0  0  0  0  0  0  0
   10.3246   -2.8867    0.0000 C   0  0  3  0  0  0  0  0  0  0  0  0
    9.4759   -1.3768    0.0000 C   0  0  3  0  0  0  0  0  0  0  0  0
   11.1963   -2.3967    0.0000 C   0  0  3  0  0  0  0  0  0  0  0  0
    6.0010   -1.3812    0.0000 C   0  0  3  0  0  0  0  0  0  0  0  0
   10.3477   -0.8868    0.0000 C   0  0  3  0  0  0  0  0  0  0  0  0
    3.4030   -0.8812    0.0000 C   0  0  0  0  0  0  0  0  0  0  0  0
   12.0565   -2.9067    0.0000 C   0  0  0  0  0  0  0  0  0  0  0  0
    6.8671    0.1188    0.0000 C   0  0  0  0  0  0  0  0  0  0  0  0
    9.4991    0.6231    0.0000 C   0  0  0  0  0  0  0  0  0  0  0  0
    7.7671    0.6431    0.0000 C   0  0  0  0  0  0  0  0  0  0  0  0
    8.6273    0.1331    0.0000 C   0  0  0  0  0  0  0  0  0  0  0  0
    9.5106    1.6230    0.0000 C   0  0  0  0  0  0  0  0  0  0  0  0
    7.7787    1.6431    0.0000 C   0  0  0  0  0  0  0  0  0  0  0  0
    5.9670    0.6431    0.0000 C   0  0  0  0  0  0  0  0  0  0  0  0
    6.8910    2.1880    0.0000 C   0  0  0  0  0  0  0  0  0  0  0  0
    5.9790    1.6847    0.0000 C   0  0  0  0  0  0  0  0  0  0  0  0
   10.3824    2.1130    0.0000 C   0  0  0  0  0  0  0  0  0  0  0  0
   11.2426    1.6030    0.0000 C   0  0  0  0  0  0  0  0  0  0  0  0
   10.3939    3.1129    0.0000 C   0  0  0  0  0  0  0  0  0  0  0  0
   12.1143    2.0930    0.0000 C   0  0  0  0  0  0  0  0  0  0  0  0
   11.2657    3.6029    0.0000 C   0  0  0  0  0  0  0  0  0  0  0  0
   12.1259    3.0929    0.0000 C   0  0  0  0  0  0  0  0  0  0  0  0
    5.6720   -3.1912    0.0000 H   0  0  0  0  0  0  0  0  0  0  0  0
    4.2690   -3.0012    0.0000 H   0  0  0  0  0  0  0  0  0  0  0  0
    6.5380   -2.0712    0.0000 H   0  0  0  0  0  0  0  0  0  0  0  0
    4.2690   -0.7612    0.0000 H   0  0  0  0  0  0  0  0  0  0  0  0
    8.9311   -2.0605    0.0000 H   0  0  0  0  0  0  0  0  0  0  0  0
   10.8579   -3.2029    0.0000 H   0  0  0  0  0  0  0  0  0  0  0  0
    9.4831   -0.7568    0.0000 H   0  0  0  0  0  0  0  0  0  0  0  0
   11.7368   -2.0930    0.0000 H   0  0  0  0  0  0  0  0  0  0  0  0
    6.0010   -0.7612    0.0000 H   0  0  0  0  0  0  0  0  0  0  0  0
   10.8882   -0.5830    0.0000 H   0  0  0  0  0  0  0  0  0  0  0  0
    3.8015   -0.4062    0.0000 H   0  0  0  0  0  0  0  0  0  0  0  0
    3.0044   -0.4062    0.0000 H   0  0  0  0  0  0  0  0  0  0  0  0
   11.7403   -3.4400    0.0000 H   0  0  0  0  0  0  0  0  0  0  0  0
   12.5898   -3.2229    0.0000 H   0  0  0  0  0  0  0  0  0  0  0  0
   12.3727   -2.3734    0.0000 H   0  0  0  0  0  0  0  0  0  0  0  0
    4.5981   -4.1912    0.0000 H   0  0  0  0  0  0  0  0  0  0  0  0
    3.4030   -3.5012    0.0000 H   0  0  0  0  0  0  0  0  0  0  0  0
    6.8671   -3.5012    0.0000 H   0  0  0  0  0  0  0  0  0  0  0  0
    8.5854   -3.4866    0.0000 H   0  0  0  0  0  0  0  0  0  0  0  0
   10.8463   -4.2028    0.0000 H   0  0  0  0  0  0  0  0  0  0  0  0
    8.0753   -1.1706    0.0000 H   0  0  0  0  0  0  0  0  0  0  0  0
    8.6201   -0.4868    0.0000 H   0  0  0  0  0  0  0  0  0  0  0  0
    2.0000   -1.0712    0.0000 H   0  0  0  0  0  0  0  0  0  0  0  0
    5.4277    0.3373    0.0000 H   0  0  0  0  0  0  0  0  0  0  0  0
    6.9053    2.8079    0.0000 H   0  0  0  0  0  0  0  0  0  0  0  0
   11.2354    0.9830    0.0000 H   0  0  0  0  0  0  0  0  0  0  0  0
    9.8606    3.4291    0.0000 H   0  0  0  0  0  0  0  0  0  0  0  0
    5.1304    2.8179    0.0000 H   0  0  0  0  0  0  0  0  0  0  0  0
   12.6476    1.7768    0.0000 H   0  0  0  0  0  0  0  0  0  0  0  0
   11.2729    4.2228    0.0000 H   0  0  0  0  0  0  0  0  0  0  0  0
   13.0048    4.2028    0.0000 H   0  0  0  0  0  0  0  0  0  0  0  0
  1 18  1  0  0  0  0
  1 23  1  0  0  0  0
  2 22  1  0  0  0  0
  2 24  1  0  0  0  0
  3 23  1  0  0  0  0
  3 27  1  0  0  0  0
  4 24  1  0  0  0  0
  4 28  1  0  0  0  0
  5 15  1  0  0  0  0
  5 57  1  0  0  0  0
  6 16  1  0  0  0  0
  6 58  1  0  0  0  0
  7 17  1  0  0  0  0
  7 59  1  0  0  0  0
  8 19  1  0  0  0  0
  8 60  1  0  0  0  0
  9 20  1  0  0  0  0
  9 61  1  0  0  0  0
 10 21  1  0  0  0  0
 10 62  1  0  0  0  0
 11 25  1  0  0  0  0
 11 64  1  0  0  0  0
 12 31  1  0  0  0  0
 12 32  2  0  0  0  0
 13 35  1  0  0  0  0
 13 69  1  0  0  0  0
 14 41  1  0  0  0  0
 14 72  1  0  0  0  0
 15 16  1  0  0  0  0
 15 17  1  0  0  0  0
 15 42  1  0  0  0  0
 16 18  1  0  0  0  0
 16 43  1  0  0  0  0
 17 23  1  0  0  0  0
 17 44  1  0  0  0  0
 18 25  1  0  0  0  0
 18 45  1  0  0  0  0
 19 20  1  0  0  0  0
 19 21  1  0  0  0  0
 19 46  1  0  0  0  0
 20 22  1  0  0  0  0
 20 47  1  0  0  0  0
 21 24  1  0  0  0  0
 21 48  1  0  0  0  0
 22 26  1  0  0  0  0
 22 49  1  0  0  0  0
 23 50  1  0  0  0  0
 24 51  1  0  0  0  0
 25 52  1  0  0  0  0
 25 53  1  0  0  0  0
 26 54  1  0  0  0  0
 26 55  1  0  0  0  0
 26 56  1  0  0  0  0
 27 29  1  0  0  0  0
 27 33  2  0  0  0  0
 28 30  1  0  0  0  0
 28 31  2  0  0  0  0
 29 30  2  0  0  0  0
 29 32  1  0  0  0  0
 30 63  1  0  0  0  0
 31 36  1  0  0  0  0
 32 34  1  0  0  0  0
 33 35  1  0  0  0  0
 33 65  1  0  0  0  0
 34 35  2  0  0  0  0
 34 66  1  0  0  0  0
 36 37  2  0  0  0  0
 36 38  1  0  0  0  0
 37 39  1  0  0  0  0
 37 67  1  0  0  0  0
 38 40  2  0  0  0  0
 38 68  1  0  0  0  0
 39 41  2  0  0  0  0
 39 70  1  0  0  0  0
 40 41  1  0  0  0  0
 40 71  1  0  0  0  0
M  CHG  1  12   1
M  END
>  <PUBCHEM_COMPOUND_CID>
74976917

>  <PUBCHEM_COMPOUND_CANONICALIZED>
1

>  <PUBCHEM_CACTVS_COMPLEXITY>
843

>  <PUBCHEM_CACTVS_HBOND_ACCEPTOR>
13

>  <PUBCHEM_CACTVS_HBOND_DONOR>
9

>  <PUBCHEM_CACTVS_ROTATABLE_BOND>
6

>  <PUBCHEM_CACTVS_SUBSKEYS>
AAADceB4PAAAAAAAAAAAAAAAAAAAAAAAAAA0aJECAAAAAACR9AAAGgAACAAADBSwmAMyDsAABkCIAqBSAAICCAAkIAAIiAFGiMgdNzaGNR6ieWKl4BUPuYfK7OzOIAAACAAIAABAAAAQABAAAAAAAAAAAA==

>  <PUBCHEM_IUPAC_OPENEYE_NAME>
2-[7-hydroxy-2-(4-hydroxyphenyl)-5-[3,4,5-trihydroxy-6-(hydroxymethyl)tetrahydropyran-2-yl]oxy-chromenylium-3-yl]oxy-6-methyl-tetrahydropyran-3,4,5-triol

>  <PUBCHEM_IUPAC_CAS_NAME>
2-[[7-hydroxy-2-(4-hydroxyphenyl)-5-[[3,4,5-trihydroxy-6-(hydroxymethyl)-2-oxanyl]oxy]-1-benzopyrylium-3-yl]oxy]-6-methyloxane-3,4,5-triol

>  <PUBCHEM_IUPAC_NAME>
2-[7-hydroxy-2-(4-hydroxyphenyl)-5-[3,4,5-trihydroxy-6-(hydroxymethyl)oxan-2-yl]oxychromenylium-3-yl]oxy-6-methyloxane-3,4,5-triol

>  <PUBCHEM_IUPAC_SYSTEMATIC_NAME>
2-[5-[6-(hydroxymethyl)-3,4,5-tris(oxidanyl)oxan-2-yl]oxy-2-(4-hydroxyphenyl)-7-oxidanyl-chromenylium-3-yl]oxy-6-methyl-oxane-3,4,5-triol

>  <PUBCHEM_IUPAC_TRADITIONAL_NAME>
2-[[7-hydroxy-2-(4-hydroxyphenyl)-5-(3,4,5-trihydroxy-6-methylol-tetrahydropyran-2-yl)oxy-1-benzopyrylium-3-yl]oxy]-6-methyl-tetrahydropyran-3,4,5-triol

>  <PUBCHEM_IUPAC_INCHI>
InChI=1S/C27H30O14/c1-10-19(31)21(33)23(35)26(37-10)40-17-8-14-15(38-25(17)11-2-4-12(29)5-3-11)6-13(30)7-16(14)39-27-24(36)22(34)20(32)18(9-28)41-27/h2-8,10,18-24,26-28,31-36H,9H2,1H3,(H-,29,30)/p+1

>  <PUBCHEM_IUPAC_INCHIKEY>
MIRNSFCHJINZJP-UHFFFAOYSA-O

>  <PUBCHEM_EXACT_MASS>
579.171

>  <PUBCHEM_MOLECULAR_FORMULA>
C27H31O14+

>  <PUBCHEM_MOLECULAR_WEIGHT>
579.531

>  <PUBCHEM_OPENEYE_CAN_SMILES>
CC1C(C(C(C(O1)OC2=C([O+]=C3C=C(C=C(C3=C2)OC4C(C(C(C(O4)CO)O)O)O)O)C5=CC=C(C=C5)O)O)O)O

>  <PUBCHEM_OPENEYE_ISO_SMILES>
CC1C(C(C(C(O1)OC2=C([O+]=C3C=C(C=C(C3=C2)OC4C(C(C(C(O4)CO)O)O)O)O)C5=CC=C(C=C5)O)O)O)O

>  <PUBCHEM_CACTVS_TPSA>
220

>  <PUBCHEM_MONOISOTOPIC_WEIGHT>
579.171

>  <PUBCHEM_TOTAL_CHARGE>
1

>  <PUBCHEM_HEAVY_ATOM_COUNT>
41

>  <PUBCHEM_ATOM_DEF_STEREO_COUNT>
0

>  <PUBCHEM_ATOM_UDEF_STEREO_COUNT>
10

>  <PUBCHEM_BOND_DEF_STEREO_COUNT>
0

>  <PUBCHEM_BOND_UDEF_STEREO_COUNT>
0

>  <PUBCHEM_ISOTOPIC_ATOM_COUNT>
0

>  <PUBCHEM_COMPONENT_COUNT>
1

>  <PUBCHEM_CACTVS_TAUTO_COUNT>
21

>  <PUBCHEM_COORDINATE_TYPE>
1
5
255

>  <PUBCHEM_BONDANNOTATIONS>
21  10  3
12  31  8
12  32  8
18  25  3
22  26  3
27  29  8
27  33  8
28  30  8
28  31  8
29  30  8
29  32  8
23  3  3
32  34  8
33  35  8
34  35  8
36  37  8
36  38  8
37  39  8
38  40  8
39  41  8
24  4  3
40  41  8
15  5  3
16  6  3
17  7  3
19  8  3
20  9  3

$$$$
