74977489
 OpenBabel06101807152D

 89 94  0  0  1  0  0  0  0  0999 V2000
    8.6346    4.7786    0.0000 O   0  0  0  0  0  0  0  0  0  0  0  0
    9.4833    0.2752    0.0000 O   0  0  0  0  0  0  0  0  0  0  0  0
    6.0346    4.2886    0.0000 O   0  0  0  0  0  0  0  0  0  0  0  0
    6.0423    6.2886    0.0000 O   0  0  0  0  0  0  0  0  0  0  0  0
    7.7782    7.2819    0.0000 O   0  0  0  0  0  0  0  0  0  0  0  0
   10.3589    2.7719    0.0000 O   0  0  0  0  0  0  0  0  0  0  0  0
    7.7671    0.2404    0.0000 O   0  0  0  0  0  0  0  0  0  0  0  0
    5.1350   -4.2839    0.0000 O   0  0  0  0  0  0  0  0  0  0  0  0
   12.0871    1.7652    0.0000 O   0  0  0  0  0  0  0  0  0  0  0  0
    9.4948    3.2752    0.0000 O   0  0  0  0  0  0  0  0  0  0  0  0
   12.0794   -0.2348    0.0000 O   0  0  0  0  0  0  0  0  0  0  0  0
    6.0308    3.2886    0.0000 O   0  0  0  0  0  0  0  0  0  0  0  0
    9.5102    7.2752    0.0000 O   0  0  0  0  0  0  0  0  0  0  0  0
    6.8671   -4.2839    0.0000 O   0  0  0  0  0  0  0  0  0  0  0  0
    5.1350   -7.2839    0.0000 O   0  0  0  0  0  0  0  0  0  0  0  0
    3.4030   -6.2839    0.0000 O   0  0  0  0  0  0  0  0  0  0  0  0
    6.8671   -6.2839    0.0000 O   0  0  0  0  0  0  0  0  0  0  0  0
    5.1208    1.7952    0.0000 O   0  0  0  0  0  0  0  0  0  0  0  0
    2.5369   -4.7839    0.0000 O   0  0  0  0  0  0  0  0  0  0  0  0
    7.7666    4.2819    0.0000 C   0  0  3  0  0  0  0  0  0  0  0  0
    6.9026    4.7852    0.0000 C   0  0  3  0  0  0  0  0  0  0  0  0
    6.9064    5.7852    0.0000 C   0  0  3  0  0  0  0  0  0  0  0  0
    7.7744    6.2819    0.0000 C   0  0  3  0  0  0  0  0  0  0  0  0
    8.6384    5.7785    0.0000 C   0  0  3  0  0  0  0  0  0  0  0  0
    9.4871    1.2752    0.0000 C   0  0  3  0  0  0  0  0  0  0  0  0
    7.7628    3.2819    0.0000 C   0  0  0  0  0  0  0  0  0  0  0  0
   10.3551    1.7719    0.0000 C   0  0  3  0  0  0  0  0  0  0  0  0
    8.6230    1.7786    0.0000 C   0  0  0  0  0  0  0  0  0  0  0  0
   11.2192    1.2686    0.0000 C   0  0  3  0  0  0  0  0  0  0  0  0
    8.6269    2.7786    0.0000 C   0  0  0  0  0  0  0  0  0  0  0  0
   11.2153    0.2686    0.0000 C   0  0  3  0  0  0  0  0  0  0  0  0
    6.8948    2.7852    0.0000 C   0  0  0  0  0  0  0  0  0  0  0  0
    7.7551    1.2819    0.0000 C   0  0  0  0  0  0  0  0  0  0  0  0
    9.5064    6.2752    0.0000 C   0  0  0  0  0  0  0  0  0  0  0  0
   10.3474   -0.2281    0.0000 C   0  0  0  0  0  0  0  0  0  0  0  0
    6.8910    1.7852    0.0000 C   0  0  0  0  0  0  0  0  0  0  0  0
    5.1350   -6.2839    0.0000 C   0  0  3  0  0  0  0  0  0  0  0  0
    4.2690   -5.7839    0.0000 C   0  0  3  0  0  0  0  0  0  0  0  0
    6.0010   -5.7839    0.0000 C   0  0  3  0  0  0  0  0  0  0  0  0
    4.2690   -4.7839    0.0000 C   0  0  3  0  0  0  0  0  0  0  0  0
    6.0010   -4.7839    0.0000 C   0  0  3  0  0  0  0  0  0  0  0  0
    5.9790    1.2819    0.0000 C   0  0  0  0  0  0  0  0  0  0  0  0
    3.4030   -4.2839    0.0000 C   0  0  0  0  0  0  0  0  0  0  0  0
    6.8671   -0.2839    0.0000 C   0  0  0  0  0  0  0  0  0  0  0  0
    5.9670    0.2404    0.0000 C   0  0  0  0  0  0  0  0  0  0  0  0
    6.8671   -1.2839    0.0000 C   0  0  0  0  0  0  0  0  0  0  0  0
    6.8671   -3.2839    0.0000 C   0  0  0  0  0  0  0  0  0  0  0  0
    6.0010   -1.7839    0.0000 C   0  0  0  0  0  0  0  0  0  0  0  0
    7.7331   -1.7839    0.0000 C   0  0  0  0  0  0  0  0  0  0  0  0
    6.0010   -2.7839    0.0000 C   0  0  0  0  0  0  0  0  0  0  0  0
    7.7331   -2.7839    0.0000 C   0  0  0  0  0  0  0  0  0  0  0  0
    8.3024    3.9698    0.0000 H   0  0  0  0  0  0  0  0  0  0  0  0
    6.3668    5.0973    0.0000 H   0  0  0  0  0  0  0  0  0  0  0  0
    6.9088    6.4052    0.0000 H   0  0  0  0  0  0  0  0  0  0  0  0
    8.3125    6.5898    0.0000 H   0  0  0  0  0  0  0  0  0  0  0  0
    9.1742    5.4665    0.0000 H   0  0  0  0  0  0  0  0  0  0  0  0
    9.4895    1.8952    0.0000 H   0  0  0  0  0  0  0  0  0  0  0  0
   10.8932    2.0798    0.0000 H   0  0  0  0  0  0  0  0  0  0  0  0
   11.7549    0.9565    0.0000 H   0  0  0  0  0  0  0  0  0  0  0  0
   11.2129   -0.3514    0.0000 H   0  0  0  0  0  0  0  0  0  0  0  0
    9.7162    5.6918    0.0000 H   0  0  0  0  0  0  0  0  0  0  0  0
   10.1174    6.3805    0.0000 H   0  0  0  0  0  0  0  0  0  0  0  0
    9.9470   -0.7015    0.0000 H   0  0  0  0  0  0  0  0  0  0  0  0
   10.7441   -0.7046    0.0000 H   0  0  0  0  0  0  0  0  0  0  0  0
    5.6720   -6.5939    0.0000 H   0  0  0  0  0  0  0  0  0  0  0  0
    4.2690   -6.4039    0.0000 H   0  0  0  0  0  0  0  0  0  0  0  0
    6.5380   -5.4739    0.0000 H   0  0  0  0  0  0  0  0  0  0  0  0
    4.2690   -4.1639    0.0000 H   0  0  0  0  0  0  0  0  0  0  0  0
    5.4989    4.6006    0.0000 H   0  0  0  0  0  0  0  0  0  0  0  0
    6.0447    6.9086    0.0000 H   0  0  0  0  0  0  0  0  0  0  0  0
    7.2425    7.5939    0.0000 H   0  0  0  0  0  0  0  0  0  0  0  0
    6.0010   -4.1639    0.0000 H   0  0  0  0  0  0  0  0  0  0  0  0
   10.8970    3.0798    0.0000 H   0  0  0  0  0  0  0  0  0  0  0  0
   12.6228    1.4532    0.0000 H   0  0  0  0  0  0  0  0  0  0  0  0
    9.4972    3.8952    0.0000 H   0  0  0  0  0  0  0  0  0  0  0  0
    3.8015   -3.8090    0.0000 H   0  0  0  0  0  0  0  0  0  0  0  0
    3.0044   -3.8090    0.0000 H   0  0  0  0  0  0  0  0  0  0  0  0
   12.0770   -0.8548    0.0000 H   0  0  0  0  0  0  0  0  0  0  0  0
    5.4277   -0.0655    0.0000 H   0  0  0  0  0  0  0  0  0  0  0  0
    5.4926    2.9806    0.0000 H   0  0  0  0  0  0  0  0  0  0  0  0
   10.0484    7.5831    0.0000 H   0  0  0  0  0  0  0  0  0  0  0  0
    5.6720   -7.5939    0.0000 H   0  0  0  0  0  0  0  0  0  0  0  0
    3.4030   -6.9039    0.0000 H   0  0  0  0  0  0  0  0  0  0  0  0
    7.4040   -5.9739    0.0000 H   0  0  0  0  0  0  0  0  0  0  0  0
    5.4641   -1.4739    0.0000 H   0  0  0  0  0  0  0  0  0  0  0  0
    8.2700   -1.4739    0.0000 H   0  0  0  0  0  0  0  0  0  0  0  0
    5.4641   -3.0939    0.0000 H   0  0  0  0  0  0  0  0  0  0  0  0
    8.2700   -3.0939    0.0000 H   0  0  0  0  0  0  0  0  0  0  0  0
    2.0000   -4.4739    0.0000 H   0  0  0  0  0  0  0  0  0  0  0  0
  1 20  1  0  0  0  0
  1 24  1  0  0  0  0
  2 25  1  0  0  0  0
  2 35  1  0  0  0  0
  3 21  1  0  0  0  0
  3 69  1  0  0  0  0
  4 22  1  0  0  0  0
  4 70  1  0  0  0  0
  5 23  1  0  0  0  0
  5 71  1  0  0  0  0
  6 27  1  0  0  0  0
  6 73  1  0  0  0  0
  7 33  1  0  0  0  0
  7 44  1  0  0  0  0
  8 40  1  0  0  0  0
  8 41  1  0  0  0  0
  9 29  1  0  0  0  0
  9 74  1  0  0  0  0
 10 30  1  0  0  0  0
 10 75  1  0  0  0  0
 11 31  1  0  0  0  0
 11 78  1  0  0  0  0
 12 32  1  0  0  0  0
 12 80  1  0  0  0  0
 13 34  1  0  0  0  0
 13 81  1  0  0  0  0
 14 41  1  0  0  0  0
 14 47  1  0  0  0  0
 15 37  1  0  0  0  0
 15 82  1  0  0  0  0
 16 38  1  0  0  0  0
 16 83  1  0  0  0  0
 17 39  1  0  0  0  0
 17 84  1  0  0  0  0
 18 42  2  0  0  0  0
 19 43  1  0  0  0  0
 19 89  1  0  0  0  0
 20 21  1  0  0  0  0
 20 26  1  0  0  0  0
 20 52  1  0  0  0  0
 21 22  1  0  0  0  0
 21 53  1  0  0  0  0
 22 23  1  0  0  0  0
 22 54  1  0  0  0  0
 23 24  1  0  0  0  0
 23 55  1  0  0  0  0
 24 34  1  0  0  0  0
 24 56  1  0  0  0  0
 25 27  1  0  0  0  0
 25 28  1  0  0  0  0
 25 57  1  0  0  0  0
 26 30  2  0  0  0  0
 26 32  1  0  0  0  0
 27 29  1  0  0  0  0
 27 58  1  0  0  0  0
 28 30  1  0  0  0  0
 28 33  2  0  0  0  0
 29 31  1  0  0  0  0
 29 59  1  0  0  0  0
 31 35  1  0  0  0  0
 31 60  1  0  0  0  0
 32 36  2  0  0  0  0
 33 36  1  0  0  0  0
 34 61  1  0  0  0  0
 34 62  1  0  0  0  0
 35 63  1  0  0  0  0
 35 64  1  0  0  0  0
 36 42  1  0  0  0  0
 37 38  1  0  0  0  0
 37 39  1  0  0  0  0
 37 65  1  0  0  0  0
 38 40  1  0  0  0  0
 38 66  1  0  0  0  0
 39 41  1  0  0  0  0
 39 67  1  0  0  0  0
 40 43  1  0  0  0  0
 40 68  1  0  0  0  0
 41 72  1  0  0  0  0
 42 45  1  0  0  0  0
 43 76  1  0  0  0  0
 43 77  1  0  0  0  0
 44 45  2  0  0  0  0
 44 46  1  0  0  0  0
 45 79  1  0  0  0  0
 46 48  2  0  0  0  0
 46 49  1  0  0  0  0
 47 50  2  0  0  0  0
 47 51  1  0  0  0  0
 48 50  1  0  0  0  0
 48 85  1  0  0  0  0
 49 51  2  0  0  0  0
 49 86  1  0  0  0  0
 50 87  1  0  0  0  0
 51 88  1  0  0  0  0
M  END
>  <PUBCHEM_COMPOUND_CID>
74977489

>  <PUBCHEM_COMPOUND_CANONICALIZED>
1

>  <PUBCHEM_CACTVS_COMPLEXITY>
1230

>  <PUBCHEM_CACTVS_HBOND_ACCEPTOR>
19

>  <PUBCHEM_CACTVS_HBOND_DONOR>
13

>  <PUBCHEM_CACTVS_ROTATABLE_BOND>
7

>  <PUBCHEM_CACTVS_SUBSKEYS>
AAADcfB8PgAAAAAAAAAAAAAAAAAAAAAAAAA0aJECAAAAAACBQAAAGgAACAAADBSwmAMwDoAABgCIAqBSAAACCAAkIAAIiAEGCMgdNzaGNRqieWCl4BUPuQfI7PzOIAACCAAIAABAAAQQABAAAAAAAAAAAA==

>  <PUBCHEM_IUPAC_OPENEYE_NAME>
5,7-dihydroxy-6-[3,4,5-trihydroxy-6-(hydroxymethyl)tetrahydropyran-2-yl]-2-[4-[3,4,5-trihydroxy-6-(hydroxymethyl)tetrahydropyran-2-yl]oxyphenyl]-8-(3,4,5-trihydroxytetrahydropyran-2-yl)chromen-4-one

>  <PUBCHEM_IUPAC_CAS_NAME>
5,7-dihydroxy-6-[3,4,5-trihydroxy-6-(hydroxymethyl)-2-oxanyl]-2-[4-[[3,4,5-trihydroxy-6-(hydroxymethyl)-2-oxanyl]oxy]phenyl]-8-(3,4,5-trihydroxy-2-oxanyl)-1-benzopyran-4-one

>  <PUBCHEM_IUPAC_NAME>
5,7-dihydroxy-6-[3,4,5-trihydroxy-6-(hydroxymethyl)oxan-2-yl]-2-[4-[3,4,5-trihydroxy-6-(hydroxymethyl)oxan-2-yl]oxyphenyl]-8-(3,4,5-trihydroxyoxan-2-yl)chromen-4-one

>  <PUBCHEM_IUPAC_SYSTEMATIC_NAME>
6-[6-(hydroxymethyl)-3,4,5-tris(oxidanyl)oxan-2-yl]-2-[4-[6-(hydroxymethyl)-3,4,5-tris(oxidanyl)oxan-2-yl]oxyphenyl]-5,7-bis(oxidanyl)-8-[3,4,5-tris(oxidanyl)oxan-2-yl]chromen-4-one

>  <PUBCHEM_IUPAC_TRADITIONAL_NAME>
5,7-dihydroxy-6-(3,4,5-trihydroxy-6-methylol-tetrahydropyran-2-yl)-2-[4-(3,4,5-trihydroxy-6-methylol-tetrahydropyran-2-yl)oxyphenyl]-8-(3,4,5-trihydroxytetrahydropyran-2-yl)chromone

>  <PUBCHEM_IUPAC_INCHI>
InChI=1S/C32H38O19/c33-6-14-20(38)24(42)27(45)31(50-14)17-22(40)16-11(35)5-13(49-29(16)18(23(17)41)30-26(44)19(37)12(36)8-47-30)9-1-3-10(4-2-9)48-32-28(46)25(43)21(39)15(7-34)51-32/h1-5,12,14-15,19-21,24-28,30-34,36-46H,6-8H2

>  <PUBCHEM_IUPAC_INCHIKEY>
RQNICSULQVIVER-UHFFFAOYSA-N

>  <PUBCHEM_XLOGP3_AA>
-4

>  <PUBCHEM_EXACT_MASS>
726.201

>  <PUBCHEM_MOLECULAR_FORMULA>
C32H38O19

>  <PUBCHEM_MOLECULAR_WEIGHT>
726.637

>  <PUBCHEM_OPENEYE_CAN_SMILES>
C1C(C(C(C(O1)C2=C(C(=C(C3=C2OC(=CC3=O)C4=CC=C(C=C4)OC5C(C(C(C(O5)CO)O)O)O)O)C6C(C(C(C(O6)CO)O)O)O)O)O)O)O

>  <PUBCHEM_OPENEYE_ISO_SMILES>
C1C(C(C(C(O1)C2=C(C(=C(C3=C2OC(=CC3=O)C4=CC=C(C=C4)OC5C(C(C(C(O5)CO)O)O)O)O)C6C(C(C(C(O6)CO)O)O)O)O)O)O)O

>  <PUBCHEM_CACTVS_TPSA>
326

>  <PUBCHEM_MONOISOTOPIC_WEIGHT>
726.201

>  <PUBCHEM_TOTAL_CHARGE>
0

>  <PUBCHEM_HEAVY_ATOM_COUNT>
51

>  <PUBCHEM_ATOM_DEF_STEREO_COUNT>
0

>  <PUBCHEM_ATOM_UDEF_STEREO_COUNT>
14

>  <PUBCHEM_BOND_DEF_STEREO_COUNT>
0

>  <PUBCHEM_BOND_UDEF_STEREO_COUNT>
0

>  <PUBCHEM_ISOTOPIC_ATOM_COUNT>
0

>  <PUBCHEM_COMPONENT_COUNT>
1

>  <PUBCHEM_CACTVS_TAUTO_COUNT>
12

>  <PUBCHEM_COORDINATE_TYPE>
1
5
255

>  <PUBCHEM_BONDANNOTATIONS>
31  11  3
41  14  3
37  15  3
38  16  3
39  17  3
20  26  3
24  34  3
25  28  3
26  30  8
26  32  8
28  30  8
28  33  8
21  3  3
32  36  8
33  36  8
36  42  8
22  4  3
40  43  3
42  45  8
44  45  8
46  48  8
46  49  8
47  50  8
47  51  8
48  50  8
49  51  8
23  5  3
27  6  3
7  33  8
7  44  8
29  9  3

$$$$
