74977792
 OpenBabel06101807152D

 75 79  0  0  1  0  0  0  0  0999 V2000
    9.4833    1.9346    0.0000 O   0  0  0  0  0  0  0  0  0  0  0  0
    5.1350   -2.6246    0.0000 O   0  0  0  0  0  0  0  0  0  0  0  0
   10.3589    4.4312    0.0000 O   0  0  0  0  0  0  0  0  0  0  0  0
   12.0871    3.4246    0.0000 O   0  0  0  0  0  0  0  0  0  0  0  0
   12.0794    1.4246    0.0000 O   0  0  0  0  0  0  0  0  0  0  0  0
    6.8671   -2.6246    0.0000 O   0  0  0  0  0  0  0  0  0  0  0  0
    5.1350   -5.6246    0.0000 O   0  0  0  0  0  0  0  0  0  0  0  0
    3.4030   -4.6246    0.0000 O   0  0  0  0  0  0  0  0  0  0  0  0
    6.8671   -4.6246    0.0000 O   0  0  0  0  0  0  0  0  0  0  0  0
    7.7671    1.8997    0.0000 O   0  0  0  0  0  0  0  0  0  0  0  0
   11.2076   -0.0721    0.0000 O   0  0  0  0  0  0  0  0  0  0  0  0
    9.4948    4.9346    0.0000 O   0  0  0  0  0  0  0  0  0  0  0  0
    2.5369   -3.1246    0.0000 O   0  0  0  0  0  0  0  0  0  0  0  0
    6.0308    4.9479    0.0000 O   0  0  0  0  0  0  0  0  0  0  0  0
    5.1208    3.4546    0.0000 O   0  0  0  0  0  0  0  0  0  0  0  0
   10.3551    3.4313    0.0000 C   0  0  3  0  0  0  0  0  0  0  0  0
   11.2192    2.9279    0.0000 C   0  0  3  0  0  0  0  0  0  0  0  0
    9.4871    2.9346    0.0000 C   0  0  3  0  0  0  0  0  0  0  0  0
   11.2153    1.9279    0.0000 C   0  0  3  0  0  0  0  0  0  0  0  0
   10.3474    1.4313    0.0000 C   0  0  3  0  0  0  0  0  0  0  0  0
    8.6230    3.4379    0.0000 C   0  0  0  0  0  0  0  0  0  0  0  0
    5.1350   -4.6246    0.0000 C   0  0  3  0  0  0  0  0  0  0  0  0
    4.2690   -4.1246    0.0000 C   0  0  3  0  0  0  0  0  0  0  0  0
    6.0010   -4.1246    0.0000 C   0  0  3  0  0  0  0  0  0  0  0  0
    4.2690   -3.1246    0.0000 C   0  0  3  0  0  0  0  0  0  0  0  0
   10.3435    0.4313    0.0000 C   0  0  0  0  0  0  0  0  0  0  0  0
    6.0010   -3.1246    0.0000 C   0  0  3  0  0  0  0  0  0  0  0  0
    7.7551    2.9413    0.0000 C   0  0  0  0  0  0  0  0  0  0  0  0
    8.6269    4.4379    0.0000 C   0  0  0  0  0  0  0  0  0  0  0  0
    3.4030   -2.6246    0.0000 C   0  0  0  0  0  0  0  0  0  0  0  0
    6.8910    3.4446    0.0000 C   0  0  0  0  0  0  0  0  0  0  0  0
    7.7628    4.9413    0.0000 C   0  0  0  0  0  0  0  0  0  0  0  0
    6.8948    4.4446    0.0000 C   0  0  0  0  0  0  0  0  0  0  0  0
    6.8671    1.3754    0.0000 C   0  0  0  0  0  0  0  0  0  0  0  0
    5.9790    2.9413    0.0000 C   0  0  0  0  0  0  0  0  0  0  0  0
    6.8671   -1.6246    0.0000 C   0  0  0  0  0  0  0  0  0  0  0  0
    5.9670    1.8997    0.0000 C   0  0  0  0  0  0  0  0  0  0  0  0
    6.8671    0.3754    0.0000 C   0  0  0  0  0  0  0  0  0  0  0  0
    7.7331   -1.1246    0.0000 C   0  0  0  0  0  0  0  0  0  0  0  0
    6.0010   -1.1246    0.0000 C   0  0  0  0  0  0  0  0  0  0  0  0
    7.7331   -0.1246    0.0000 C   0  0  0  0  0  0  0  0  0  0  0  0
    6.0010   -0.1246    0.0000 C   0  0  0  0  0  0  0  0  0  0  0  0
    9.4987    5.9346    0.0000 C   0  0  0  0  0  0  0  0  0  0  0  0
   10.8932    3.7392    0.0000 H   0  0  0  0  0  0  0  0  0  0  0  0
   11.7549    2.6158    0.0000 H   0  0  0  0  0  0  0  0  0  0  0  0
    9.4895    3.5546    0.0000 H   0  0  0  0  0  0  0  0  0  0  0  0
   11.2129    1.3079    0.0000 H   0  0  0  0  0  0  0  0  0  0  0  0
    9.8092    1.1233    0.0000 H   0  0  0  0  0  0  0  0  0  0  0  0
    5.6720   -4.9346    0.0000 H   0  0  0  0  0  0  0  0  0  0  0  0
    4.2690   -4.7446    0.0000 H   0  0  0  0  0  0  0  0  0  0  0  0
    6.5380   -3.8146    0.0000 H   0  0  0  0  0  0  0  0  0  0  0  0
    4.2690   -2.5046    0.0000 H   0  0  0  0  0  0  0  0  0  0  0  0
    9.7333    0.5413    0.0000 H   0  0  0  0  0  0  0  0  0  0  0  0
   10.1292   -0.1505    0.0000 H   0  0  0  0  0  0  0  0  0  0  0  0
    6.0010   -2.5046    0.0000 H   0  0  0  0  0  0  0  0  0  0  0  0
   10.8970    4.7392    0.0000 H   0  0  0  0  0  0  0  0  0  0  0  0
   12.6228    3.1125    0.0000 H   0  0  0  0  0  0  0  0  0  0  0  0
   12.6175    1.7325    0.0000 H   0  0  0  0  0  0  0  0  0  0  0  0
    3.8015   -2.1496    0.0000 H   0  0  0  0  0  0  0  0  0  0  0  0
    3.0044   -2.1496    0.0000 H   0  0  0  0  0  0  0  0  0  0  0  0
    7.7652    5.5612    0.0000 H   0  0  0  0  0  0  0  0  0  0  0  0
    5.6720   -5.9346    0.0000 H   0  0  0  0  0  0  0  0  0  0  0  0
    3.4030   -5.2446    0.0000 H   0  0  0  0  0  0  0  0  0  0  0  0
    7.4040   -4.3146    0.0000 H   0  0  0  0  0  0  0  0  0  0  0  0
   11.2052   -0.6921    0.0000 H   0  0  0  0  0  0  0  0  0  0  0  0
    5.4277    1.5939    0.0000 H   0  0  0  0  0  0  0  0  0  0  0  0
    2.0000   -2.8146    0.0000 H   0  0  0  0  0  0  0  0  0  0  0  0
    8.2700   -1.4346    0.0000 H   0  0  0  0  0  0  0  0  0  0  0  0
    5.4641   -1.4346    0.0000 H   0  0  0  0  0  0  0  0  0  0  0  0
    8.2700    0.1854    0.0000 H   0  0  0  0  0  0  0  0  0  0  0  0
    5.4641    0.1854    0.0000 H   0  0  0  0  0  0  0  0  0  0  0  0
   10.1187    5.9322    0.0000 H   0  0  0  0  0  0  0  0  0  0  0  0
    9.5011    6.5546    0.0000 H   0  0  0  0  0  0  0  0  0  0  0  0
    8.8787    5.9370    0.0000 H   0  0  0  0  0  0  0  0  0  0  0  0
    6.0331    5.5679    0.0000 H   0  0  0  0  0  0  0  0  0  0  0  0
  1 18  1  0  0  0  0
  1 20  1  0  0  0  0
  2 25  1  0  0  0  0
  2 27  1  0  0  0  0
  3 16  1  0  0  0  0
  3 56  1  0  0  0  0
  4 17  1  0  0  0  0
  4 57  1  0  0  0  0
  5 19  1  0  0  0  0
  5 58  1  0  0  0  0
  6 27  1  0  0  0  0
  6 36  1  0  0  0  0
  7 22  1  0  0  0  0
  7 62  1  0  0  0  0
  8 23  1  0  0  0  0
  8 63  1  0  0  0  0
  9 24  1  0  0  0  0
  9 64  1  0  0  0  0
 10 28  1  0  0  0  0
 10 34  1  0  0  0  0
 11 26  1  0  0  0  0
 11 65  1  0  0  0  0
 12 29  1  0  0  0  0
 12 43  1  0  0  0  0
 13 30  1  0  0  0  0
 13 67  1  0  0  0  0
 14 33  1  0  0  0  0
 14 75  1  0  0  0  0
 15 35  2  0  0  0  0
 16 17  1  0  0  0  0
 16 18  1  0  0  0  0
 16 44  1  0  0  0  0
 17 19  1  0  0  0  0
 17 45  1  0  0  0  0
 18 21  1  0  0  0  0
 18 46  1  0  0  0  0
 19 20  1  0  0  0  0
 19 47  1  0  0  0  0
 20 26  1  0  0  0  0
 20 48  1  0  0  0  0
 21 28  1  0  0  0  0
 21 29  2  0  0  0  0
 22 23  1  0  0  0  0
 22 24  1  0  0  0  0
 22 49  1  0  0  0  0
 23 25  1  0  0  0  0
 23 50  1  0  0  0  0
 24 27  1  0  0  0  0
 24 51  1  0  0  0  0
 25 30  1  0  0  0  0
 25 52  1  0  0  0  0
 26 53  1  0  0  0  0
 26 54  1  0  0  0  0
 27 55  1  0  0  0  0
 28 31  2  0  0  0  0
 29 32  1  0  0  0  0
 30 59  1  0  0  0  0
 30 60  1  0  0  0  0
 31 33  1  0  0  0  0
 31 35  1  0  0  0  0
 32 33  2  0  0  0  0
 32 61  1  0  0  0  0
 34 37  2  0  0  0  0
 34 38  1  0  0  0  0
 35 37  1  0  0  0  0
 36 39  2  0  0  0  0
 36 40  1  0  0  0  0
 37 66  1  0  0  0  0
 38 41  2  0  0  0  0
 38 42  1  0  0  0  0
 39 41  1  0  0  0  0
 39 68  1  0  0  0  0
 40 42  2  0  0  0  0
 40 69  1  0  0  0  0
 41 70  1  0  0  0  0
 42 71  1  0  0  0  0
 43 72  1  0  0  0  0
 43 73  1  0  0  0  0
 43 74  1  0  0  0  0
M  END
>  <PUBCHEM_COMPOUND_CID>
74977792

>  <PUBCHEM_COMPOUND_CANONICALIZED>
1

>  <PUBCHEM_CACTVS_COMPLEXITY>
987

>  <PUBCHEM_CACTVS_HBOND_ACCEPTOR>
15

>  <PUBCHEM_CACTVS_HBOND_DONOR>
9

>  <PUBCHEM_CACTVS_ROTATABLE_BOND>
7

>  <PUBCHEM_CACTVS_SUBSKEYS>
AAADcfB4PAAAAAAAAAAAAAAAAAAAAAAAAAA0aIECAAAAAACBQAAAGgAACAAADBSwmAMyDoAABgCIAqBSAAACCAAkIAAIiAEGCMgdNzaGNRqieWCl4BUPuQfI7PzOIAACCAAIAABAAAQQABAAAAAAAAAAAA==

>  <PUBCHEM_IUPAC_OPENEYE_NAME>
5-hydroxy-7-methoxy-8-[3,4,5-trihydroxy-6-(hydroxymethyl)tetrahydropyran-2-yl]-2-[4-[3,4,5-trihydroxy-6-(hydroxymethyl)tetrahydropyran-2-yl]oxyphenyl]chromen-4-one

>  <PUBCHEM_IUPAC_CAS_NAME>
5-hydroxy-7-methoxy-8-[3,4,5-trihydroxy-6-(hydroxymethyl)-2-oxanyl]-2-[4-[[3,4,5-trihydroxy-6-(hydroxymethyl)-2-oxanyl]oxy]phenyl]-1-benzopyran-4-one

>  <PUBCHEM_IUPAC_NAME>
5-hydroxy-7-methoxy-8-[3,4,5-trihydroxy-6-(hydroxymethyl)oxan-2-yl]-2-[4-[3,4,5-trihydroxy-6-(hydroxymethyl)oxan-2-yl]oxyphenyl]chromen-4-one

>  <PUBCHEM_IUPAC_SYSTEMATIC_NAME>
8-[6-(hydroxymethyl)-3,4,5-tris(oxidanyl)oxan-2-yl]-2-[4-[6-(hydroxymethyl)-3,4,5-tris(oxidanyl)oxan-2-yl]oxyphenyl]-7-methoxy-5-oxidanyl-chromen-4-one

>  <PUBCHEM_IUPAC_TRADITIONAL_NAME>
5-hydroxy-7-methoxy-8-(3,4,5-trihydroxy-6-methylol-tetrahydropyran-2-yl)-2-[4-(3,4,5-trihydroxy-6-methylol-tetrahydropyran-2-yl)oxyphenyl]chromone

>  <PUBCHEM_IUPAC_INCHI>
InChI=1S/C28H32O15/c1-39-15-7-13(32)18-12(31)6-14(41-26(18)19(15)27-24(37)22(35)20(33)16(8-29)42-27)10-2-4-11(5-3-10)40-28-25(38)23(36)21(34)17(9-30)43-28/h2-7,16-17,20-25,27-30,32-38H,8-9H2,1H3

>  <PUBCHEM_IUPAC_INCHIKEY>
ZCDDNVDFOHBRBE-UHFFFAOYSA-N

>  <PUBCHEM_XLOGP3_AA>
-1.3

>  <PUBCHEM_EXACT_MASS>
608.174

>  <PUBCHEM_MOLECULAR_FORMULA>
C28H32O15

>  <PUBCHEM_MOLECULAR_WEIGHT>
608.549

>  <PUBCHEM_OPENEYE_CAN_SMILES>
COC1=C(C2=C(C(=C1)O)C(=O)C=C(O2)C3=CC=C(C=C3)OC4C(C(C(C(O4)CO)O)O)O)C5C(C(C(C(O5)CO)O)O)O

>  <PUBCHEM_OPENEYE_ISO_SMILES>
COC1=C(C2=C(C(=C1)O)C(=O)C=C(O2)C3=CC=C(C=C3)OC4C(C(C(C(O4)CO)O)O)O)C5C(C(C(C(O5)CO)O)O)O

>  <PUBCHEM_CACTVS_TPSA>
245

>  <PUBCHEM_MONOISOTOPIC_WEIGHT>
608.174

>  <PUBCHEM_TOTAL_CHARGE>
0

>  <PUBCHEM_HEAVY_ATOM_COUNT>
43

>  <PUBCHEM_ATOM_DEF_STEREO_COUNT>
0

>  <PUBCHEM_ATOM_UDEF_STEREO_COUNT>
10

>  <PUBCHEM_BOND_DEF_STEREO_COUNT>
0

>  <PUBCHEM_BOND_UDEF_STEREO_COUNT>
0

>  <PUBCHEM_ISOTOPIC_ATOM_COUNT>
0

>  <PUBCHEM_COMPONENT_COUNT>
1

>  <PUBCHEM_CACTVS_TAUTO_COUNT>
5

>  <PUBCHEM_COORDINATE_TYPE>
1
5
255

>  <PUBCHEM_BONDANNOTATIONS>
10  28  8
10  34  8
18  21  3
20  26  3
21  28  8
21  29  8
25  30  3
28  31  8
29  32  8
16  3  3
31  33  8
31  35  8
32  33  8
34  37  8
35  37  8
36  39  8
36  40  8
38  41  8
38  42  8
39  41  8
17  4  3
40  42  8
19  5  3
27  6  3
22  7  3
23  8  3
24  9  3

$$$$
