74978444
 OpenBabel06101807152D

 94 99  0  0  1  0  0  0  0  0999 V2000
   10.3984    0.0950    0.0000 O   0  0  0  0  0  0  0  0  0  0  0  0
    9.5323   -2.4050    0.0000 O   0  0  0  0  0  0  0  0  0  0  0  0
    7.8003   -2.4050    0.0000 O   0  0  0  0  0  0  0  0  0  0  0  0
   11.2644   -2.4050    0.0000 O   0  0  0  0  0  0  0  0  0  0  0  0
   11.2644    1.5950    0.0000 O   0  0  0  0  0  0  0  0  0  0  0  0
   12.9964   -1.4050    0.0000 O   0  0  0  0  0  0  0  0  0  0  0  0
    5.1304    3.0675    0.0000 O   0  0  0  0  0  0  0  0  0  0  0  0
   12.9964    0.5950    0.0000 O   0  0  0  0  0  0  0  0  0  0  0  0
    9.5323   -4.4050    0.0000 O   0  0  0  0  0  0  0  0  0  0  0  0
    7.8003   -5.4050    0.0000 O   0  0  0  0  0  0  0  0  0  0  0  0
    6.0682   -4.4050    0.0000 O   0  0  0  0  0  0  0  0  0  0  0  0
    6.0022    1.5708    0.0000 O   0  0  0  0  0  0  0  0  0  0  0  0
    2.5381    1.5575    0.0000 O   0  0  0  0  0  0  0  0  0  0  0  0
    2.5304    3.5575    0.0000 O   0  0  0  0  0  0  0  0  0  0  0  0
    4.2740    0.5642    0.0000 O   0  0  0  0  0  0  0  0  0  0  0  0
    5.1227    5.0675    0.0000 O   0  0  0  0  0  0  0  0  0  0  0  0
    9.5323    3.5950    0.0000 O   0  0  0  0  0  0  0  0  0  0  0  0
    7.7839    0.5604    0.0000 O   0  0  0  0  0  0  0  0  0  0  0  0
    9.5323    0.5950    0.0000 O   0  0  0  0  0  0  0  0  0  0  0  0
    6.0022    3.6192    0.0000 O   0  0  0  0  0  0  0  0  0  0  0  0
   13.8625    5.0950    0.0000 O   0  0  0  0  0  0  0  0  0  0  0  0
   10.3984   -0.9050    0.0000 C   0  0  3  0  0  0  0  0  0  0  0  0
   11.2644   -1.4050    0.0000 C   0  0  3  0  0  0  0  0  0  0  0  0
   12.1304   -0.9050    0.0000 C   0  0  3  0  0  0  0  0  0  0  0  0
   12.1304    0.0950    0.0000 C   0  0  3  0  0  0  0  0  0  0  0  0
    8.6663   -3.9050    0.0000 C   0  0  3  0  0  0  0  0  0  0  0  0
    8.6663   -2.9050    0.0000 C   0  0  3  0  0  0  0  0  0  0  0  0
    7.8003   -4.4050    0.0000 C   0  0  3  0  0  0  0  0  0  0  0  0
   11.2644    0.5950    0.0000 C   0  0  3  0  0  0  0  0  0  0  0  0
    6.9342   -3.9050    0.0000 C   0  0  3  0  0  0  0  0  0  0  0  0
    9.5323   -1.4050    0.0000 C   0  0  0  0  0  0  0  0  0  0  0  0
    6.9342   -2.9050    0.0000 C   0  0  3  0  0  0  0  0  0  0  0  0
    3.4022    2.0608    0.0000 C   0  0  3  0  0  0  0  0  0  0  0  0
    3.3984    3.0608    0.0000 C   0  0  3  0  0  0  0  0  0  0  0  0
    4.2702    1.5642    0.0000 C   0  0  3  0  0  0  0  0  0  0  0  0
    4.2625    3.5642    0.0000 C   0  0  3  0  0  0  0  0  0  0  0  0
    5.1343    2.0675    0.0000 C   0  0  3  0  0  0  0  0  0  0  0  0
    6.0682   -2.4050    0.0000 C   0  0  0  0  0  0  0  0  0  0  0  0
    4.2586    4.5642    0.0000 C   0  0  0  0  0  0  0  0  0  0  0  0
   10.3984    2.0950    0.0000 C   0  0  0  0  0  0  0  0  0  0  0  0
    6.8663    2.0742    0.0000 C   0  0  0  0  0  0  0  0  0  0  0  0
    9.5323    1.5950    0.0000 C   0  0  0  0  0  0  0  0  0  0  0  0
    8.6663    2.0950    0.0000 C   0  0  0  0  0  0  0  0  0  0  0  0
   10.3984    3.0950    0.0000 C   0  0  0  0  0  0  0  0  0  0  0  0
    7.7724    1.5603    0.0000 C   0  0  0  0  0  0  0  0  0  0  0  0
    8.6663    3.0950    0.0000 C   0  0  0  0  0  0  0  0  0  0  0  0
    6.8663    3.1158    0.0000 C   0  0  0  0  0  0  0  0  0  0  0  0
    7.7724    3.6297    0.0000 C   0  0  0  0  0  0  0  0  0  0  0  0
   11.2644    3.5950    0.0000 C   0  0  0  0  0  0  0  0  0  0  0  0
   11.2644    4.5950    0.0000 C   0  0  0  0  0  0  0  0  0  0  0  0
   12.1304    3.0950    0.0000 C   0  0  0  0  0  0  0  0  0  0  0  0
   12.1304    5.0950    0.0000 C   0  0  0  0  0  0  0  0  0  0  0  0
   12.9964    3.5950    0.0000 C   0  0  0  0  0  0  0  0  0  0  0  0
   12.9964    4.5950    0.0000 C   0  0  0  0  0  0  0  0  0  0  0  0
    9.8614   -0.5950    0.0000 H   0  0  0  0  0  0  0  0  0  0  0  0
   11.8013   -1.7150    0.0000 H   0  0  0  0  0  0  0  0  0  0  0  0
   12.6673   -0.5950    0.0000 H   0  0  0  0  0  0  0  0  0  0  0  0
   12.1304    0.7150    0.0000 H   0  0  0  0  0  0  0  0  0  0  0  0
    9.2032   -3.5950    0.0000 H   0  0  0  0  0  0  0  0  0  0  0  0
    8.6663   -2.2850    0.0000 H   0  0  0  0  0  0  0  0  0  0  0  0
    8.3372   -4.7150    0.0000 H   0  0  0  0  0  0  0  0  0  0  0  0
   10.7274    0.9050    0.0000 H   0  0  0  0  0  0  0  0  0  0  0  0
    6.3973   -3.5950    0.0000 H   0  0  0  0  0  0  0  0  0  0  0  0
    9.3203   -0.8224    0.0000 H   0  0  0  0  0  0  0  0  0  0  0  0
    8.9218   -1.5127    0.0000 H   0  0  0  0  0  0  0  0  0  0  0  0
    6.9342   -2.2850    0.0000 H   0  0  0  0  0  0  0  0  0  0  0  0
    2.8641    2.3688    0.0000 H   0  0  0  0  0  0  0  0  0  0  0  0
    3.3960    3.6808    0.0000 H   0  0  0  0  0  0  0  0  0  0  0  0
    3.7344    1.2521    0.0000 H   0  0  0  0  0  0  0  0  0  0  0  0
    4.7982    3.8762    0.0000 H   0  0  0  0  0  0  0  0  0  0  0  0
    5.1367    1.4475    0.0000 H   0  0  0  0  0  0  0  0  0  0  0  0
    6.3782   -1.8681    0.0000 H   0  0  0  0  0  0  0  0  0  0  0  0
    5.5313   -2.0950    0.0000 H   0  0  0  0  0  0  0  0  0  0  0  0
    5.7582   -2.9419    0.0000 H   0  0  0  0  0  0  0  0  0  0  0  0
   10.7274   -2.7150    0.0000 H   0  0  0  0  0  0  0  0  0  0  0  0
   12.9964   -2.0250    0.0000 H   0  0  0  0  0  0  0  0  0  0  0  0
   13.5334    0.2850    0.0000 H   0  0  0  0  0  0  0  0  0  0  0  0
    4.0443    5.1459    0.0000 H   0  0  0  0  0  0  0  0  0  0  0  0
    3.6484    4.4541    0.0000 H   0  0  0  0  0  0  0  0  0  0  0  0
   10.0693   -4.0950    0.0000 H   0  0  0  0  0  0  0  0  0  0  0  0
    7.2633   -5.7150    0.0000 H   0  0  0  0  0  0  0  0  0  0  0  0
    5.5313   -4.0950    0.0000 H   0  0  0  0  0  0  0  0  0  0  0  0
    2.0000    1.8654    0.0000 H   0  0  0  0  0  0  0  0  0  0  0  0
    2.5280    4.1775    0.0000 H   0  0  0  0  0  0  0  0  0  0  0  0
    3.7383    0.2521    0.0000 H   0  0  0  0  0  0  0  0  0  0  0  0
    5.1203    5.6875    0.0000 H   0  0  0  0  0  0  0  0  0  0  0  0
    7.7795    4.2496    0.0000 H   0  0  0  0  0  0  0  0  0  0  0  0
    7.2506    0.2442    0.0000 H   0  0  0  0  0  0  0  0  0  0  0  0
   10.7274    4.9050    0.0000 H   0  0  0  0  0  0  0  0  0  0  0  0
   12.1304    2.4750    0.0000 H   0  0  0  0  0  0  0  0  0  0  0  0
    6.0046    4.2392    0.0000 H   0  0  0  0  0  0  0  0  0  0  0  0
   12.1304    5.7150    0.0000 H   0  0  0  0  0  0  0  0  0  0  0  0
   13.5334    3.2850    0.0000 H   0  0  0  0  0  0  0  0  0  0  0  0
   13.8625    5.7150    0.0000 H   0  0  0  0  0  0  0  0  0  0  0  0
  1 22  1  0  0  0  0
  1 29  1  0  0  0  0
  2 27  1  0  0  0  0
  2 31  1  0  0  0  0
  3 27  1  0  0  0  0
  3 32  1  0  0  0  0
  4 23  1  0  0  0  0
  4 75  1  0  0  0  0
  5 29  1  0  0  0  0
  5 40  1  0  0  0  0
  6 24  1  0  0  0  0
  6 76  1  0  0  0  0
  7 36  1  0  0  0  0
  7 37  1  0  0  0  0
  8 25  1  0  0  0  0
  8 77  1  0  0  0  0
  9 26  1  0  0  0  0
  9 80  1  0  0  0  0
 10 28  1  0  0  0  0
 10 81  1  0  0  0  0
 11 30  1  0  0  0  0
 11 82  1  0  0  0  0
 12 37  1  0  0  0  0
 12 41  1  0  0  0  0
 13 33  1  0  0  0  0
 13 83  1  0  0  0  0
 14 34  1  0  0  0  0
 14 84  1  0  0  0  0
 15 35  1  0  0  0  0
 15 85  1  0  0  0  0
 16 39  1  0  0  0  0
 16 86  1  0  0  0  0
 17 44  1  0  0  0  0
 17 46  1  0  0  0  0
 18 45  1  0  0  0  0
 18 88  1  0  0  0  0
 19 42  2  0  0  0  0
 20 47  1  0  0  0  0
 20 91  1  0  0  0  0
 21 54  1  0  0  0  0
 21 94  1  0  0  0  0
 22 23  1  0  0  0  0
 22 31  1  0  0  0  0
 22 55  1  0  0  0  0
 23 24  1  0  0  0  0
 23 56  1  0  0  0  0
 24 25  1  0  0  0  0
 24 57  1  0  0  0  0
 25 29  1  0  0  0  0
 25 58  1  0  0  0  0
 26 27  1  0  0  0  0
 26 28  1  0  0  0  0
 26 59  1  0  0  0  0
 27 60  1  0  0  0  0
 28 30  1  0  0  0  0
 28 61  1  0  0  0  0
 29 62  1  0  0  0  0
 30 32  1  0  0  0  0
 30 63  1  0  0  0  0
 31 64  1  0  0  0  0
 31 65  1  0  0  0  0
 32 38  1  0  0  0  0
 32 66  1  0  0  0  0
 33 34  1  0  0  0  0
 33 35  1  0  0  0  0
 33 67  1  0  0  0  0
 34 36  1  0  0  0  0
 34 68  1  0  0  0  0
 35 37  1  0  0  0  0
 35 69  1  0  0  0  0
 36 39  1  0  0  0  0
 36 70  1  0  0  0  0
 37 71  1  0  0  0  0
 38 72  1  0  0  0  0
 38 73  1  0  0  0  0
 38 74  1  0  0  0  0
 39 78  1  0  0  0  0
 39 79  1  0  0  0  0
 40 42  1  0  0  0  0
 40 44  2  0  0  0  0
 41 45  2  0  0  0  0
 41 47  1  0  0  0  0
 42 43  1  0  0  0  0
 43 45  1  0  0  0  0
 43 46  2  0  0  0  0
 44 49  1  0  0  0  0
 46 48  1  0  0  0  0
 47 48  2  0  0  0  0
 48 87  1  0  0  0  0
 49 50  2  0  0  0  0
 49 51  1  0  0  0  0
 50 52  1  0  0  0  0
 50 89  1  0  0  0  0
 51 53  2  0  0  0  0
 51 90  1  0  0  0  0
 52 54  2  0  0  0  0
 52 92  1  0  0  0  0
 53 54  1  0  0  0  0
 53 93  1  0  0  0  0
M  END
>  <PUBCHEM_COMPOUND_CID>
74978444

>  <PUBCHEM_COMPOUND_CANONICALIZED>
1

>  <PUBCHEM_CACTVS_COMPLEXITY>
1310

>  <PUBCHEM_CACTVS_HBOND_ACCEPTOR>
21

>  <PUBCHEM_CACTVS_HBOND_DONOR>
13

>  <PUBCHEM_CACTVS_ROTATABLE_BOND>
9

>  <PUBCHEM_CACTVS_SUBSKEYS>
AAADcfB8PgAAAAAAAAAAAAAAAAAAAAAAAAA0aJECAAAAAACBQAAAGgAACAAADBSwmAMyDoAABgCIAqBSAAICCAAkIAAIiAFGiMgdNzaGNR6ieWOl4BUPuQfK7LzOIQABCAAIQABCAAIQABCAAAAAAAAAAA==

>  <PUBCHEM_IUPAC_OPENEYE_NAME>
5,7-dihydroxy-2-(4-hydroxyphenyl)-6-[3,4,5-trihydroxy-6-(hydroxymethyl)tetrahydropyran-2-yl]oxy-3-[3,4,5-trihydroxy-6-[(3,4,5-trihydroxy-6-methyl-tetrahydropyran-2-yl)oxymethyl]tetrahydropyran-2-yl]oxy-chromen-4-one

>  <PUBCHEM_IUPAC_CAS_NAME>
5,7-dihydroxy-2-(4-hydroxyphenyl)-6-[[3,4,5-trihydroxy-6-(hydroxymethyl)-2-oxanyl]oxy]-3-[[3,4,5-trihydroxy-6-[(3,4,5-trihydroxy-6-methyl-2-oxanyl)oxymethyl]-2-oxanyl]oxy]-1-benzopyran-4-one

>  <PUBCHEM_IUPAC_NAME>
5,7-dihydroxy-2-(4-hydroxyphenyl)-6-[3,4,5-trihydroxy-6-(hydroxymethyl)oxan-2-yl]oxy-3-[3,4,5-trihydroxy-6-[(3,4,5-trihydroxy-6-methyloxan-2-yl)oxymethyl]oxan-2-yl]oxychromen-4-one

>  <PUBCHEM_IUPAC_SYSTEMATIC_NAME>
6-[6-(hydroxymethyl)-3,4,5-tris(oxidanyl)oxan-2-yl]oxy-2-(4-hydroxyphenyl)-3-[6-[[6-methyl-3,4,5-tris(oxidanyl)oxan-2-yl]oxymethyl]-3,4,5-tris(oxidanyl)oxan-2-yl]oxy-5,7-bis(oxidanyl)chromen-4-one

>  <PUBCHEM_IUPAC_TRADITIONAL_NAME>
5,7-dihydroxy-2-(4-hydroxyphenyl)-6-(3,4,5-trihydroxy-6-methylol-tetrahydropyran-2-yl)oxy-3-[3,4,5-trihydroxy-6-[(3,4,5-trihydroxy-6-methyl-tetrahydropyran-2-yl)oxymethyl]tetrahydropyran-2-yl]oxy-chromone

>  <PUBCHEM_IUPAC_INCHI>
InChI=1S/C33H40O21/c1-9-17(37)22(42)25(45)31(49-9)48-8-15-19(39)24(44)27(47)33(52-15)54-30-21(41)16-13(50-28(30)10-2-4-11(35)5-3-10)6-12(36)29(20(16)40)53-32-26(46)23(43)18(38)14(7-34)51-32/h2-6,9,14-15,17-19,22-27,31-40,42-47H,7-8H2,1H3

>  <PUBCHEM_IUPAC_INCHIKEY>
NEXCWFVNYYIZCR-UHFFFAOYSA-N

>  <PUBCHEM_XLOGP3_AA>
-3.1

>  <PUBCHEM_EXACT_MASS>
772.206

>  <PUBCHEM_MOLECULAR_FORMULA>
C33H40O21

>  <PUBCHEM_MOLECULAR_WEIGHT>
772.662

>  <PUBCHEM_OPENEYE_CAN_SMILES>
CC1C(C(C(C(O1)OCC2C(C(C(C(O2)OC3=C(OC4=CC(=C(C(=C4C3=O)O)OC5C(C(C(C(O5)CO)O)O)O)O)C6=CC=C(C=C6)O)O)O)O)O)O)O

>  <PUBCHEM_OPENEYE_ISO_SMILES>
CC1C(C(C(C(O1)OCC2C(C(C(C(O2)OC3=C(OC4=CC(=C(C(=C4C3=O)O)OC5C(C(C(C(O5)CO)O)O)O)O)C6=CC=C(C=C6)O)O)O)O)O)O)O

>  <PUBCHEM_CACTVS_TPSA>
345

>  <PUBCHEM_MONOISOTOPIC_WEIGHT>
772.206

>  <PUBCHEM_TOTAL_CHARGE>
0

>  <PUBCHEM_HEAVY_ATOM_COUNT>
54

>  <PUBCHEM_ATOM_DEF_STEREO_COUNT>
0

>  <PUBCHEM_ATOM_UDEF_STEREO_COUNT>
15

>  <PUBCHEM_BOND_DEF_STEREO_COUNT>
0

>  <PUBCHEM_BOND_UDEF_STEREO_COUNT>
0

>  <PUBCHEM_ISOTOPIC_ATOM_COUNT>
0

>  <PUBCHEM_COMPONENT_COUNT>
1

>  <PUBCHEM_CACTVS_TAUTO_COUNT>
57

>  <PUBCHEM_COORDINATE_TYPE>
1
5
255

>  <PUBCHEM_BONDANNOTATIONS>
28  10  3
30  11  3
37  12  3
33  13  3
34  14  3
35  15  3
17  44  8
17  46  8
27  2  3
22  31  3
32  38  3
36  39  3
23  4  3
40  42  8
40  44  8
41  45  8
41  47  8
42  43  8
43  45  8
43  46  8
46  48  8
47  48  8
49  50  8
49  51  8
29  5  3
50  52  8
51  53  8
52  54  8
53  54  8
24  6  3
25  8  3
26  9  3

$$$$
