74977488
 OpenBabel06101807152D

 89 94  0  0  1  0  0  0  0  0999 V2000
    9.4833    0.2773    0.0000 O   0  0  0  0  0  0  0  0  0  0  0  0
    8.6346    4.7806    0.0000 O   0  0  0  0  0  0  0  0  0  0  0  0
   10.3589    2.7740    0.0000 O   0  0  0  0  0  0  0  0  0  0  0  0
   12.0871    1.7673    0.0000 O   0  0  0  0  0  0  0  0  0  0  0  0
   12.0794   -0.2327    0.0000 O   0  0  0  0  0  0  0  0  0  0  0  0
    7.7671    0.2424    0.0000 O   0  0  0  0  0  0  0  0  0  0  0  0
    6.0346    4.2906    0.0000 O   0  0  0  0  0  0  0  0  0  0  0  0
    5.1350   -4.2819    0.0000 O   0  0  0  0  0  0  0  0  0  0  0  0
    6.0423    6.2906    0.0000 O   0  0  0  0  0  0  0  0  0  0  0  0
    9.4948    3.2773    0.0000 O   0  0  0  0  0  0  0  0  0  0  0  0
    7.7782    7.2839    0.0000 O   0  0  0  0  0  0  0  0  0  0  0  0
   11.2076   -1.7294    0.0000 O   0  0  0  0  0  0  0  0  0  0  0  0
    6.0308    3.2906    0.0000 O   0  0  0  0  0  0  0  0  0  0  0  0
    6.8671   -4.2819    0.0000 O   0  0  0  0  0  0  0  0  0  0  0  0
    5.1350   -7.2819    0.0000 O   0  0  0  0  0  0  0  0  0  0  0  0
    3.4030   -6.2819    0.0000 O   0  0  0  0  0  0  0  0  0  0  0  0
    6.8671   -6.2819    0.0000 O   0  0  0  0  0  0  0  0  0  0  0  0
    5.1208    1.7973    0.0000 O   0  0  0  0  0  0  0  0  0  0  0  0
    2.5369   -4.7819    0.0000 O   0  0  0  0  0  0  0  0  0  0  0  0
    9.4871    1.2773    0.0000 C   0  0  3  0  0  0  0  0  0  0  0  0
   10.3551    1.7740    0.0000 C   0  0  3  0  0  0  0  0  0  0  0  0
   11.2192    1.2706    0.0000 C   0  0  3  0  0  0  0  0  0  0  0  0
   11.2153    0.2706    0.0000 C   0  0  3  0  0  0  0  0  0  0  0  0
   10.3474   -0.2260    0.0000 C   0  0  3  0  0  0  0  0  0  0  0  0
    8.6230    1.7806    0.0000 C   0  0  0  0  0  0  0  0  0  0  0  0
    7.7666    4.2840    0.0000 C   0  0  3  0  0  0  0  0  0  0  0  0
    6.9026    4.7873    0.0000 C   0  0  3  0  0  0  0  0  0  0  0  0
    7.7628    3.2840    0.0000 C   0  0  0  0  0  0  0  0  0  0  0  0
    6.9064    5.7873    0.0000 C   0  0  3  0  0  0  0  0  0  0  0  0
    8.6269    2.7806    0.0000 C   0  0  0  0  0  0  0  0  0  0  0  0
    7.7551    1.2840    0.0000 C   0  0  0  0  0  0  0  0  0  0  0  0
    7.7744    6.2840    0.0000 C   0  0  3  0  0  0  0  0  0  0  0  0
   10.3435   -1.2260    0.0000 C   0  0  0  0  0  0  0  0  0  0  0  0
    8.6384    5.7806    0.0000 C   0  0  0  0  0  0  0  0  0  0  0  0
    6.8948    2.7873    0.0000 C   0  0  0  0  0  0  0  0  0  0  0  0
    6.8910    1.7873    0.0000 C   0  0  0  0  0  0  0  0  0  0  0  0
    5.1350   -6.2819    0.0000 C   0  0  3  0  0  0  0  0  0  0  0  0
    4.2690   -5.7819    0.0000 C   0  0  3  0  0  0  0  0  0  0  0  0
    6.0010   -5.7819    0.0000 C   0  0  3  0  0  0  0  0  0  0  0  0
    4.2690   -4.7819    0.0000 C   0  0  3  0  0  0  0  0  0  0  0  0
    6.0010   -4.7819    0.0000 C   0  0  3  0  0  0  0  0  0  0  0  0
    5.9790    1.2840    0.0000 C   0  0  0  0  0  0  0  0  0  0  0  0
    6.8671   -0.2819    0.0000 C   0  0  0  0  0  0  0  0  0  0  0  0
    3.4030   -4.2819    0.0000 C   0  0  0  0  0  0  0  0  0  0  0  0
    5.9670    0.2424    0.0000 C   0  0  0  0  0  0  0  0  0  0  0  0
    6.8671   -1.2819    0.0000 C   0  0  0  0  0  0  0  0  0  0  0  0
    6.8671   -3.2819    0.0000 C   0  0  0  0  0  0  0  0  0  0  0  0
    6.0010   -1.7819    0.0000 C   0  0  0  0  0  0  0  0  0  0  0  0
    7.7331   -1.7819    0.0000 C   0  0  0  0  0  0  0  0  0  0  0  0
    6.0010   -2.7819    0.0000 C   0  0  0  0  0  0  0  0  0  0  0  0
    7.7331   -2.7819    0.0000 C   0  0  0  0  0  0  0  0  0  0  0  0
    9.4895    1.8973    0.0000 H   0  0  0  0  0  0  0  0  0  0  0  0
   10.8932    2.0819    0.0000 H   0  0  0  0  0  0  0  0  0  0  0  0
   11.7549    0.9586    0.0000 H   0  0  0  0  0  0  0  0  0  0  0  0
   11.2129   -0.3494    0.0000 H   0  0  0  0  0  0  0  0  0  0  0  0
    9.8092   -0.5339    0.0000 H   0  0  0  0  0  0  0  0  0  0  0  0
    8.3024    3.9719    0.0000 H   0  0  0  0  0  0  0  0  0  0  0  0
    6.3668    5.0994    0.0000 H   0  0  0  0  0  0  0  0  0  0  0  0
    6.9088    6.4073    0.0000 H   0  0  0  0  0  0  0  0  0  0  0  0
    8.3125    6.5919    0.0000 H   0  0  0  0  0  0  0  0  0  0  0  0
    9.7333   -1.1160    0.0000 H   0  0  0  0  0  0  0  0  0  0  0  0
   10.1292   -1.8078    0.0000 H   0  0  0  0  0  0  0  0  0  0  0  0
    9.2486    5.6706    0.0000 H   0  0  0  0  0  0  0  0  0  0  0  0
    8.8527    6.3624    0.0000 H   0  0  0  0  0  0  0  0  0  0  0  0
    5.6720   -6.5919    0.0000 H   0  0  0  0  0  0  0  0  0  0  0  0
    4.2690   -6.4019    0.0000 H   0  0  0  0  0  0  0  0  0  0  0  0
   10.8970    3.0819    0.0000 H   0  0  0  0  0  0  0  0  0  0  0  0
    6.5380   -5.4719    0.0000 H   0  0  0  0  0  0  0  0  0  0  0  0
    4.2690   -4.1619    0.0000 H   0  0  0  0  0  0  0  0  0  0  0  0
   12.6228    1.4552    0.0000 H   0  0  0  0  0  0  0  0  0  0  0  0
   12.6175    0.0752    0.0000 H   0  0  0  0  0  0  0  0  0  0  0  0
    6.0010   -4.1619    0.0000 H   0  0  0  0  0  0  0  0  0  0  0  0
    5.4989    4.6027    0.0000 H   0  0  0  0  0  0  0  0  0  0  0  0
    6.0447    6.9106    0.0000 H   0  0  0  0  0  0  0  0  0  0  0  0
    9.4972    3.8973    0.0000 H   0  0  0  0  0  0  0  0  0  0  0  0
    3.8015   -3.8069    0.0000 H   0  0  0  0  0  0  0  0  0  0  0  0
    3.0044   -3.8069    0.0000 H   0  0  0  0  0  0  0  0  0  0  0  0
    8.3163    7.5919    0.0000 H   0  0  0  0  0  0  0  0  0  0  0  0
    5.4277   -0.0634    0.0000 H   0  0  0  0  0  0  0  0  0  0  0  0
   11.2052   -2.3493    0.0000 H   0  0  0  0  0  0  0  0  0  0  0  0
    5.4926    2.9827    0.0000 H   0  0  0  0  0  0  0  0  0  0  0  0
    5.6720   -7.5919    0.0000 H   0  0  0  0  0  0  0  0  0  0  0  0
    3.4030   -6.9019    0.0000 H   0  0  0  0  0  0  0  0  0  0  0  0
    7.4040   -5.9719    0.0000 H   0  0  0  0  0  0  0  0  0  0  0  0
    5.4641   -1.4719    0.0000 H   0  0  0  0  0  0  0  0  0  0  0  0
    8.2700   -1.4719    0.0000 H   0  0  0  0  0  0  0  0  0  0  0  0
    5.4641   -3.0919    0.0000 H   0  0  0  0  0  0  0  0  0  0  0  0
    8.2700   -3.0919    0.0000 H   0  0  0  0  0  0  0  0  0  0  0  0
    2.0000   -4.4719    0.0000 H   0  0  0  0  0  0  0  0  0  0  0  0
  1 20  1  0  0  0  0
  1 24  1  0  0  0  0
  2 26  1  0  0  0  0
  2 34  1  0  0  0  0
  3 21  1  0  0  0  0
  3 67  1  0  0  0  0
  4 22  1  0  0  0  0
  4 70  1  0  0  0  0
  5 23  1  0  0  0  0
  5 71  1  0  0  0  0
  6 31  1  0  0  0  0
  6 43  1  0  0  0  0
  7 27  1  0  0  0  0
  7 73  1  0  0  0  0
  8 40  1  0  0  0  0
  8 41  1  0  0  0  0
  9 29  1  0  0  0  0
  9 74  1  0  0  0  0
 10 30  1  0  0  0  0
 10 75  1  0  0  0  0
 11 32  1  0  0  0  0
 11 78  1  0  0  0  0
 12 33  1  0  0  0  0
 12 80  1  0  0  0  0
 13 35  1  0  0  0  0
 13 81  1  0  0  0  0
 14 41  1  0  0  0  0
 14 47  1  0  0  0  0
 15 37  1  0  0  0  0
 15 82  1  0  0  0  0
 16 38  1  0  0  0  0
 16 83  1  0  0  0  0
 17 39  1  0  0  0  0
 17 84  1  0  0  0  0
 18 42  2  0  0  0  0
 19 44  1  0  0  0  0
 19 89  1  0  0  0  0
 20 21  1  0  0  0  0
 20 25  1  0  0  0  0
 20 52  1  0  0  0  0
 21 22  1  0  0  0  0
 21 53  1  0  0  0  0
 22 23  1  0  0  0  0
 22 54  1  0  0  0  0
 23 24  1  0  0  0  0
 23 55  1  0  0  0  0
 24 33  1  0  0  0  0
 24 56  1  0  0  0  0
 25 30  1  0  0  0  0
 25 31  2  0  0  0  0
 26 27  1  0  0  0  0
 26 28  1  0  0  0  0
 26 57  1  0  0  0  0
 27 29  1  0  0  0  0
 27 58  1  0  0  0  0
 28 30  2  0  0  0  0
 28 35  1  0  0  0  0
 29 32  1  0  0  0  0
 29 59  1  0  0  0  0
 31 36  1  0  0  0  0
 32 34  1  0  0  0  0
 32 60  1  0  0  0  0
 33 61  1  0  0  0  0
 33 62  1  0  0  0  0
 34 63  1  0  0  0  0
 34 64  1  0  0  0  0
 35 36  2  0  0  0  0
 36 42  1  0  0  0  0
 37 38  1  0  0  0  0
 37 39  1  0  0  0  0
 37 65  1  0  0  0  0
 38 40  1  0  0  0  0
 38 66  1  0  0  0  0
 39 41  1  0  0  0  0
 39 68  1  0  0  0  0
 40 44  1  0  0  0  0
 40 69  1  0  0  0  0
 41 72  1  0  0  0  0
 42 45  1  0  0  0  0
 43 45  2  0  0  0  0
 43 46  1  0  0  0  0
 44 76  1  0  0  0  0
 44 77  1  0  0  0  0
 45 79  1  0  0  0  0
 46 48  2  0  0  0  0
 46 49  1  0  0  0  0
 47 50  2  0  0  0  0
 47 51  1  0  0  0  0
 48 50  1  0  0  0  0
 48 85  1  0  0  0  0
 49 51  2  0  0  0  0
 49 86  1  0  0  0  0
 50 87  1  0  0  0  0
 51 88  1  0  0  0  0
M  END
>  <PUBCHEM_COMPOUND_CID>
74977488

>  <PUBCHEM_COMPOUND_CANONICALIZED>
1

>  <PUBCHEM_CACTVS_COMPLEXITY>
1230

>  <PUBCHEM_CACTVS_HBOND_ACCEPTOR>
19

>  <PUBCHEM_CACTVS_HBOND_DONOR>
13

>  <PUBCHEM_CACTVS_ROTATABLE_BOND>
7

>  <PUBCHEM_CACTVS_SUBSKEYS>
AAADcfB8PgAAAAAAAAAAAAAAAAAAAAAAAAA0aJECAAAAAACBQAAAGgAACAAADBSwmAMwDoAABgCIAqBSAAACCAAkIAAIiAEGCMgdNzaGNRqieWCl4BUPuQfI7PzOIAACCAAIAABAAAQQABAAAAAAAAAAAA==

>  <PUBCHEM_IUPAC_OPENEYE_NAME>
5,7-dihydroxy-8-[3,4,5-trihydroxy-6-(hydroxymethyl)tetrahydropyran-2-yl]-2-[4-[3,4,5-trihydroxy-6-(hydroxymethyl)tetrahydropyran-2-yl]oxyphenyl]-6-(3,4,5-trihydroxytetrahydropyran-2-yl)chromen-4-one

>  <PUBCHEM_IUPAC_CAS_NAME>
5,7-dihydroxy-8-[3,4,5-trihydroxy-6-(hydroxymethyl)-2-oxanyl]-2-[4-[[3,4,5-trihydroxy-6-(hydroxymethyl)-2-oxanyl]oxy]phenyl]-6-(3,4,5-trihydroxy-2-oxanyl)-1-benzopyran-4-one

>  <PUBCHEM_IUPAC_NAME>
5,7-dihydroxy-8-[3,4,5-trihydroxy-6-(hydroxymethyl)oxan-2-yl]-2-[4-[3,4,5-trihydroxy-6-(hydroxymethyl)oxan-2-yl]oxyphenyl]-6-(3,4,5-trihydroxyoxan-2-yl)chromen-4-one

>  <PUBCHEM_IUPAC_SYSTEMATIC_NAME>
8-[6-(hydroxymethyl)-3,4,5-tris(oxidanyl)oxan-2-yl]-2-[4-[6-(hydroxymethyl)-3,4,5-tris(oxidanyl)oxan-2-yl]oxyphenyl]-5,7-bis(oxidanyl)-6-[3,4,5-tris(oxidanyl)oxan-2-yl]chromen-4-one

>  <PUBCHEM_IUPAC_TRADITIONAL_NAME>
5,7-dihydroxy-8-(3,4,5-trihydroxy-6-methylol-tetrahydropyran-2-yl)-2-[4-(3,4,5-trihydroxy-6-methylol-tetrahydropyran-2-yl)oxyphenyl]-6-(3,4,5-trihydroxytetrahydropyran-2-yl)chromone

>  <PUBCHEM_IUPAC_INCHI>
InChI=1S/C32H38O19/c33-6-14-20(38)24(42)27(45)31(50-14)18-23(41)17(30-26(44)19(37)12(36)8-47-30)22(40)16-11(35)5-13(49-29(16)18)9-1-3-10(4-2-9)48-32-28(46)25(43)21(39)15(7-34)51-32/h1-5,12,14-15,19-21,24-28,30-34,36-46H,6-8H2

>  <PUBCHEM_IUPAC_INCHIKEY>
JUJNPKAGUBZERG-UHFFFAOYSA-N

>  <PUBCHEM_XLOGP3_AA>
-4

>  <PUBCHEM_EXACT_MASS>
726.201

>  <PUBCHEM_MOLECULAR_FORMULA>
C32H38O19

>  <PUBCHEM_MOLECULAR_WEIGHT>
726.637

>  <PUBCHEM_OPENEYE_CAN_SMILES>
C1C(C(C(C(O1)C2=C(C3=C(C(=C2O)C4C(C(C(C(O4)CO)O)O)O)OC(=CC3=O)C5=CC=C(C=C5)OC6C(C(C(C(O6)CO)O)O)O)O)O)O)O

>  <PUBCHEM_OPENEYE_ISO_SMILES>
C1C(C(C(C(O1)C2=C(C3=C(C(=C2O)C4C(C(C(C(O4)CO)O)O)O)OC(=CC3=O)C5=CC=C(C=C5)OC6C(C(C(C(O6)CO)O)O)O)O)O)O)O

>  <PUBCHEM_CACTVS_TPSA>
326

>  <PUBCHEM_MONOISOTOPIC_WEIGHT>
726.201

>  <PUBCHEM_TOTAL_CHARGE>
0

>  <PUBCHEM_HEAVY_ATOM_COUNT>
51

>  <PUBCHEM_ATOM_DEF_STEREO_COUNT>
0

>  <PUBCHEM_ATOM_UDEF_STEREO_COUNT>
14

>  <PUBCHEM_BOND_DEF_STEREO_COUNT>
0

>  <PUBCHEM_BOND_UDEF_STEREO_COUNT>
0

>  <PUBCHEM_ISOTOPIC_ATOM_COUNT>
0

>  <PUBCHEM_COMPONENT_COUNT>
1

>  <PUBCHEM_CACTVS_TAUTO_COUNT>
12

>  <PUBCHEM_COORDINATE_TYPE>
1
5
255

>  <PUBCHEM_BONDANNOTATIONS>
32  11  3
41  14  3
37  15  3
38  16  3
39  17  3
20  25  3
24  33  3
25  30  8
25  31  8
26  28  3
28  30  8
28  35  8
21  3  3
31  36  8
35  36  8
36  42  8
22  4  3
40  44  3
42  45  8
43  45  8
46  48  8
46  49  8
47  50  8
47  51  8
48  50  8
49  51  8
23  5  3
6  31  8
6  43  8
27  7  3
29  9  3

$$$$
