74976873
 OpenBabel06101807152D

 94 99  0  0  1  0  0  0  0  0999 V2000
    6.8671   -2.7715    0.0000 O   0  0  0  0  0  0  0  0  0  0  0  0
    7.7331   -0.2715    0.0000 O   0  0  0  0  0  0  0  0  0  0  0  0
    5.1350   -2.7715    0.0000 O   0  0  0  0  0  0  0  0  0  0  0  0
    8.5991   -1.7715    0.0000 O   0  0  0  0  0  0  0  0  0  0  0  0
    5.1350   -1.7715    0.0000 O   0  0  0  0  0  0  0  0  0  0  0  0
    5.1350    0.2285    0.0000 O   0  0  0  0  0  0  0  0  0  0  0  0
    6.8671   -4.7715    0.0000 O   0  0  0  0  0  0  0  0  0  0  0  0
    5.1350   -5.7715    0.0000 O   0  0  0  0  0  0  0  0  0  0  0  0
    3.4030   -4.7715    0.0000 O   0  0  0  0  0  0  0  0  0  0  0  0
   13.8550    3.2702    0.0000 O   0  0  0  0  0  0  0  0  0  0  0  0
    6.0010    1.7285    0.0000 O   0  0  0  0  0  0  0  0  0  0  0  0
    2.5369   -3.2715    0.0000 O   0  0  0  0  0  0  0  0  0  0  0  0
   12.9832    1.7736    0.0000 O   0  0  0  0  0  0  0  0  0  0  0  0
   11.2627    4.7803    0.0000 O   0  0  0  0  0  0  0  0  0  0  0  0
   12.9986    5.7736    0.0000 O   0  0  0  0  0  0  0  0  0  0  0  0
   11.2550    2.7803    0.0000 O   0  0  0  0  0  0  0  0  0  0  0  0
   11.1972   -1.2715    0.0000 O   0  3  0  0  0  0  0  0  0  0  0  0
   15.5909    4.2636    0.0000 O   0  0  0  0  0  0  0  0  0  0  0  0
    9.4434    1.7600    0.0000 O   0  0  0  0  0  0  0  0  0  0  0  0
   10.3312   -5.7715    0.0000 O   0  0  0  0  0  0  0  0  0  0  0  0
    6.8671   -1.7715    0.0000 C   0  0  3  0  0  0  0  0  0  0  0  0
    6.0010   -1.2715    0.0000 C   0  0  3  0  0  0  0  0  0  0  0  0
    6.0010   -0.2715    0.0000 C   0  0  3  0  0  0  0  0  0  0  0  0
    6.0010   -3.2715    0.0000 C   0  0  3  0  0  0  0  0  0  0  0  0
    6.0010   -4.2715    0.0000 C   0  0  3  0  0  0  0  0  0  0  0  0
    7.7331   -1.2715    0.0000 C   0  0  3  0  0  0  0  0  0  0  0  0
    6.8671    0.2285    0.0000 C   0  0  3  0  0  0  0  0  0  0  0  0
    5.1350   -4.7715    0.0000 C   0  0  3  0  0  0  0  0  0  0  0  0
    4.2690   -4.2715    0.0000 C   0  0  3  0  0  0  0  0  0  0  0  0
    4.2690   -3.2715    0.0000 C   0  0  3  0  0  0  0  0  0  0  0  0
    6.8671    1.2285    0.0000 C   0  0  0  0  0  0  0  0  0  0  0  0
    3.4030   -2.7715    0.0000 C   0  0  0  0  0  0  0  0  0  0  0  0
   12.1268    4.2769    0.0000 C   0  0  3  0  0  0  0  0  0  0  0  0
   12.9947    4.7736    0.0000 C   0  0  3  0  0  0  0  0  0  0  0  0
   12.1229    3.2769    0.0000 C   0  0  3  0  0  0  0  0  0  0  0  0
   13.8588    4.2702    0.0000 C   0  0  3  0  0  0  0  0  0  0  0  0
   12.9870    2.7736    0.0000 C   0  0  3  0  0  0  0  0  0  0  0  0
    9.4651   -1.2715    0.0000 C   0  0  0  0  0  0  0  0  0  0  0  0
   14.7268    4.7669    0.0000 C   0  0  0  0  0  0  0  0  0  0  0  0
   10.3312   -1.7715    0.0000 C   0  0  0  0  0  0  0  0  0  0  0  0
    9.4651   -0.2715    0.0000 C   0  0  0  0  0  0  0  0  0  0  0  0
   10.3312    0.2285    0.0000 C   0  0  0  0  0  0  0  0  0  0  0  0
   12.1152    1.2769    0.0000 C   0  0  0  0  0  0  0  0  0  0  0  0
   11.1972   -0.2715    0.0000 C   0  0  0  0  0  0  0  0  0  0  0  0
   12.1072    0.2353    0.0000 C   0  0  0  0  0  0  0  0  0  0  0  0
   10.3151    1.2700    0.0000 C   0  0  0  0  0  0  0  0  0  0  0  0
   10.3312   -2.7715    0.0000 C   0  0  0  0  0  0  0  0  0  0  0  0
   11.2131    1.7978    0.0000 C   0  0  0  0  0  0  0  0  0  0  0  0
   11.1972   -3.2715    0.0000 C   0  0  0  0  0  0  0  0  0  0  0  0
    9.4651   -3.2715    0.0000 C   0  0  0  0  0  0  0  0  0  0  0  0
   11.1972   -4.2715    0.0000 C   0  0  0  0  0  0  0  0  0  0  0  0
    9.4651   -4.2715    0.0000 C   0  0  0  0  0  0  0  0  0  0  0  0
   10.3312   -4.7715    0.0000 C   0  0  0  0  0  0  0  0  0  0  0  0
    7.4040   -2.0815    0.0000 H   0  0  0  0  0  0  0  0  0  0  0  0
    6.0010   -1.8915    0.0000 H   0  0  0  0  0  0  0  0  0  0  0  0
    6.0010    0.3485    0.0000 H   0  0  0  0  0  0  0  0  0  0  0  0
    6.0010   -2.6515    0.0000 H   0  0  0  0  0  0  0  0  0  0  0  0
    6.0010   -4.8915    0.0000 H   0  0  0  0  0  0  0  0  0  0  0  0
    8.2700   -0.9615    0.0000 H   0  0  0  0  0  0  0  0  0  0  0  0
    7.4040    0.5385    0.0000 H   0  0  0  0  0  0  0  0  0  0  0  0
    4.5981   -5.0815    0.0000 H   0  0  0  0  0  0  0  0  0  0  0  0
    3.7320   -3.9615    0.0000 H   0  0  0  0  0  0  0  0  0  0  0  0
    4.2690   -2.6515    0.0000 H   0  0  0  0  0  0  0  0  0  0  0  0
    7.4776    1.1208    0.0000 H   0  0  0  0  0  0  0  0  0  0  0  0
    7.0791    1.8111    0.0000 H   0  0  0  0  0  0  0  0  0  0  0  0
    3.8015   -2.2966    0.0000 H   0  0  0  0  0  0  0  0  0  0  0  0
    3.0044   -2.2966    0.0000 H   0  0  0  0  0  0  0  0  0  0  0  0
    4.5981   -1.4615    0.0000 H   0  0  0  0  0  0  0  0  0  0  0  0
   12.1292    4.8969    0.0000 H   0  0  0  0  0  0  0  0  0  0  0  0
   13.5329    5.0815    0.0000 H   0  0  0  0  0  0  0  0  0  0  0  0
   11.5872    3.5890    0.0000 H   0  0  0  0  0  0  0  0  0  0  0  0
   14.3946    3.9582    0.0000 H   0  0  0  0  0  0  0  0  0  0  0  0
    5.1350    0.8485    0.0000 H   0  0  0  0  0  0  0  0  0  0  0  0
    6.8671   -5.3915    0.0000 H   0  0  0  0  0  0  0  0  0  0  0  0
   12.4489    2.4657    0.0000 H   0  0  0  0  0  0  0  0  0  0  0  0
    4.5981   -6.0815    0.0000 H   0  0  0  0  0  0  0  0  0  0  0  0
    3.4030   -5.3915    0.0000 H   0  0  0  0  0  0  0  0  0  0  0  0
   15.1271    5.2403    0.0000 H   0  0  0  0  0  0  0  0  0  0  0  0
   14.3301    5.2434    0.0000 H   0  0  0  0  0  0  0  0  0  0  0  0
    6.0010    2.3485    0.0000 H   0  0  0  0  0  0  0  0  0  0  0  0
    2.0000   -2.9615    0.0000 H   0  0  0  0  0  0  0  0  0  0  0  0
    8.9282    0.0385    0.0000 H   0  0  0  0  0  0  0  0  0  0  0  0
   11.2651    5.4002    0.0000 H   0  0  0  0  0  0  0  0  0  0  0  0
   13.5367    6.0815    0.0000 H   0  0  0  0  0  0  0  0  0  0  0  0
   10.7192    3.0923    0.0000 H   0  0  0  0  0  0  0  0  0  0  0  0
   12.6405   -0.0808    0.0000 H   0  0  0  0  0  0  0  0  0  0  0  0
   11.2108    2.4178    0.0000 H   0  0  0  0  0  0  0  0  0  0  0  0
   16.1290    4.5715    0.0000 H   0  0  0  0  0  0  0  0  0  0  0  0
   11.7341   -2.9615    0.0000 H   0  0  0  0  0  0  0  0  0  0  0  0
    8.9282   -2.9615    0.0000 H   0  0  0  0  0  0  0  0  0  0  0  0
    9.4362    2.3799    0.0000 H   0  0  0  0  0  0  0  0  0  0  0  0
   11.7341   -4.5815    0.0000 H   0  0  0  0  0  0  0  0  0  0  0  0
    8.9282   -4.5815    0.0000 H   0  0  0  0  0  0  0  0  0  0  0  0
   10.8681   -6.0815    0.0000 H   0  0  0  0  0  0  0  0  0  0  0  0
  1 21  1  0  0  0  0
  1 24  1  0  0  0  0
  2 26  1  0  0  0  0
  2 27  1  0  0  0  0
  3 24  1  0  0  0  0
  3 30  1  0  0  0  0
  4 26  1  0  0  0  0
  4 38  1  0  0  0  0
  5 22  1  0  0  0  0
  5 68  1  0  0  0  0
  6 23  1  0  0  0  0
  6 73  1  0  0  0  0
  7 25  1  0  0  0  0
  7 74  1  0  0  0  0
  8 28  1  0  0  0  0
  8 76  1  0  0  0  0
  9 29  1  0  0  0  0
  9 77  1  0  0  0  0
 10 36  1  0  0  0  0
 10 37  1  0  0  0  0
 11 31  1  0  0  0  0
 11 80  1  0  0  0  0
 12 32  1  0  0  0  0
 12 81  1  0  0  0  0
 13 37  1  0  0  0  0
 13 43  1  0  0  0  0
 14 33  1  0  0  0  0
 14 83  1  0  0  0  0
 15 34  1  0  0  0  0
 15 84  1  0  0  0  0
 16 35  1  0  0  0  0
 16 85  1  0  0  0  0
 17 40  2  0  0  0  0
 17 44  1  0  0  0  0
 18 39  1  0  0  0  0
 18 88  1  0  0  0  0
 19 46  1  0  0  0  0
 19 91  1  0  0  0  0
 20 53  1  0  0  0  0
 20 94  1  0  0  0  0
 21 22  1  0  0  0  0
 21 26  1  0  0  0  0
 21 54  1  0  0  0  0
 22 23  1  0  0  0  0
 22 55  1  0  0  0  0
 23 27  1  0  0  0  0
 23 56  1  0  0  0  0
 24 25  1  0  0  0  0
 24 57  1  0  0  0  0
 25 28  1  0  0  0  0
 25 58  1  0  0  0  0
 26 59  1  0  0  0  0
 27 31  1  0  0  0  0
 27 60  1  0  0  0  0
 28 29  1  0  0  0  0
 28 61  1  0  0  0  0
 29 30  1  0  0  0  0
 29 62  1  0  0  0  0
 30 32  1  0  0  0  0
 30 63  1  0  0  0  0
 31 64  1  0  0  0  0
 31 65  1  0  0  0  0
 32 66  1  0  0  0  0
 32 67  1  0  0  0  0
 33 34  1  0  0  0  0
 33 35  1  0  0  0  0
 33 69  1  0  0  0  0
 34 36  1  0  0  0  0
 34 70  1  0  0  0  0
 35 37  1  0  0  0  0
 35 71  1  0  0  0  0
 36 39  1  0  0  0  0
 36 72  1  0  0  0  0
 37 75  1  0  0  0  0
 38 40  1  0  0  0  0
 38 41  2  0  0  0  0
 39 78  1  0  0  0  0
 39 79  1  0  0  0  0
 40 47  1  0  0  0  0
 41 42  1  0  0  0  0
 41 82  1  0  0  0  0
 42 44  1  0  0  0  0
 42 46  2  0  0  0  0
 43 45  1  0  0  0  0
 43 48  2  0  0  0  0
 44 45  2  0  0  0  0
 45 86  1  0  0  0  0
 46 48  1  0  0  0  0
 47 49  2  0  0  0  0
 47 50  1  0  0  0  0
 48 87  1  0  0  0  0
 49 51  1  0  0  0  0
 49 89  1  0  0  0  0
 50 52  2  0  0  0  0
 50 90  1  0  0  0  0
 51 53  2  0  0  0  0
 51 92  1  0  0  0  0
 52 53  1  0  0  0  0
 52 93  1  0  0  0  0
M  CHG  1  17   1
M  END
>  <PUBCHEM_COMPOUND_CID>
74976873

>  <PUBCHEM_COMPOUND_CANONICALIZED>
1

>  <PUBCHEM_CACTVS_COMPLEXITY>
1150

>  <PUBCHEM_CACTVS_HBOND_ACCEPTOR>
19

>  <PUBCHEM_CACTVS_HBOND_DONOR>
13

>  <PUBCHEM_CACTVS_ROTATABLE_BOND>
10

>  <PUBCHEM_CACTVS_SUBSKEYS>
AAADcfB8PgAAAAAAAAAAAAAAAAAAAAAAAAA0aJEiAAAAAACR9AAAGgAACAAADBSwmAMwDsAABkCIAqBSAAICCAAkIAAIiAFGiMgdNzaGNR6ieWKl4BUPuYfK7OzOIAAACAAIAABAAAAQABAAAAAAAAAAAA==

>  <PUBCHEM_IUPAC_OPENEYE_NAME>
2-[4,5-dihydroxy-2-[5-hydroxy-2-(4-hydroxyphenyl)-7-[3,4,5-trihydroxy-6-(hydroxymethyl)tetrahydropyran-2-yl]oxy-chromenylium-3-yl]oxy-6-(hydroxymethyl)tetrahydropyran-3-yl]oxy-6-(hydroxymethyl)tetrahydropyran-3,4,5-triol

>  <PUBCHEM_IUPAC_CAS_NAME>
2-[[4,5-dihydroxy-2-[[5-hydroxy-2-(4-hydroxyphenyl)-7-[[3,4,5-trihydroxy-6-(hydroxymethyl)-2-oxanyl]oxy]-1-benzopyrylium-3-yl]oxy]-6-(hydroxymethyl)-3-oxanyl]oxy]-6-(hydroxymethyl)oxane-3,4,5-triol

>  <PUBCHEM_IUPAC_NAME>
2-[4,5-dihydroxy-2-[5-hydroxy-2-(4-hydroxyphenyl)-7-[3,4,5-trihydroxy-6-(hydroxymethyl)oxan-2-yl]oxychromenylium-3-yl]oxy-6-(hydroxymethyl)oxan-3-yl]oxy-6-(hydroxymethyl)oxane-3,4,5-triol

>  <PUBCHEM_IUPAC_SYSTEMATIC_NAME>
2-(hydroxymethyl)-6-[6-(hydroxymethyl)-2-[7-[6-(hydroxymethyl)-3,4,5-tris(oxidanyl)oxan-2-yl]oxy-2-(4-hydroxyphenyl)-5-oxidanyl-chromenylium-3-yl]oxy-4,5-bis(oxidanyl)oxan-3-yl]oxy-oxane-3,4,5-triol

>  <PUBCHEM_IUPAC_TRADITIONAL_NAME>
2-[4,5-dihydroxy-2-[[5-hydroxy-2-(4-hydroxyphenyl)-7-(3,4,5-trihydroxy-6-methylol-tetrahydropyran-2-yl)oxy-1-benzopyrylium-3-yl]oxy]-6-methylol-tetrahydropyran-3-yl]oxy-6-methylol-tetrahydropyran-3,4,5-triol

>  <PUBCHEM_IUPAC_INCHI>
InChI=1S/C33H40O20/c34-8-18-21(39)24(42)27(45)31(50-18)47-13-5-15(38)14-7-17(29(48-16(14)6-13)11-1-3-12(37)4-2-11)49-33-30(26(44)23(41)20(10-36)52-33)53-32-28(46)25(43)22(40)19(9-35)51-32/h1-7,18-28,30-36,39-46H,8-10H2,(H-,37,38)/p+1

>  <PUBCHEM_IUPAC_INCHIKEY>
BJOPHLFZGFZTLP-UHFFFAOYSA-O

>  <PUBCHEM_EXACT_MASS>
757.219

>  <PUBCHEM_MOLECULAR_FORMULA>
C33H41O20+

>  <PUBCHEM_MOLECULAR_WEIGHT>
757.671

>  <PUBCHEM_OPENEYE_CAN_SMILES>
C1=CC(=CC=C1C2=C(C=C3C(=CC(=CC3=[O+]2)OC4C(C(C(C(O4)CO)O)O)O)O)OC5C(C(C(C(O5)CO)O)O)OC6C(C(C(C(O6)CO)O)O)O)O

>  <PUBCHEM_OPENEYE_ISO_SMILES>
C1=CC(=CC=C1C2=C(C=C3C(=CC(=CC3=[O+]2)OC4C(C(C(C(O4)CO)O)O)O)O)OC5C(C(C(C(O5)CO)O)O)OC6C(C(C(C(O6)CO)O)O)O)O

>  <PUBCHEM_CACTVS_TPSA>
319

>  <PUBCHEM_MONOISOTOPIC_WEIGHT>
757.219

>  <PUBCHEM_TOTAL_CHARGE>
1

>  <PUBCHEM_HEAVY_ATOM_COUNT>
53

>  <PUBCHEM_ATOM_DEF_STEREO_COUNT>
0

>  <PUBCHEM_ATOM_UDEF_STEREO_COUNT>
15

>  <PUBCHEM_BOND_DEF_STEREO_COUNT>
0

>  <PUBCHEM_BOND_UDEF_STEREO_COUNT>
0

>  <PUBCHEM_ISOTOPIC_ATOM_COUNT>
0

>  <PUBCHEM_COMPONENT_COUNT>
1

>  <PUBCHEM_CACTVS_TAUTO_COUNT>
4

>  <PUBCHEM_COORDINATE_TYPE>
1
5
255

>  <PUBCHEM_BONDANNOTATIONS>
21  1  3
24  1  3
37  13  3
33  14  3
34  15  3
35  16  3
17  40  8
17  44  8
27  31  3
30  32  3
36  39  3
38  40  8
38  41  8
26  4  3
41  42  8
42  44  8
42  46  8
43  45  8
43  48  8
44  45  8
46  48  8
47  49  8
47  50  8
49  51  8
22  5  3
50  52  8
51  53  8
52  53  8
23  6  3
25  7  3
28  8  3
29  9  3

$$$$
