74976932
 OpenBabel06101807152D

 90 95  0  0  1  0  0  0  0  0999 V2000
    8.5991    0.2143    0.0000 O   0  0  0  0  0  0  0  0  0  0  0  0
   10.3312   -1.7857    0.0000 O   0  0  0  0  0  0  0  0  0  0  0  0
    6.0010   -0.2857    0.0000 O   0  0  0  0  0  0  0  0  0  0  0  0
    5.1350    1.2143    0.0000 O   0  0  0  0  0  0  0  0  0  0  0  0
    8.5991   -2.7857    0.0000 O   0  0  0  0  0  0  0  0  0  0  0  0
    6.8671   -1.7857    0.0000 O   0  0  0  0  0  0  0  0  0  0  0  0
   10.3312    0.2143    0.0000 O   0  0  0  0  0  0  0  0  0  0  0  0
    9.4651   -3.2857    0.0000 O   0  0  0  0  0  0  0  0  0  0  0  0
   12.0632   -2.7857    0.0000 O   0  0  0  0  0  0  0  0  0  0  0  0
    4.2690   -1.2857    0.0000 O   0  0  0  0  0  0  0  0  0  0  0  0
    2.5369   -0.2857    0.0000 O   0  0  0  0  0  0  0  0  0  0  0  0
    2.5369    1.7143    0.0000 O   0  0  0  0  0  0  0  0  0  0  0  0
   12.0632   -4.7857    0.0000 O   0  0  0  0  0  0  0  0  0  0  0  0
   10.3312   -5.7857    0.0000 O   0  0  0  0  0  0  0  0  0  0  0  0
   11.1972    2.7143    0.0000 O   0  3  0  0  0  0  0  0  0  0  0  0
    7.6950    2.7112    0.0000 O   0  0  0  0  0  0  0  0  0  0  0  0
    9.4530    5.7836    0.0000 O   0  0  0  0  0  0  0  0  0  0  0  0
   14.6613    1.7143    0.0000 O   0  0  0  0  0  0  0  0  0  0  0  0
   14.6613   -0.2857    0.0000 O   0  0  0  0  0  0  0  0  0  0  0  0
    9.4651   -1.2857    0.0000 C   0  0  3  0  0  0  0  0  0  0  0  0
    8.5991   -1.7857    0.0000 C   0  0  3  0  0  0  0  0  0  0  0  0
    7.7331   -1.2857    0.0000 C   0  0  3  0  0  0  0  0  0  0  0  0
    7.7331   -0.2857    0.0000 C   0  0  3  0  0  0  0  0  0  0  0  0
    9.4651   -0.2857    0.0000 C   0  0  3  0  0  0  0  0  0  0  0  0
    6.8671    0.2143    0.0000 C   0  0  0  0  0  0  0  0  0  0  0  0
   10.3312   -2.7857    0.0000 C   0  0  3  0  0  0  0  0  0  0  0  0
    5.1350    0.2143    0.0000 C   0  0  3  0  0  0  0  0  0  0  0  0
   11.1972   -3.2857    0.0000 C   0  0  3  0  0  0  0  0  0  0  0  0
    4.2690   -0.2857    0.0000 C   0  0  3  0  0  0  0  0  0  0  0  0
    3.4030    0.2143    0.0000 C   0  0  3  0  0  0  0  0  0  0  0  0
    3.4030    1.2143    0.0000 C   0  0  3  0  0  0  0  0  0  0  0  0
   11.1972   -4.2857    0.0000 C   0  0  3  0  0  0  0  0  0  0  0  0
    4.2690    1.7143    0.0000 C   0  0  3  0  0  0  0  0  0  0  0  0
   10.3312   -4.7857    0.0000 C   0  0  3  0  0  0  0  0  0  0  0  0
    9.4651   -4.2857    0.0000 C   0  0  0  0  0  0  0  0  0  0  0  0
    4.2690    2.7143    0.0000 C   0  0  0  0  0  0  0  0  0  0  0  0
   10.3312    1.2143    0.0000 C   0  0  0  0  0  0  0  0  0  0  0  0
   11.1972    1.7143    0.0000 C   0  0  0  0  0  0  0  0  0  0  0  0
    9.4651    1.7143    0.0000 C   0  0  0  0  0  0  0  0  0  0  0  0
    9.4651    2.7143    0.0000 C   0  0  0  0  0  0  0  0  0  0  0  0
   12.0632    1.2143    0.0000 C   0  0  0  0  0  0  0  0  0  0  0  0
   10.3312    3.2143    0.0000 C   0  0  0  0  0  0  0  0  0  0  0  0
    8.5551    3.2212    0.0000 C   0  0  0  0  0  0  0  0  0  0  0  0
   10.3472    4.2558    0.0000 C   0  0  0  0  0  0  0  0  0  0  0  0
   12.9292    1.7143    0.0000 C   0  0  0  0  0  0  0  0  0  0  0  0
   12.0632    0.2143    0.0000 C   0  0  0  0  0  0  0  0  0  0  0  0
    8.5471    4.2628    0.0000 C   0  0  0  0  0  0  0  0  0  0  0  0
    9.4492    4.7836    0.0000 C   0  0  0  0  0  0  0  0  0  0  0  0
   13.7953    1.2143    0.0000 C   0  0  0  0  0  0  0  0  0  0  0  0
   12.9292   -0.2857    0.0000 C   0  0  0  0  0  0  0  0  0  0  0  0
   13.7953    0.2143    0.0000 C   0  0  0  0  0  0  0  0  0  0  0  0
   10.0021   -0.9757    0.0000 H   0  0  0  0  0  0  0  0  0  0  0  0
    8.0622   -2.0957    0.0000 H   0  0  0  0  0  0  0  0  0  0  0  0
    7.1962   -0.9757    0.0000 H   0  0  0  0  0  0  0  0  0  0  0  0
    7.7331    0.3343    0.0000 H   0  0  0  0  0  0  0  0  0  0  0  0
    9.4651    0.3343    0.0000 H   0  0  0  0  0  0  0  0  0  0  0  0
    7.2656    0.6893    0.0000 H   0  0  0  0  0  0  0  0  0  0  0  0
    6.4685    0.6893    0.0000 H   0  0  0  0  0  0  0  0  0  0  0  0
    9.7942   -2.4757    0.0000 H   0  0  0  0  0  0  0  0  0  0  0  0
    5.1350   -0.4057    0.0000 H   0  0  0  0  0  0  0  0  0  0  0  0
   11.7341   -3.5957    0.0000 H   0  0  0  0  0  0  0  0  0  0  0  0
    3.7320   -0.5957    0.0000 H   0  0  0  0  0  0  0  0  0  0  0  0
    2.8660    0.5243    0.0000 H   0  0  0  0  0  0  0  0  0  0  0  0
    3.4030    1.8343    0.0000 H   0  0  0  0  0  0  0  0  0  0  0  0
   11.1972   -4.9057    0.0000 H   0  0  0  0  0  0  0  0  0  0  0  0
    4.8059    2.0243    0.0000 H   0  0  0  0  0  0  0  0  0  0  0  0
    9.7942   -5.0957    0.0000 H   0  0  0  0  0  0  0  0  0  0  0  0
    8.8546   -4.1780    0.0000 H   0  0  0  0  0  0  0  0  0  0  0  0
    9.2531   -4.8683    0.0000 H   0  0  0  0  0  0  0  0  0  0  0  0
    8.0622   -3.0957    0.0000 H   0  0  0  0  0  0  0  0  0  0  0  0
    6.8671   -2.4057    0.0000 H   0  0  0  0  0  0  0  0  0  0  0  0
    4.8890    2.7143    0.0000 H   0  0  0  0  0  0  0  0  0  0  0  0
    4.2690    3.3343    0.0000 H   0  0  0  0  0  0  0  0  0  0  0  0
    3.6490    2.7143    0.0000 H   0  0  0  0  0  0  0  0  0  0  0  0
   12.6002   -3.0957    0.0000 H   0  0  0  0  0  0  0  0  0  0  0  0
    3.7320   -1.5957    0.0000 H   0  0  0  0  0  0  0  0  0  0  0  0
    2.0000    0.0243    0.0000 H   0  0  0  0  0  0  0  0  0  0  0  0
    2.5369    2.3343    0.0000 H   0  0  0  0  0  0  0  0  0  0  0  0
   12.0632   -5.4057    0.0000 H   0  0  0  0  0  0  0  0  0  0  0  0
    9.7942   -6.0957    0.0000 H   0  0  0  0  0  0  0  0  0  0  0  0
    8.9282    1.4043    0.0000 H   0  0  0  0  0  0  0  0  0  0  0  0
   10.8877    4.5596    0.0000 H   0  0  0  0  0  0  0  0  0  0  0  0
   12.9292    2.3343    0.0000 H   0  0  0  0  0  0  0  0  0  0  0  0
   11.5263   -0.0957    0.0000 H   0  0  0  0  0  0  0  0  0  0  0  0
    8.0090    4.5707    0.0000 H   0  0  0  0  0  0  0  0  0  0  0  0
   12.9292   -0.9057    0.0000 H   0  0  0  0  0  0  0  0  0  0  0  0
    7.1545    3.0150    0.0000 H   0  0  0  0  0  0  0  0  0  0  0  0
    8.9173    6.0957    0.0000 H   0  0  0  0  0  0  0  0  0  0  0  0
   14.6613    2.3343    0.0000 H   0  0  0  0  0  0  0  0  0  0  0  0
   14.6613   -0.9057    0.0000 H   0  0  0  0  0  0  0  0  0  0  0  0
  1 23  1  0  0  0  0
  1 24  1  0  0  0  0
  2 20  1  0  0  0  0
  2 26  1  0  0  0  0
  3 25  1  0  0  0  0
  3 27  1  0  0  0  0
  4 27  1  0  0  0  0
  4 33  1  0  0  0  0
  5 21  1  0  0  0  0
  5 70  1  0  0  0  0
  6 22  1  0  0  0  0
  6 71  1  0  0  0  0
  7 24  1  0  0  0  0
  7 37  1  0  0  0  0
  8 26  1  0  0  0  0
  8 35  1  0  0  0  0
  9 28  1  0  0  0  0
  9 75  1  0  0  0  0
 10 29  1  0  0  0  0
 10 76  1  0  0  0  0
 11 30  1  0  0  0  0
 11 77  1  0  0  0  0
 12 31  1  0  0  0  0
 12 78  1  0  0  0  0
 13 32  1  0  0  0  0
 13 79  1  0  0  0  0
 14 34  1  0  0  0  0
 14 80  1  0  0  0  0
 15 38  2  0  0  0  0
 15 42  1  0  0  0  0
 16 43  1  0  0  0  0
 16 87  1  0  0  0  0
 17 48  1  0  0  0  0
 17 88  1  0  0  0  0
 18 49  1  0  0  0  0
 18 89  1  0  0  0  0
 19 51  1  0  0  0  0
 19 90  1  0  0  0  0
 20 21  1  0  0  0  0
 20 24  1  0  0  0  0
 20 52  1  0  0  0  0
 21 22  1  0  0  0  0
 21 53  1  0  0  0  0
 22 23  1  0  0  0  0
 22 54  1  0  0  0  0
 23 25  1  0  0  0  0
 23 55  1  0  0  0  0
 24 56  1  0  0  0  0
 25 57  1  0  0  0  0
 25 58  1  0  0  0  0
 26 28  1  0  0  0  0
 26 59  1  0  0  0  0
 27 29  1  0  0  0  0
 27 60  1  0  0  0  0
 28 32  1  0  0  0  0
 28 61  1  0  0  0  0
 29 30  1  0  0  0  0
 29 62  1  0  0  0  0
 30 31  1  0  0  0  0
 30 63  1  0  0  0  0
 31 33  1  0  0  0  0
 31 64  1  0  0  0  0
 32 34  1  0  0  0  0
 32 65  1  0  0  0  0
 33 36  1  0  0  0  0
 33 66  1  0  0  0  0
 34 35  1  0  0  0  0
 34 67  1  0  0  0  0
 35 68  1  0  0  0  0
 35 69  1  0  0  0  0
 36 72  1  0  0  0  0
 36 73  1  0  0  0  0
 36 74  1  0  0  0  0
 37 38  1  0  0  0  0
 37 39  2  0  0  0  0
 38 41  1  0  0  0  0
 39 40  1  0  0  0  0
 39 81  1  0  0  0  0
 40 42  1  0  0  0  0
 40 43  2  0  0  0  0
 41 45  2  0  0  0  0
 41 46  1  0  0  0  0
 42 44  2  0  0  0  0
 43 47  1  0  0  0  0
 44 48  1  0  0  0  0
 44 82  1  0  0  0  0
 45 49  1  0  0  0  0
 45 83  1  0  0  0  0
 46 50  2  0  0  0  0
 46 84  1  0  0  0  0
 47 48  2  0  0  0  0
 47 85  1  0  0  0  0
 49 51  2  0  0  0  0
 50 51  1  0  0  0  0
 50 86  1  0  0  0  0
M  CHG  1  15   1
M  END
>  <PUBCHEM_COMPOUND_CID>
74976932

>  <PUBCHEM_COMPOUND_CANONICALIZED>
1

>  <PUBCHEM_CACTVS_COMPLEXITY>
1120

>  <PUBCHEM_CACTVS_HBOND_ACCEPTOR>
18

>  <PUBCHEM_CACTVS_HBOND_DONOR>
12

>  <PUBCHEM_CACTVS_ROTATABLE_BOND>
8

>  <PUBCHEM_CACTVS_SUBSKEYS>
AAADcfB8PgAAAAAAAAAAAAAAAAAAAAAAAAA0aJEiAAAAAACR9AAAGgAACAAADBSwmAMyDsAABkCIAqBSAAICCAAkIAAIiAFGiMgdNzaGNR6ieWOl4BUPuYfK7PzOIAABCAAIQABAAAIQABCAAAAAAAAAAA==

>  <PUBCHEM_IUPAC_OPENEYE_NAME>
2-[[6-[2-(3,4-dihydroxyphenyl)-5,7-dihydroxy-chromenylium-3-yl]oxy-3,4-dihydroxy-5-(3,4,5-trihydroxytetrahydropyran-2-yl)oxy-tetrahydropyran-2-yl]methoxy]-6-methyl-tetrahydropyran-3,4,5-triol

>  <PUBCHEM_IUPAC_CAS_NAME>
2-[[6-[[2-(3,4-dihydroxyphenyl)-5,7-dihydroxy-1-benzopyrylium-3-yl]oxy]-3,4-dihydroxy-5-[(3,4,5-trihydroxy-2-oxanyl)oxy]-2-oxanyl]methoxy]-6-methyloxane-3,4,5-triol

>  <PUBCHEM_IUPAC_NAME>
2-[[6-[2-(3,4-dihydroxyphenyl)-5,7-dihydroxychromenylium-3-yl]oxy-3,4-dihydroxy-5-(3,4,5-trihydroxyoxan-2-yl)oxyoxan-2-yl]methoxy]-6-methyloxane-3,4,5-triol

>  <PUBCHEM_IUPAC_SYSTEMATIC_NAME>
2-[[6-[2-[3,4-bis(oxidanyl)phenyl]-5,7-bis(oxidanyl)chromenylium-3-yl]oxy-3,4-bis(oxidanyl)-5-[3,4,5-tris(oxidanyl)oxan-2-yl]oxy-oxan-2-yl]methoxy]-6-methyl-oxane-3,4,5-triol

>  <PUBCHEM_IUPAC_TRADITIONAL_NAME>
2-[[6-[[2-(3,4-dihydroxyphenyl)-5,7-dihydroxy-1-benzopyrylium-3-yl]oxy]-3,4-dihydroxy-5-(3,4,5-trihydroxytetrahydropyran-2-yl)oxy-tetrahydropyran-2-yl]methoxy]-6-methyl-tetrahydropyran-3,4,5-triol

>  <PUBCHEM_IUPAC_INCHI>
InChI=1S/C32H38O19/c1-10-21(38)24(41)27(44)30(47-10)46-9-20-23(40)25(42)29(51-31-26(43)22(39)17(37)8-45-31)32(50-20)49-19-7-13-15(35)5-12(33)6-18(13)48-28(19)11-2-3-14(34)16(36)4-11/h2-7,10,17,20-27,29-32,37-44H,8-9H2,1H3,(H3-,33,34,35,36)/p+1

>  <PUBCHEM_IUPAC_INCHIKEY>
ZSWXIMXLLJRVFT-UHFFFAOYSA-O

>  <PUBCHEM_EXACT_MASS>
727.209

>  <PUBCHEM_MOLECULAR_FORMULA>
C32H39O19+

>  <PUBCHEM_MOLECULAR_WEIGHT>
727.645

>  <PUBCHEM_OPENEYE_CAN_SMILES>
CC1C(C(C(C(O1)OCC2C(C(C(C(O2)OC3=C([O+]=C4C=C(C=C(C4=C3)O)O)C5=CC(=C(C=C5)O)O)OC6C(C(C(CO6)O)O)O)O)O)O)O)O

>  <PUBCHEM_OPENEYE_ISO_SMILES>
CC1C(C(C(C(O1)OCC2C(C(C(C(O2)OC3=C([O+]=C4C=C(C=C(C4=C3)O)O)C5=CC(=C(C=C5)O)O)OC6C(C(C(CO6)O)O)O)O)O)O)O)O

>  <PUBCHEM_CACTVS_TPSA>
299

>  <PUBCHEM_MONOISOTOPIC_WEIGHT>
727.209

>  <PUBCHEM_TOTAL_CHARGE>
1

>  <PUBCHEM_HEAVY_ATOM_COUNT>
51

>  <PUBCHEM_ATOM_DEF_STEREO_COUNT>
0

>  <PUBCHEM_ATOM_UDEF_STEREO_COUNT>
14

>  <PUBCHEM_BOND_DEF_STEREO_COUNT>
0

>  <PUBCHEM_BOND_UDEF_STEREO_COUNT>
0

>  <PUBCHEM_ISOTOPIC_ATOM_COUNT>
0

>  <PUBCHEM_COMPONENT_COUNT>
1

>  <PUBCHEM_CACTVS_TAUTO_COUNT>
171

>  <PUBCHEM_COORDINATE_TYPE>
1
5
255

>  <PUBCHEM_BONDANNOTATIONS>
29  10  3
30  11  3
31  12  3
32  13  3
34  14  3
15  38  8
15  42  8
20  2  3
26  2  3
23  25  3
27  3  3
33  36  3
37  38  8
37  39  8
39  40  8
40  42  8
40  43  8
41  45  8
41  46  8
42  44  8
43  47  8
44  48  8
45  49  8
46  50  8
47  48  8
49  51  8
21  5  3
50  51  8
22  6  3
24  7  3
28  9  3

$$$$
