74977784
 OpenBabel06101807152D

 70 74  0  0  1  0  0  0  0  0999 V2000
    6.0010   -2.0356    0.0000 O   0  0  0  0  0  0  0  0  0  0  0  0
    4.2690   -2.0356    0.0000 O   0  0  0  0  0  0  0  0  0  0  0  0
    6.8671    0.4644    0.0000 O   0  0  0  0  0  0  0  0  0  0  0  0
    4.2690   -1.0356    0.0000 O   0  0  0  0  0  0  0  0  0  0  0  0
    6.0010   -4.0357    0.0000 O   0  0  0  0  0  0  0  0  0  0  0  0
    4.2690   -5.0357    0.0000 O   0  0  0  0  0  0  0  0  0  0  0  0
    4.2690    0.9644    0.0000 O   0  0  0  0  0  0  0  0  0  0  0  0
    2.5369   -4.0357    0.0000 O   0  0  0  0  0  0  0  0  0  0  0  0
    8.5830    0.5059    0.0000 O   0  0  0  0  0  0  0  0  0  0  0  0
    6.8671   -2.5356    0.0000 O   0  0  0  0  0  0  0  0  0  0  0  0
   10.3312   -2.5356    0.0000 O   0  0  0  0  0  0  0  0  0  0  0  0
   11.2353   -1.0388    0.0000 O   0  0  0  0  0  0  0  0  0  0  0  0
    9.4657    5.0336    0.0000 O   0  0  0  0  0  0  0  0  0  0  0  0
    6.0010   -1.0356    0.0000 C   0  0  3  0  0  0  0  0  0  0  0  0
    6.8671   -0.5356    0.0000 C   0  0  3  0  0  0  0  0  0  0  0  0
    5.1350   -0.5356    0.0000 C   0  0  3  0  0  0  0  0  0  0  0  0
    5.1350   -2.5356    0.0000 C   0  0  3  0  0  0  0  0  0  0  0  0
    5.1350   -3.5356    0.0000 C   0  0  3  0  0  0  0  0  0  0  0  0
    4.2690   -4.0357    0.0000 C   0  0  3  0  0  0  0  0  0  0  0  0
    5.1350    0.4644    0.0000 C   0  0  3  0  0  0  0  0  0  0  0  0
    3.4030   -3.5356    0.0000 C   0  0  3  0  0  0  0  0  0  0  0  0
    3.4030   -2.5356    0.0000 C   0  0  3  0  0  0  0  0  0  0  0  0
    6.0010    0.9644    0.0000 C   0  0  0  0  0  0  0  0  0  0  0  0
    7.7331   -1.0356    0.0000 C   0  0  0  0  0  0  0  0  0  0  0  0
    2.5369   -2.0356    0.0000 C   0  0  0  0  0  0  0  0  0  0  0  0
    8.5991   -0.5356    0.0000 C   0  0  0  0  0  0  0  0  0  0  0  0
    7.7331   -2.0356    0.0000 C   0  0  0  0  0  0  0  0  0  0  0  0
    9.4651   -1.0356    0.0000 C   0  0  0  0  0  0  0  0  0  0  0  0
    8.5991   -2.5356    0.0000 C   0  0  0  0  0  0  0  0  0  0  0  0
    9.4651   -2.0356    0.0000 C   0  0  0  0  0  0  0  0  0  0  0  0
   10.3751   -0.5288    0.0000 C   0  0  0  0  0  0  0  0  0  0  0  0
    9.4811    1.0336    0.0000 C   0  0  0  0  0  0  0  0  0  0  0  0
   10.3832    0.5128    0.0000 C   0  0  0  0  0  0  0  0  0  0  0  0
    6.8671   -3.5356    0.0000 C   0  0  0  0  0  0  0  0  0  0  0  0
    9.4772    2.0336    0.0000 C   0  0  0  0  0  0  0  0  0  0  0  0
    8.6093    2.5303    0.0000 C   0  0  0  0  0  0  0  0  0  0  0  0
   10.3413    2.5369    0.0000 C   0  0  0  0  0  0  0  0  0  0  0  0
    8.6054    3.5303    0.0000 C   0  0  0  0  0  0  0  0  0  0  0  0
   10.3375    3.5369    0.0000 C   0  0  0  0  0  0  0  0  0  0  0  0
    9.4695    4.0336    0.0000 C   0  0  0  0  0  0  0  0  0  0  0  0
    6.5380   -1.3456    0.0000 H   0  0  0  0  0  0  0  0  0  0  0  0
    7.4040   -0.2256    0.0000 H   0  0  0  0  0  0  0  0  0  0  0  0
    4.5981   -0.2256    0.0000 H   0  0  0  0  0  0  0  0  0  0  0  0
    5.1350   -1.9156    0.0000 H   0  0  0  0  0  0  0  0  0  0  0  0
    5.1350   -4.1556    0.0000 H   0  0  0  0  0  0  0  0  0  0  0  0
    3.7320   -4.3456    0.0000 H   0  0  0  0  0  0  0  0  0  0  0  0
    5.1350    1.0844    0.0000 H   0  0  0  0  0  0  0  0  0  0  0  0
    2.8660   -3.2256    0.0000 H   0  0  0  0  0  0  0  0  0  0  0  0
    3.4030   -1.9156    0.0000 H   0  0  0  0  0  0  0  0  0  0  0  0
    6.3996    1.4393    0.0000 H   0  0  0  0  0  0  0  0  0  0  0  0
    5.6025    1.4393    0.0000 H   0  0  0  0  0  0  0  0  0  0  0  0
    2.8469   -1.4987    0.0000 H   0  0  0  0  0  0  0  0  0  0  0  0
    2.0000   -1.7256    0.0000 H   0  0  0  0  0  0  0  0  0  0  0  0
    2.2269   -2.5726    0.0000 H   0  0  0  0  0  0  0  0  0  0  0  0
    3.7320   -0.7256    0.0000 H   0  0  0  0  0  0  0  0  0  0  0  0
    6.0010   -4.6556    0.0000 H   0  0  0  0  0  0  0  0  0  0  0  0
    3.7320   -5.3456    0.0000 H   0  0  0  0  0  0  0  0  0  0  0  0
    4.2690    1.5844    0.0000 H   0  0  0  0  0  0  0  0  0  0  0  0
    2.0000   -3.7256    0.0000 H   0  0  0  0  0  0  0  0  0  0  0  0
    8.5991   -3.1556    0.0000 H   0  0  0  0  0  0  0  0  0  0  0  0
   10.9213    0.8207    0.0000 H   0  0  0  0  0  0  0  0  0  0  0  0
    6.2471   -3.5356    0.0000 H   0  0  0  0  0  0  0  0  0  0  0  0
    6.8671   -4.1556    0.0000 H   0  0  0  0  0  0  0  0  0  0  0  0
    7.4871   -3.5356    0.0000 H   0  0  0  0  0  0  0  0  0  0  0  0
   10.8681   -2.2256    0.0000 H   0  0  0  0  0  0  0  0  0  0  0  0
    8.0735    2.2182    0.0000 H   0  0  0  0  0  0  0  0  0  0  0  0
   10.8795    2.2290    0.0000 H   0  0  0  0  0  0  0  0  0  0  0  0
    8.0673    3.8382    0.0000 H   0  0  0  0  0  0  0  0  0  0  0  0
   10.8732    3.8490    0.0000 H   0  0  0  0  0  0  0  0  0  0  0  0
   10.0014    5.3456    0.0000 H   0  0  0  0  0  0  0  0  0  0  0  0
  1 14  1  0  0  0  0
  1 17  1  0  0  0  0
  2 17  1  0  0  0  0
  2 22  1  0  0  0  0
  3 15  1  0  0  0  0
  3 23  1  0  0  0  0
  4 16  1  0  0  0  0
  4 55  1  0  0  0  0
  5 18  1  0  0  0  0
  5 56  1  0  0  0  0
  6 19  1  0  0  0  0
  6 57  1  0  0  0  0
  7 20  1  0  0  0  0
  7 58  1  0  0  0  0
  8 21  1  0  0  0  0
  8 59  1  0  0  0  0
  9 26  1  0  0  0  0
  9 32  1  0  0  0  0
 10 27  1  0  0  0  0
 10 34  1  0  0  0  0
 11 30  1  0  0  0  0
 11 65  1  0  0  0  0
 12 31  2  0  0  0  0
 13 40  1  0  0  0  0
 13 70  1  0  0  0  0
 14 15  1  0  0  0  0
 14 16  1  0  0  0  0
 14 41  1  0  0  0  0
 15 24  1  0  0  0  0
 15 42  1  0  0  0  0
 16 20  1  0  0  0  0
 16 43  1  0  0  0  0
 17 18  1  0  0  0  0
 17 44  1  0  0  0  0
 18 19  1  0  0  0  0
 18 45  1  0  0  0  0
 19 21  1  0  0  0  0
 19 46  1  0  0  0  0
 20 23  1  0  0  0  0
 20 47  1  0  0  0  0
 21 22  1  0  0  0  0
 21 48  1  0  0  0  0
 22 25  1  0  0  0  0
 22 49  1  0  0  0  0
 23 50  1  0  0  0  0
 23 51  1  0  0  0  0
 24 26  1  0  0  0  0
 24 27  2  0  0  0  0
 25 52  1  0  0  0  0
 25 53  1  0  0  0  0
 25 54  1  0  0  0  0
 26 28  2  0  0  0  0
 27 29  1  0  0  0  0
 28 30  1  0  0  0  0
 28 31  1  0  0  0  0
 29 30  2  0  0  0  0
 29 60  1  0  0  0  0
 31 33  1  0  0  0  0
 32 33  2  0  0  0  0
 32 35  1  0  0  0  0
 33 61  1  0  0  0  0
 34 62  1  0  0  0  0
 34 63  1  0  0  0  0
 34 64  1  0  0  0  0
 35 36  2  0  0  0  0
 35 37  1  0  0  0  0
 36 38  1  0  0  0  0
 36 66  1  0  0  0  0
 37 39  2  0  0  0  0
 37 67  1  0  0  0  0
 38 40  2  0  0  0  0
 38 68  1  0  0  0  0
 39 40  1  0  0  0  0
 39 69  1  0  0  0  0
M  END
>  <PUBCHEM_COMPOUND_CID>
74977784

>  <PUBCHEM_COMPOUND_CANONICALIZED>
1

>  <PUBCHEM_CACTVS_COMPLEXITY>
922

>  <PUBCHEM_CACTVS_HBOND_ACCEPTOR>
13

>  <PUBCHEM_CACTVS_HBOND_DONOR>
7

>  <PUBCHEM_CACTVS_ROTATABLE_BOND>
5

>  <PUBCHEM_CACTVS_SUBSKEYS>
AAADceB4PAAAAAAAAAAAAAAAAAAAAAAAAAA0aIECAAAAAACBQAAAGgAACAAADBSwmAMyDoAABgCIAqBSAAACCAAkIAAIiAEGCMgdNzaGNRqieWCl4BUPuQfI7PzOIAACCAAIAABAAAQQABAAAAAAAAAAAA==

>  <PUBCHEM_IUPAC_OPENEYE_NAME>
8-[4,5-dihydroxy-3-(3,4,5-trihydroxy-6-methyl-tetrahydropyran-2-yl)oxy-tetrahydropyran-2-yl]-5-hydroxy-2-(4-hydroxyphenyl)-7-methoxy-chromen-4-one

>  <PUBCHEM_IUPAC_CAS_NAME>
8-[4,5-dihydroxy-3-[(3,4,5-trihydroxy-6-methyl-2-oxanyl)oxy]-2-oxanyl]-5-hydroxy-2-(4-hydroxyphenyl)-7-methoxy-1-benzopyran-4-one

>  <PUBCHEM_IUPAC_NAME>
8-[4,5-dihydroxy-3-(3,4,5-trihydroxy-6-methyloxan-2-yl)oxyoxan-2-yl]-5-hydroxy-2-(4-hydroxyphenyl)-7-methoxychromen-4-one

>  <PUBCHEM_IUPAC_SYSTEMATIC_NAME>
2-(4-hydroxyphenyl)-7-methoxy-8-[3-[6-methyl-3,4,5-tris(oxidanyl)oxan-2-yl]oxy-4,5-bis(oxidanyl)oxan-2-yl]-5-oxidanyl-chromen-4-one

>  <PUBCHEM_IUPAC_TRADITIONAL_NAME>
8-[4,5-dihydroxy-3-(3,4,5-trihydroxy-6-methyl-tetrahydropyran-2-yl)oxy-tetrahydropyran-2-yl]-5-hydroxy-2-(4-hydroxyphenyl)-7-methoxy-chromone

>  <PUBCHEM_IUPAC_INCHI>
InChI=1S/C27H30O13/c1-10-20(32)22(34)23(35)27(38-10)40-26-21(33)15(31)9-37-25(26)19-17(36-2)8-14(30)18-13(29)7-16(39-24(18)19)11-3-5-12(28)6-4-11/h3-8,10,15,20-23,25-28,30-35H,9H2,1-2H3

>  <PUBCHEM_IUPAC_INCHIKEY>
JNFIIHAPWGTZJC-UHFFFAOYSA-N

>  <PUBCHEM_XLOGP3_AA>
-0.5

>  <PUBCHEM_EXACT_MASS>
562.169

>  <PUBCHEM_MOLECULAR_FORMULA>
C27H30O13

>  <PUBCHEM_MOLECULAR_WEIGHT>
562.524

>  <PUBCHEM_OPENEYE_CAN_SMILES>
CC1C(C(C(C(O1)OC2C(C(COC2C3=C(C=C(C4=C3OC(=CC4=O)C5=CC=C(C=C5)O)O)OC)O)O)O)O)O

>  <PUBCHEM_OPENEYE_ISO_SMILES>
CC1C(C(C(C(O1)OC2C(C(COC2C3=C(C=C(C4=C3OC(=CC4=O)C5=CC=C(C=C5)O)O)OC)O)O)O)O)O

>  <PUBCHEM_CACTVS_TPSA>
205

>  <PUBCHEM_MONOISOTOPIC_WEIGHT>
562.169

>  <PUBCHEM_TOTAL_CHARGE>
0

>  <PUBCHEM_HEAVY_ATOM_COUNT>
40

>  <PUBCHEM_ATOM_DEF_STEREO_COUNT>
0

>  <PUBCHEM_ATOM_UDEF_STEREO_COUNT>
9

>  <PUBCHEM_BOND_DEF_STEREO_COUNT>
0

>  <PUBCHEM_BOND_UDEF_STEREO_COUNT>
0

>  <PUBCHEM_ISOTOPIC_ATOM_COUNT>
0

>  <PUBCHEM_COMPONENT_COUNT>
1

>  <PUBCHEM_CACTVS_TAUTO_COUNT>
24

>  <PUBCHEM_COORDINATE_TYPE>
1
5
255

>  <PUBCHEM_BONDANNOTATIONS>
14  1  3
17  1  3
15  24  3
22  25  3
24  26  8
24  27  8
26  28  8
27  29  8
28  30  8
28  31  8
29  30  8
31  33  8
32  33  8
35  36  8
35  37  8
36  38  8
37  39  8
38  40  8
39  40  8
16  4  3
18  5  3
19  6  3
20  7  3
21  8  3
9  26  8
9  32  8

$$$$
