74977640
 OpenBabel06101807152D

 48 51  0  0  1  0  0  0  0  0999 V2000
    5.1304    1.2021    0.0000 O   0  0  0  0  0  0  0  0  0  0  0  0
    6.0022   -0.2945    0.0000 O   0  0  0  0  0  0  0  0  0  0  0  0
    2.5381   -0.3079    0.0000 O   0  0  0  0  0  0  0  0  0  0  0  0
    4.2740   -1.3012    0.0000 O   0  0  0  0  0  0  0  0  0  0  0  0
    2.5304    1.6921    0.0000 O   0  0  0  0  0  0  0  0  0  0  0  0
    9.5323   -0.2704    0.0000 O   0  0  0  0  0  0  0  0  0  0  0  0
    7.7839    2.7642    0.0000 O   0  0  0  0  0  0  0  0  0  0  0  0
    9.5323    2.7296    0.0000 O   0  0  0  0  0  0  0  0  0  0  0  0
   12.1304   -2.7704    0.0000 O   0  0  0  0  0  0  0  0  0  0  0  0
   13.8625   -1.7704    0.0000 O   0  0  0  0  0  0  0  0  0  0  0  0
    3.4022    0.1954    0.0000 C   0  0  3  0  0  0  0  0  0  0  0  0
    4.2702   -0.3012    0.0000 C   0  0  3  0  0  0  0  0  0  0  0  0
    3.3984    1.1954    0.0000 C   0  0  3  0  0  0  0  0  0  0  0  0
    5.1343    0.2021    0.0000 C   0  0  3  0  0  0  0  0  0  0  0  0
    4.2625    1.6988    0.0000 C   0  0  0  0  0  0  0  0  0  0  0  0
    6.8663    0.2088    0.0000 C   0  0  0  0  0  0  0  0  0  0  0  0
    7.7724   -0.3051    0.0000 C   0  0  0  0  0  0  0  0  0  0  0  0
    8.6663    0.2296    0.0000 C   0  0  0  0  0  0  0  0  0  0  0  0
    6.8663    1.2504    0.0000 C   0  0  0  0  0  0  0  0  0  0  0  0
    8.6663    1.2296    0.0000 C   0  0  0  0  0  0  0  0  0  0  0  0
    7.7724    1.7643    0.0000 C   0  0  0  0  0  0  0  0  0  0  0  0
    9.5323    1.7296    0.0000 C   0  0  0  0  0  0  0  0  0  0  0  0
   10.3984    0.2296    0.0000 C   0  0  0  0  0  0  0  0  0  0  0  0
   10.3984    1.2296    0.0000 C   0  0  0  0  0  0  0  0  0  0  0  0
   11.2644   -0.2704    0.0000 C   0  0  0  0  0  0  0  0  0  0  0  0
   11.2644   -1.2704    0.0000 C   0  0  0  0  0  0  0  0  0  0  0  0
   12.1304    0.2296    0.0000 C   0  0  0  0  0  0  0  0  0  0  0  0
   12.1304   -1.7704    0.0000 C   0  0  0  0  0  0  0  0  0  0  0  0
   12.9964   -0.2704    0.0000 C   0  0  0  0  0  0  0  0  0  0  0  0
   12.9964   -1.2704    0.0000 C   0  0  0  0  0  0  0  0  0  0  0  0
    2.8641    0.5034    0.0000 H   0  0  0  0  0  0  0  0  0  0  0  0
    3.7344   -0.6133    0.0000 H   0  0  0  0  0  0  0  0  0  0  0  0
    3.3960    1.8154    0.0000 H   0  0  0  0  0  0  0  0  0  0  0  0
    5.1367   -0.4179    0.0000 H   0  0  0  0  0  0  0  0  0  0  0  0
    4.6592    2.1752    0.0000 H   0  0  0  0  0  0  0  0  0  0  0  0
    3.8621    2.1722    0.0000 H   0  0  0  0  0  0  0  0  0  0  0  0
    2.0000    0.0000    0.0000 H   0  0  0  0  0  0  0  0  0  0  0  0
    3.7383   -1.6133    0.0000 H   0  0  0  0  0  0  0  0  0  0  0  0
    2.5280    2.3121    0.0000 H   0  0  0  0  0  0  0  0  0  0  0  0
    7.7795   -0.9250    0.0000 H   0  0  0  0  0  0  0  0  0  0  0  0
    6.3306    1.5625    0.0000 H   0  0  0  0  0  0  0  0  0  0  0  0
   10.9353    1.5396    0.0000 H   0  0  0  0  0  0  0  0  0  0  0  0
   10.7274   -1.5804    0.0000 H   0  0  0  0  0  0  0  0  0  0  0  0
   12.1304    0.8496    0.0000 H   0  0  0  0  0  0  0  0  0  0  0  0
    7.2506    3.0804    0.0000 H   0  0  0  0  0  0  0  0  0  0  0  0
   13.5334    0.0396    0.0000 H   0  0  0  0  0  0  0  0  0  0  0  0
   12.6673   -3.0804    0.0000 H   0  0  0  0  0  0  0  0  0  0  0  0
   14.3994   -1.4604    0.0000 H   0  0  0  0  0  0  0  0  0  0  0  0
  1 14  1  0  0  0  0
  1 15  1  0  0  0  0
  2 14  1  0  0  0  0
  2 16  1  0  0  0  0
  3 11  1  0  0  0  0
  3 37  1  0  0  0  0
  4 12  1  0  0  0  0
  4 38  1  0  0  0  0
  5 13  1  0  0  0  0
  5 39  1  0  0  0  0
  6 18  1  0  0  0  0
  6 23  1  0  0  0  0
  7 21  1  0  0  0  0
  7 45  1  0  0  0  0
  8 22  2  0  0  0  0
  9 28  1  0  0  0  0
  9 47  1  0  0  0  0
 10 30  1  0  0  0  0
 10 48  1  0  0  0  0
 11 12  1  0  0  0  0
 11 13  1  0  0  0  0
 11 31  1  0  0  0  0
 12 14  1  0  0  0  0
 12 32  1  0  0  0  0
 13 15  1  0  0  0  0
 13 33  1  0  0  0  0
 14 34  1  0  0  0  0
 15 35  1  0  0  0  0
 15 36  1  0  0  0  0
 16 17  1  0  0  0  0
 16 19  2  0  0  0  0
 17 18  2  0  0  0  0
 17 40  1  0  0  0  0
 18 20  1  0  0  0  0
 19 21  1  0  0  0  0
 19 41  1  0  0  0  0
 20 21  2  0  0  0  0
 20 22  1  0  0  0  0
 22 24  1  0  0  0  0
 23 24  2  0  0  0  0
 23 25  1  0  0  0  0
 24 42  1  0  0  0  0
 25 26  2  0  0  0  0
 25 27  1  0  0  0  0
 26 28  1  0  0  0  0
 26 43  1  0  0  0  0
 27 29  2  0  0  0  0
 27 44  1  0  0  0  0
 28 30  2  0  0  0  0
 29 30  1  0  0  0  0
 29 46  1  0  0  0  0
M  END
>  <PUBCHEM_COMPOUND_CID>
74977640

>  <PUBCHEM_COMPOUND_CANONICALIZED>
1

>  <PUBCHEM_CACTVS_COMPLEXITY>
668

>  <PUBCHEM_CACTVS_HBOND_ACCEPTOR>
10

>  <PUBCHEM_CACTVS_HBOND_DONOR>
6

>  <PUBCHEM_CACTVS_ROTATABLE_BOND>
3

>  <PUBCHEM_CACTVS_SUBSKEYS>
AAADceB4PAAAAAAAAAAAAAAAAAAAAAAAAAA0YIEAAAAAAACBQAAAGgAACAAADBSwmAMwDoAABgCIAqBSAAACCAAkIAAIiAEGiMgdNzaGNRqieWGl4BUPuQfI7LzOIAABCAAIQABAAAIQABCAAAAAAAAAAA==

>  <PUBCHEM_IUPAC_OPENEYE_NAME>
2-(3,4-dihydroxyphenyl)-5-hydroxy-7-(3,4,5-trihydroxytetrahydropyran-2-yl)oxy-chromen-4-one

>  <PUBCHEM_IUPAC_CAS_NAME>
2-(3,4-dihydroxyphenyl)-5-hydroxy-7-[(3,4,5-trihydroxy-2-oxanyl)oxy]-1-benzopyran-4-one

>  <PUBCHEM_IUPAC_NAME>
2-(3,4-dihydroxyphenyl)-5-hydroxy-7-(3,4,5-trihydroxyoxan-2-yl)oxychromen-4-one

>  <PUBCHEM_IUPAC_SYSTEMATIC_NAME>
2-[3,4-bis(oxidanyl)phenyl]-5-oxidanyl-7-[3,4,5-tris(oxidanyl)oxan-2-yl]oxy-chromen-4-one

>  <PUBCHEM_IUPAC_TRADITIONAL_NAME>
2-(3,4-dihydroxyphenyl)-5-hydroxy-7-(3,4,5-trihydroxytetrahydropyran-2-yl)oxy-chromone

>  <PUBCHEM_IUPAC_INCHI>
InChI=1S/C20H18O10/c21-10-2-1-8(3-11(10)22)15-6-13(24)17-12(23)4-9(5-16(17)30-15)29-20-19(27)18(26)14(25)7-28-20/h1-6,14,18-23,25-27H,7H2

>  <PUBCHEM_IUPAC_INCHIKEY>
DKVCLOWHUOSJGW-UHFFFAOYSA-N

>  <PUBCHEM_XLOGP3_AA>
0.6

>  <PUBCHEM_EXACT_MASS>
418.09

>  <PUBCHEM_MOLECULAR_FORMULA>
C20H18O10

>  <PUBCHEM_MOLECULAR_WEIGHT>
418.354

>  <PUBCHEM_OPENEYE_CAN_SMILES>
C1C(C(C(C(O1)OC2=CC(=C3C(=C2)OC(=CC3=O)C4=CC(=C(C=C4)O)O)O)O)O)O

>  <PUBCHEM_OPENEYE_ISO_SMILES>
C1C(C(C(C(O1)OC2=CC(=C3C(=C2)OC(=CC3=O)C4=CC(=C(C=C4)O)O)O)O)O)O

>  <PUBCHEM_CACTVS_TPSA>
166

>  <PUBCHEM_MONOISOTOPIC_WEIGHT>
418.09

>  <PUBCHEM_TOTAL_CHARGE>
0

>  <PUBCHEM_HEAVY_ATOM_COUNT>
30

>  <PUBCHEM_ATOM_DEF_STEREO_COUNT>
0

>  <PUBCHEM_ATOM_UDEF_STEREO_COUNT>
4

>  <PUBCHEM_BOND_DEF_STEREO_COUNT>
0

>  <PUBCHEM_BOND_UDEF_STEREO_COUNT>
0

>  <PUBCHEM_ISOTOPIC_ATOM_COUNT>
0

>  <PUBCHEM_COMPONENT_COUNT>
1

>  <PUBCHEM_CACTVS_TAUTO_COUNT>
68

>  <PUBCHEM_COORDINATE_TYPE>
1
5
255

>  <PUBCHEM_BONDANNOTATIONS>
16  17  8
16  19  8
17  18  8
18  20  8
19  21  8
14  2  3
20  21  8
20  22  8
22  24  8
23  24  8
25  26  8
25  27  8
26  28  8
27  29  8
28  30  8
29  30  8
11  3  3
12  4  3
13  5  3
6  18  8
6  23  8

$$$$
