74977044
 OpenBabel06101807152D

 59 62  0  0  1  0  0  0  0  0999 V2000
    6.3301   -1.2857    0.0000 O   0  0  0  0  0  0  0  0  0  0  0  0
    8.0622   -1.2857    0.0000 O   0  0  0  0  0  0  0  0  0  0  0  0
    4.5981   -3.2857    0.0000 O   0  0  0  0  0  0  0  0  0  0  0  0
    6.3301   -4.2857    0.0000 O   0  0  0  0  0  0  0  0  0  0  0  0
    8.0622   -3.2857    0.0000 O   0  0  0  0  0  0  0  0  0  0  0  0
    3.7320   -1.7857    0.0000 O   0  0  0  0  0  0  0  0  0  0  0  0
    8.9282    1.2143    0.0000 O   0  3  0  0  0  0  0  0  0  0  0  0
    2.8660   -0.2857    0.0000 O   0  0  0  0  0  0  0  0  0  0  0  0
    5.4260    1.2112    0.0000 O   0  0  0  0  0  0  0  0  0  0  0  0
    7.1840    4.2836    0.0000 O   0  0  0  0  0  0  0  0  0  0  0  0
   12.3923    0.2143    0.0000 O   0  0  0  0  0  0  0  0  0  0  0  0
   10.6603   -2.7857    0.0000 O   0  0  0  0  0  0  0  0  0  0  0  0
   12.3923   -1.7857    0.0000 O   0  0  0  0  0  0  0  0  0  0  0  0
    5.4641   -2.7857    0.0000 C   0  0  3  0  0  0  0  0  0  0  0  0
    6.3301   -3.2857    0.0000 C   0  0  3  0  0  0  0  0  0  0  0  0
    5.4641   -1.7857    0.0000 C   0  0  3  0  0  0  0  0  0  0  0  0
    7.1962   -2.7857    0.0000 C   0  0  3  0  0  0  0  0  0  0  0  0
    7.1962   -1.7857    0.0000 C   0  0  3  0  0  0  0  0  0  0  0  0
    4.5981   -1.2857    0.0000 C   0  0  0  0  0  0  0  0  0  0  0  0
    8.0622   -0.2857    0.0000 C   0  0  0  0  0  0  0  0  0  0  0  0
    8.9282    0.2143    0.0000 C   0  0  0  0  0  0  0  0  0  0  0  0
    7.1962    0.2143    0.0000 C   0  0  0  0  0  0  0  0  0  0  0  0
    7.1962    1.2143    0.0000 C   0  0  0  0  0  0  0  0  0  0  0  0
    8.0622    1.7143    0.0000 C   0  0  0  0  0  0  0  0  0  0  0  0
    9.7942   -0.2857    0.0000 C   0  0  0  0  0  0  0  0  0  0  0  0
    2.8660   -1.2857    0.0000 C   0  0  0  0  0  0  0  0  0  0  0  0
    6.2862    1.7212    0.0000 C   0  0  0  0  0  0  0  0  0  0  0  0
    8.0782    2.7558    0.0000 C   0  0  0  0  0  0  0  0  0  0  0  0
    9.7942   -1.2857    0.0000 C   0  0  0  0  0  0  0  0  0  0  0  0
   10.6603    0.2143    0.0000 C   0  0  0  0  0  0  0  0  0  0  0  0
    2.0000   -1.7857    0.0000 C   0  0  0  0  0  0  0  0  0  0  0  0
    6.2781    2.7628    0.0000 C   0  0  0  0  0  0  0  0  0  0  0  0
    7.1802    3.2836    0.0000 C   0  0  0  0  0  0  0  0  0  0  0  0
   11.5263   -0.2857    0.0000 C   0  0  0  0  0  0  0  0  0  0  0  0
   10.6603   -1.7857    0.0000 C   0  0  0  0  0  0  0  0  0  0  0  0
   11.5263   -1.2857    0.0000 C   0  0  0  0  0  0  0  0  0  0  0  0
    5.4641   -3.4057    0.0000 H   0  0  0  0  0  0  0  0  0  0  0  0
    6.8671   -3.5957    0.0000 H   0  0  0  0  0  0  0  0  0  0  0  0
    5.4641   -1.1657    0.0000 H   0  0  0  0  0  0  0  0  0  0  0  0
    7.7331   -2.4757    0.0000 H   0  0  0  0  0  0  0  0  0  0  0  0
    7.1962   -1.1657    0.0000 H   0  0  0  0  0  0  0  0  0  0  0  0
    4.9966   -0.8107    0.0000 H   0  0  0  0  0  0  0  0  0  0  0  0
    4.1996   -0.8107    0.0000 H   0  0  0  0  0  0  0  0  0  0  0  0
    4.5981   -3.9057    0.0000 H   0  0  0  0  0  0  0  0  0  0  0  0
    5.7932   -4.5957    0.0000 H   0  0  0  0  0  0  0  0  0  0  0  0
    8.0622   -3.9057    0.0000 H   0  0  0  0  0  0  0  0  0  0  0  0
    6.6592   -0.0957    0.0000 H   0  0  0  0  0  0  0  0  0  0  0  0
    8.6187    3.0596    0.0000 H   0  0  0  0  0  0  0  0  0  0  0  0
    9.2573   -1.5957    0.0000 H   0  0  0  0  0  0  0  0  0  0  0  0
   10.6603    0.8343    0.0000 H   0  0  0  0  0  0  0  0  0  0  0  0
    1.6900   -1.2487    0.0000 H   0  0  0  0  0  0  0  0  0  0  0  0
    1.4631   -2.0957    0.0000 H   0  0  0  0  0  0  0  0  0  0  0  0
    2.3100   -2.3226    0.0000 H   0  0  0  0  0  0  0  0  0  0  0  0
    5.7400    3.0707    0.0000 H   0  0  0  0  0  0  0  0  0  0  0  0
    4.8855    1.5150    0.0000 H   0  0  0  0  0  0  0  0  0  0  0  0
    6.6483    4.5957    0.0000 H   0  0  0  0  0  0  0  0  0  0  0  0
   12.3923    0.8343    0.0000 H   0  0  0  0  0  0  0  0  0  0  0  0
   11.1972   -3.0957    0.0000 H   0  0  0  0  0  0  0  0  0  0  0  0
   12.9292   -1.4757    0.0000 H   0  0  0  0  0  0  0  0  0  0  0  0
  1 16  1  0  0  0  0
  1 18  1  0  0  0  0
  2 18  1  0  0  0  0
  2 20  1  0  0  0  0
  3 14  1  0  0  0  0
  3 44  1  0  0  0  0
  4 15  1  0  0  0  0
  4 45  1  0  0  0  0
  5 17  1  0  0  0  0
  5 46  1  0  0  0  0
  6 19  1  0  0  0  0
  6 26  1  0  0  0  0
  7 21  2  0  0  0  0
  7 24  1  0  0  0  0
  8 26  2  0  0  0  0
  9 27  1  0  0  0  0
  9 55  1  0  0  0  0
 10 33  1  0  0  0  0
 10 56  1  0  0  0  0
 11 34  1  0  0  0  0
 11 57  1  0  0  0  0
 12 35  1  0  0  0  0
 12 58  1  0  0  0  0
 13 36  1  0  0  0  0
 13 59  1  0  0  0  0
 14 15  1  0  0  0  0
 14 16  1  0  0  0  0
 14 37  1  0  0  0  0
 15 17  1  0  0  0  0
 15 38  1  0  0  0  0
 16 19  1  0  0  0  0
 16 39  1  0  0  0  0
 17 18  1  0  0  0  0
 17 40  1  0  0  0  0
 18 41  1  0  0  0  0
 19 42  1  0  0  0  0
 19 43  1  0  0  0  0
 20 21  1  0  0  0  0
 20 22  2  0  0  0  0
 21 25  1  0  0  0  0
 22 23  1  0  0  0  0
 22 47  1  0  0  0  0
 23 24  1  0  0  0  0
 23 27  2  0  0  0  0
 24 28  2  0  0  0  0
 25 29  2  0  0  0  0
 25 30  1  0  0  0  0
 26 31  1  0  0  0  0
 27 32  1  0  0  0  0
 28 33  1  0  0  0  0
 28 48  1  0  0  0  0
 29 35  1  0  0  0  0
 29 49  1  0  0  0  0
 30 34  2  0  0  0  0
 30 50  1  0  0  0  0
 31 51  1  0  0  0  0
 31 52  1  0  0  0  0
 31 53  1  0  0  0  0
 32 33  2  0  0  0  0
 32 54  1  0  0  0  0
 34 36  1  0  0  0  0
 35 36  2  0  0  0  0
M  CHG  1   7   1
M  END
>  <PUBCHEM_COMPOUND_CID>
74977044

>  <PUBCHEM_COMPOUND_CANONICALIZED>
1

>  <PUBCHEM_CACTVS_COMPLEXITY>
742

>  <PUBCHEM_CACTVS_HBOND_ACCEPTOR>
12

>  <PUBCHEM_CACTVS_HBOND_DONOR>
8

>  <PUBCHEM_CACTVS_ROTATABLE_BOND>
6

>  <PUBCHEM_CACTVS_SUBSKEYS>
AAADceB4PAAAAAAAAAAAAAAAAAAAAAAAAAA0aIEAAAAAAACR9AAAGgAACAAADBSwmAMyDsAABkCIAqDSCAICCAAkIAAAiAFGiMgdNzaGNR6ieWOl4BUPuYfK7PzOIAABCAAIQABAAAIQABCAAAAAAAAAAA==

>  <PUBCHEM_IUPAC_OPENEYE_NAME>
[6-[5,7-dihydroxy-2-(3,4,5-trihydroxyphenyl)chromenylium-3-yl]oxy-3,4,5-trihydroxy-tetrahydropyran-2-yl]methyl acetate

>  <PUBCHEM_IUPAC_CAS_NAME>
acetic acid [6-[[5,7-dihydroxy-2-(3,4,5-trihydroxyphenyl)-1-benzopyrylium-3-yl]oxy]-3,4,5-trihydroxy-2-oxanyl]methyl ester

>  <PUBCHEM_IUPAC_NAME>
[6-[5,7-dihydroxy-2-(3,4,5-trihydroxyphenyl)chromenylium-3-yl]oxy-3,4,5-trihydroxyoxan-2-yl]methyl acetate

>  <PUBCHEM_IUPAC_SYSTEMATIC_NAME>
[6-[5,7-bis(oxidanyl)-2-[3,4,5-tris(oxidanyl)phenyl]chromenylium-3-yl]oxy-3,4,5-tris(oxidanyl)oxan-2-yl]methyl ethanoate

>  <PUBCHEM_IUPAC_TRADITIONAL_NAME>
acetic acid [6-[[5,7-dihydroxy-2-(3,4,5-trihydroxyphenyl)-1-benzopyrylium-3-yl]oxy]-3,4,5-trihydroxy-tetrahydropyran-2-yl]methyl ester

>  <PUBCHEM_IUPAC_INCHI>
InChI=1S/C23H22O13/c1-8(24)33-7-17-19(30)20(31)21(32)23(36-17)35-16-6-11-12(26)4-10(25)5-15(11)34-22(16)9-2-13(27)18(29)14(28)3-9/h2-6,17,19-21,23,30-32H,7H2,1H3,(H4-,25,26,27,28,29)/p+1

>  <PUBCHEM_IUPAC_INCHIKEY>
QPXIWIXIRHZIMM-UHFFFAOYSA-O

>  <PUBCHEM_EXACT_MASS>
507.114

>  <PUBCHEM_MOLECULAR_FORMULA>
C23H23O13+

>  <PUBCHEM_MOLECULAR_WEIGHT>
507.424

>  <PUBCHEM_OPENEYE_CAN_SMILES>
CC(=O)OCC1C(C(C(C(O1)OC2=C([O+]=C3C=C(C=C(C3=C2)O)O)C4=CC(=C(C(=C4)O)O)O)O)O)O

>  <PUBCHEM_OPENEYE_ISO_SMILES>
CC(=O)OCC1C(C(C(C(O1)OC2=C([O+]=C3C=C(C=C(C3=C2)O)O)C4=CC(=C(C(=C4)O)O)O)O)O)O

>  <PUBCHEM_CACTVS_TPSA>
208

>  <PUBCHEM_MONOISOTOPIC_WEIGHT>
507.114

>  <PUBCHEM_TOTAL_CHARGE>
1

>  <PUBCHEM_HEAVY_ATOM_COUNT>
36

>  <PUBCHEM_ATOM_DEF_STEREO_COUNT>
0

>  <PUBCHEM_ATOM_UDEF_STEREO_COUNT>
5

>  <PUBCHEM_BOND_DEF_STEREO_COUNT>
0

>  <PUBCHEM_BOND_UDEF_STEREO_COUNT>
0

>  <PUBCHEM_ISOTOPIC_ATOM_COUNT>
0

>  <PUBCHEM_COMPONENT_COUNT>
1

>  <PUBCHEM_CACTVS_TAUTO_COUNT>
217

>  <PUBCHEM_COORDINATE_TYPE>
1
5
255

>  <PUBCHEM_BONDANNOTATIONS>
16  19  3
18  2  3
20  21  8
20  22  8
22  23  8
23  24  8
23  27  8
24  28  8
25  29  8
25  30  8
27  32  8
28  33  8
29  35  8
14  3  3
30  34  8
32  33  8
34  36  8
35  36  8
15  4  3
17  5  3
7  21  8
7  24  8

$$$$
