74978261
 OpenBabel06101807152D

 97102  0  0  1  0  0  0  0  0999 V2000
    6.8671   -2.7715    0.0000 O   0  0  0  0  0  0  0  0  0  0  0  0
    7.7331   -0.2715    0.0000 O   0  0  0  0  0  0  0  0  0  0  0  0
    5.1350   -2.7715    0.0000 O   0  0  0  0  0  0  0  0  0  0  0  0
    8.5991   -1.7715    0.0000 O   0  0  0  0  0  0  0  0  0  0  0  0
    5.1350   -1.7715    0.0000 O   0  0  0  0  0  0  0  0  0  0  0  0
    5.1350    0.2285    0.0000 O   0  0  0  0  0  0  0  0  0  0  0  0
    6.8671   -4.7715    0.0000 O   0  0  0  0  0  0  0  0  0  0  0  0
    5.1350   -5.7715    0.0000 O   0  0  0  0  0  0  0  0  0  0  0  0
    3.4030   -4.7715    0.0000 O   0  0  0  0  0  0  0  0  0  0  0  0
   13.8550    3.2702    0.0000 O   0  0  0  0  0  0  0  0  0  0  0  0
    6.0010    1.7285    0.0000 O   0  0  0  0  0  0  0  0  0  0  0  0
    2.5369   -3.2715    0.0000 O   0  0  0  0  0  0  0  0  0  0  0  0
   12.9832    1.7736    0.0000 O   0  0  0  0  0  0  0  0  0  0  0  0
   11.2627    4.7803    0.0000 O   0  0  0  0  0  0  0  0  0  0  0  0
   12.9986    5.7736    0.0000 O   0  0  0  0  0  0  0  0  0  0  0  0
   11.2550    2.7803    0.0000 O   0  0  0  0  0  0  0  0  0  0  0  0
   11.1972   -1.2715    0.0000 O   0  0  0  0  0  0  0  0  0  0  0  0
    8.5991    0.2285    0.0000 O   0  0  0  0  0  0  0  0  0  0  0  0
    9.4434    1.7600    0.0000 O   0  0  0  0  0  0  0  0  0  0  0  0
   12.0632   -4.7715    0.0000 O   0  0  0  0  0  0  0  0  0  0  0  0
   10.3312   -5.7715    0.0000 O   0  0  0  0  0  0  0  0  0  0  0  0
    6.8671   -1.7715    0.0000 C   0  0  3  0  0  0  0  0  0  0  0  0
    6.0010   -1.2715    0.0000 C   0  0  3  0  0  0  0  0  0  0  0  0
    6.0010   -0.2715    0.0000 C   0  0  3  0  0  0  0  0  0  0  0  0
    6.0010   -3.2715    0.0000 C   0  0  3  0  0  0  0  0  0  0  0  0
    6.0010   -4.2715    0.0000 C   0  0  3  0  0  0  0  0  0  0  0  0
    7.7331   -1.2715    0.0000 C   0  0  3  0  0  0  0  0  0  0  0  0
    6.8671    0.2285    0.0000 C   0  0  3  0  0  0  0  0  0  0  0  0
    5.1350   -4.7715    0.0000 C   0  0  3  0  0  0  0  0  0  0  0  0
    4.2690   -4.2715    0.0000 C   0  0  3  0  0  0  0  0  0  0  0  0
    4.2690   -3.2715    0.0000 C   0  0  3  0  0  0  0  0  0  0  0  0
    6.8671    1.2285    0.0000 C   0  0  0  0  0  0  0  0  0  0  0  0
    3.4030   -2.7715    0.0000 C   0  0  0  0  0  0  0  0  0  0  0  0
   12.1268    4.2769    0.0000 C   0  0  3  0  0  0  0  0  0  0  0  0
   12.9947    4.7736    0.0000 C   0  0  3  0  0  0  0  0  0  0  0  0
   12.1229    3.2769    0.0000 C   0  0  3  0  0  0  0  0  0  0  0  0
   13.8588    4.2702    0.0000 C   0  0  3  0  0  0  0  0  0  0  0  0
   12.9870    2.7736    0.0000 C   0  0  3  0  0  0  0  0  0  0  0  0
    9.4651   -1.2715    0.0000 C   0  0  0  0  0  0  0  0  0  0  0  0
   14.7268    4.7669    0.0000 C   0  0  0  0  0  0  0  0  0  0  0  0
   10.3312   -1.7715    0.0000 C   0  0  0  0  0  0  0  0  0  0  0  0
    9.4651   -0.2715    0.0000 C   0  0  0  0  0  0  0  0  0  0  0  0
   10.3312    0.2285    0.0000 C   0  0  0  0  0  0  0  0  0  0  0  0
   11.1972   -0.2715    0.0000 C   0  0  0  0  0  0  0  0  0  0  0  0
   12.1152    1.2769    0.0000 C   0  0  0  0  0  0  0  0  0  0  0  0
   12.1072    0.2353    0.0000 C   0  0  0  0  0  0  0  0  0  0  0  0
   10.3312   -2.7715    0.0000 C   0  0  0  0  0  0  0  0  0  0  0  0
   10.3151    1.2700    0.0000 C   0  0  0  0  0  0  0  0  0  0  0  0
   11.2131    1.7978    0.0000 C   0  0  0  0  0  0  0  0  0  0  0  0
   11.1972   -3.2715    0.0000 C   0  0  0  0  0  0  0  0  0  0  0  0
    9.4651   -3.2715    0.0000 C   0  0  0  0  0  0  0  0  0  0  0  0
   11.1972   -4.2715    0.0000 C   0  0  0  0  0  0  0  0  0  0  0  0
    9.4651   -4.2715    0.0000 C   0  0  0  0  0  0  0  0  0  0  0  0
   10.3312   -4.7715    0.0000 C   0  0  0  0  0  0  0  0  0  0  0  0
   12.9292   -4.2715    0.0000 C   0  0  0  0  0  0  0  0  0  0  0  0
    7.4040   -2.0815    0.0000 H   0  0  0  0  0  0  0  0  0  0  0  0
    6.0010   -1.8915    0.0000 H   0  0  0  0  0  0  0  0  0  0  0  0
    6.0010    0.3485    0.0000 H   0  0  0  0  0  0  0  0  0  0  0  0
    6.0010   -2.6515    0.0000 H   0  0  0  0  0  0  0  0  0  0  0  0
    6.0010   -4.8915    0.0000 H   0  0  0  0  0  0  0  0  0  0  0  0
    8.2700   -0.9615    0.0000 H   0  0  0  0  0  0  0  0  0  0  0  0
    7.4040    0.5385    0.0000 H   0  0  0  0  0  0  0  0  0  0  0  0
    4.5981   -5.0815    0.0000 H   0  0  0  0  0  0  0  0  0  0  0  0
    3.7320   -3.9615    0.0000 H   0  0  0  0  0  0  0  0  0  0  0  0
    4.2690   -2.6515    0.0000 H   0  0  0  0  0  0  0  0  0  0  0  0
    7.4776    1.1208    0.0000 H   0  0  0  0  0  0  0  0  0  0  0  0
    7.0791    1.8111    0.0000 H   0  0  0  0  0  0  0  0  0  0  0  0
    3.8015   -2.2966    0.0000 H   0  0  0  0  0  0  0  0  0  0  0  0
    3.0044   -2.2966    0.0000 H   0  0  0  0  0  0  0  0  0  0  0  0
    4.5981   -1.4615    0.0000 H   0  0  0  0  0  0  0  0  0  0  0  0
    5.1350    0.8485    0.0000 H   0  0  0  0  0  0  0  0  0  0  0  0
    7.4040   -4.4615    0.0000 H   0  0  0  0  0  0  0  0  0  0  0  0
   12.1292    4.8969    0.0000 H   0  0  0  0  0  0  0  0  0  0  0  0
   13.5329    5.0815    0.0000 H   0  0  0  0  0  0  0  0  0  0  0  0
    5.6720   -6.0815    0.0000 H   0  0  0  0  0  0  0  0  0  0  0  0
   11.5872    3.5890    0.0000 H   0  0  0  0  0  0  0  0  0  0  0  0
    3.4030   -5.3915    0.0000 H   0  0  0  0  0  0  0  0  0  0  0  0
   14.3946    3.9582    0.0000 H   0  0  0  0  0  0  0  0  0  0  0  0
   12.4489    2.4657    0.0000 H   0  0  0  0  0  0  0  0  0  0  0  0
    6.0010    2.3485    0.0000 H   0  0  0  0  0  0  0  0  0  0  0  0
   15.0347    4.2288    0.0000 H   0  0  0  0  0  0  0  0  0  0  0  0
   15.2649    5.0748    0.0000 H   0  0  0  0  0  0  0  0  0  0  0  0
   14.4188    5.3050    0.0000 H   0  0  0  0  0  0  0  0  0  0  0  0
    2.0000   -2.9615    0.0000 H   0  0  0  0  0  0  0  0  0  0  0  0
   11.2651    5.4002    0.0000 H   0  0  0  0  0  0  0  0  0  0  0  0
   13.5367    6.0815    0.0000 H   0  0  0  0  0  0  0  0  0  0  0  0
   10.7192    3.0923    0.0000 H   0  0  0  0  0  0  0  0  0  0  0  0
   12.6405   -0.0808    0.0000 H   0  0  0  0  0  0  0  0  0  0  0  0
   11.2108    2.4178    0.0000 H   0  0  0  0  0  0  0  0  0  0  0  0
   11.7341   -2.9615    0.0000 H   0  0  0  0  0  0  0  0  0  0  0  0
    8.9282   -2.9615    0.0000 H   0  0  0  0  0  0  0  0  0  0  0  0
    9.4362    2.3799    0.0000 H   0  0  0  0  0  0  0  0  0  0  0  0
    8.9282   -4.5815    0.0000 H   0  0  0  0  0  0  0  0  0  0  0  0
   10.8681   -6.0815    0.0000 H   0  0  0  0  0  0  0  0  0  0  0  0
   13.2392   -4.8084    0.0000 H   0  0  0  0  0  0  0  0  0  0  0  0
   13.4662   -3.9615    0.0000 H   0  0  0  0  0  0  0  0  0  0  0  0
   12.6192   -3.7346    0.0000 H   0  0  0  0  0  0  0  0  0  0  0  0
  1 22  1  0  0  0  0
  1 25  1  0  0  0  0
  2 27  1  0  0  0  0
  2 28  1  0  0  0  0
  3 25  1  0  0  0  0
  3 31  1  0  0  0  0
  4 27  1  0  0  0  0
  4 39  1  0  0  0  0
  5 23  1  0  0  0  0
  5 70  1  0  0  0  0
  6 24  1  0  0  0  0
  6 71  1  0  0  0  0
  7 26  1  0  0  0  0
  7 72  1  0  0  0  0
  8 29  1  0  0  0  0
  8 75  1  0  0  0  0
  9 30  1  0  0  0  0
  9 77  1  0  0  0  0
 10 37  1  0  0  0  0
 10 38  1  0  0  0  0
 11 32  1  0  0  0  0
 11 80  1  0  0  0  0
 12 33  1  0  0  0  0
 12 84  1  0  0  0  0
 13 38  1  0  0  0  0
 13 45  1  0  0  0  0
 14 34  1  0  0  0  0
 14 85  1  0  0  0  0
 15 35  1  0  0  0  0
 15 86  1  0  0  0  0
 16 36  1  0  0  0  0
 16 87  1  0  0  0  0
 17 41  1  0  0  0  0
 17 44  1  0  0  0  0
 18 42  2  0  0  0  0
 19 48  1  0  0  0  0
 19 92  1  0  0  0  0
 20 52  1  0  0  0  0
 20 55  1  0  0  0  0
 21 54  1  0  0  0  0
 21 94  1  0  0  0  0
 22 23  1  0  0  0  0
 22 27  1  0  0  0  0
 22 56  1  0  0  0  0
 23 24  1  0  0  0  0
 23 57  1  0  0  0  0
 24 28  1  0  0  0  0
 24 58  1  0  0  0  0
 25 26  1  0  0  0  0
 25 59  1  0  0  0  0
 26 29  1  0  0  0  0
 26 60  1  0  0  0  0
 27 61  1  0  0  0  0
 28 32  1  0  0  0  0
 28 62  1  0  0  0  0
 29 30  1  0  0  0  0
 29 63  1  0  0  0  0
 30 31  1  0  0  0  0
 30 64  1  0  0  0  0
 31 33  1  0  0  0  0
 31 65  1  0  0  0  0
 32 66  1  0  0  0  0
 32 67  1  0  0  0  0
 33 68  1  0  0  0  0
 33 69  1  0  0  0  0
 34 35  1  0  0  0  0
 34 36  1  0  0  0  0
 34 73  1  0  0  0  0
 35 37  1  0  0  0  0
 35 74  1  0  0  0  0
 36 38  1  0  0  0  0
 36 76  1  0  0  0  0
 37 40  1  0  0  0  0
 37 78  1  0  0  0  0
 38 79  1  0  0  0  0
 39 41  2  0  0  0  0
 39 42  1  0  0  0  0
 40 81  1  0  0  0  0
 40 82  1  0  0  0  0
 40 83  1  0  0  0  0
 41 47  1  0  0  0  0
 42 43  1  0  0  0  0
 43 44  1  0  0  0  0
 43 48  2  0  0  0  0
 44 46  2  0  0  0  0
 45 46  1  0  0  0  0
 45 49  2  0  0  0  0
 46 88  1  0  0  0  0
 47 50  2  0  0  0  0
 47 51  1  0  0  0  0
 48 49  1  0  0  0  0
 49 89  1  0  0  0  0
 50 52  1  0  0  0  0
 50 90  1  0  0  0  0
 51 53  2  0  0  0  0
 51 91  1  0  0  0  0
 52 54  2  0  0  0  0
 53 54  1  0  0  0  0
 53 93  1  0  0  0  0
 55 95  1  0  0  0  0
 55 96  1  0  0  0  0
 55 97  1  0  0  0  0
M  END
>  <PUBCHEM_COMPOUND_CID>
74978261

>  <PUBCHEM_COMPOUND_CANONICALIZED>
1

>  <PUBCHEM_CACTVS_COMPLEXITY>
1340

>  <PUBCHEM_CACTVS_HBOND_ACCEPTOR>
21

>  <PUBCHEM_CACTVS_HBOND_DONOR>
12

>  <PUBCHEM_CACTVS_ROTATABLE_BOND>
10

>  <PUBCHEM_CACTVS_SUBSKEYS>
AAADcfB8PgAAAAAAAAAAAAAAAAAAAAAAAAA0aJECAAAAAACBQAAAGgAACAAADBSwmAMyDoAABgCIAqBSAAICCAAkIAAIiAFGiMgdNzaGNR6ieWOl4BUPuQfI7LzOIAABCAAIQABAAAIQABCAAAAAAAAAAA==

>  <PUBCHEM_IUPAC_OPENEYE_NAME>
3-[4,5-dihydroxy-6-(hydroxymethyl)-3-[3,4,5-trihydroxy-6-(hydroxymethyl)tetrahydropyran-2-yl]oxy-tetrahydropyran-2-yl]oxy-5-hydroxy-2-(4-hydroxy-3-methoxy-phenyl)-7-(3,4,5-trihydroxy-6-methyl-tetrahydropyran-2-yl)oxy-chromen-4-one

>  <PUBCHEM_IUPAC_CAS_NAME>
3-[[4,5-dihydroxy-6-(hydroxymethyl)-3-[[3,4,5-trihydroxy-6-(hydroxymethyl)-2-oxanyl]oxy]-2-oxanyl]oxy]-5-hydroxy-2-(4-hydroxy-3-methoxyphenyl)-7-[(3,4,5-trihydroxy-6-methyl-2-oxanyl)oxy]-1-benzopyran-4-one

>  <PUBCHEM_IUPAC_NAME>
3-[4,5-dihydroxy-6-(hydroxymethyl)-3-[3,4,5-trihydroxy-6-(hydroxymethyl)oxan-2-yl]oxyoxan-2-yl]oxy-5-hydroxy-2-(4-hydroxy-3-methoxyphenyl)-7-(3,4,5-trihydroxy-6-methyloxan-2-yl)oxychromen-4-one

>  <PUBCHEM_IUPAC_SYSTEMATIC_NAME>
3-[6-(hydroxymethyl)-3-[6-(hydroxymethyl)-3,4,5-tris(oxidanyl)oxan-2-yl]oxy-4,5-bis(oxidanyl)oxan-2-yl]oxy-2-(3-methoxy-4-oxidanyl-phenyl)-7-[6-methyl-3,4,5-tris(oxidanyl)oxan-2-yl]oxy-5-oxidanyl-chromen-4-one

>  <PUBCHEM_IUPAC_TRADITIONAL_NAME>
3-[4,5-dihydroxy-6-methylol-3-(3,4,5-trihydroxy-6-methylol-tetrahydropyran-2-yl)oxy-tetrahydropyran-2-yl]oxy-5-hydroxy-2-(4-hydroxy-3-methoxy-phenyl)-7-(3,4,5-trihydroxy-6-methyl-tetrahydropyran-2-yl)oxy-chromone

>  <PUBCHEM_IUPAC_INCHI>
InChI=1S/C34H42O21/c1-10-20(39)24(43)27(46)32(49-10)50-12-6-14(38)19-16(7-12)51-29(11-3-4-13(37)15(5-11)48-2)30(23(19)42)54-34-31(26(45)22(41)18(9-36)53-34)55-33-28(47)25(44)21(40)17(8-35)52-33/h3-7,10,17-18,20-22,24-28,31-41,43-47H,8-9H2,1-2H3

>  <PUBCHEM_IUPAC_INCHIKEY>
FJQKXKNZQQBTDD-UHFFFAOYSA-N

>  <PUBCHEM_XLOGP3_AA>
-2.2

>  <PUBCHEM_EXACT_MASS>
786.222

>  <PUBCHEM_MOLECULAR_FORMULA>
C34H42O21

>  <PUBCHEM_MOLECULAR_WEIGHT>
786.689

>  <PUBCHEM_OPENEYE_CAN_SMILES>
CC1C(C(C(C(O1)OC2=CC(=C3C(=C2)OC(=C(C3=O)OC4C(C(C(C(O4)CO)O)O)OC5C(C(C(C(O5)CO)O)O)O)C6=CC(=C(C=C6)O)OC)O)O)O)O

>  <PUBCHEM_OPENEYE_ISO_SMILES>
CC1C(C(C(C(O1)OC2=CC(=C3C(=C2)OC(=C(C3=O)OC4C(C(C(C(O4)CO)O)O)OC5C(C(C(C(O5)CO)O)O)O)C6=CC(=C(C=C6)O)OC)O)O)O)O

>  <PUBCHEM_CACTVS_TPSA>
334

>  <PUBCHEM_MONOISOTOPIC_WEIGHT>
786.222

>  <PUBCHEM_TOTAL_CHARGE>
0

>  <PUBCHEM_HEAVY_ATOM_COUNT>
55

>  <PUBCHEM_ATOM_DEF_STEREO_COUNT>
0

>  <PUBCHEM_ATOM_UDEF_STEREO_COUNT>
15

>  <PUBCHEM_BOND_DEF_STEREO_COUNT>
0

>  <PUBCHEM_BOND_UDEF_STEREO_COUNT>
0

>  <PUBCHEM_ISOTOPIC_ATOM_COUNT>
0

>  <PUBCHEM_COMPONENT_COUNT>
1

>  <PUBCHEM_CACTVS_TAUTO_COUNT>
29

>  <PUBCHEM_COORDINATE_TYPE>
1
5
255

>  <PUBCHEM_BONDANNOTATIONS>
22  1  3
25  1  3
38  13  3
34  14  3
35  15  3
36  16  3
17  41  8
17  44  8
28  32  3
31  33  3
37  40  3
39  41  8
39  42  8
27  4  3
42  43  8
43  44  8
43  48  8
44  46  8
45  46  8
45  49  8
47  50  8
47  51  8
48  49  8
23  5  3
50  52  8
51  53  8
52  54  8
53  54  8
24  6  3
26  7  3
29  8  3
30  9  3

$$$$
