74978041
 OpenBabel06101807152D

 91 95  0  0  1  0  0  0  0  0999 V2000
   10.3312   -3.1913    0.0000 O   0  0  0  0  0  0  0  0  0  0  0  0
   10.3249    3.8813    0.0000 O   0  0  0  0  0  0  0  0  0  0  0  0
   12.0632   -3.1913    0.0000 O   0  0  0  0  0  0  0  0  0  0  0  0
    8.5991   -5.1913    0.0000 O   0  0  0  0  0  0  0  0  0  0  0  0
   10.3312   -6.1913    0.0000 O   0  0  0  0  0  0  0  0  0  0  0  0
   12.0632   -5.1913    0.0000 O   0  0  0  0  0  0  0  0  0  0  0  0
   11.1851    2.3780    0.0000 O   0  0  0  0  0  0  0  0  0  0  0  0
    7.7210    2.3913    0.0000 O   0  0  0  0  0  0  0  0  0  0  0  0
    7.7287    4.3913    0.0000 O   0  0  0  0  0  0  0  0  0  0  0  0
    9.4492    1.3847    0.0000 O   0  0  0  0  0  0  0  0  0  0  0  0
    7.7331   -3.6913    0.0000 O   0  0  0  0  0  0  0  0  0  0  0  0
   10.3326    5.8813    0.0000 O   0  0  0  0  0  0  0  0  0  0  0  0
   12.9292   -0.6913    0.0000 O   0  0  0  0  0  0  0  0  0  0  0  0
    4.6350   -4.0573    0.0000 O   0  0  0  0  0  0  0  0  0  0  0  0
   10.3312   -2.1913    0.0000 O   0  0  0  0  0  0  0  0  0  0  0  0
    6.8671   -2.1913    0.0000 O   0  0  0  0  0  0  0  0  0  0  0  0
    9.4270   -0.6944    0.0000 O   0  0  0  0  0  0  0  0  0  0  0  0
    2.5369   -2.6913    0.0000 O   0  0  0  0  0  0  0  0  0  0  0  0
    3.4030   -4.1913    0.0000 O   0  0  0  0  0  0  0  0  0  0  0  0
   16.3933   -3.6913    0.0000 O   0  0  0  0  0  0  0  0  0  0  0  0
    9.4651   -4.6913    0.0000 C   0  0  3  0  0  0  0  0  0  0  0  0
   10.3312   -5.1913    0.0000 C   0  0  3  0  0  0  0  0  0  0  0  0
    9.4651   -3.6913    0.0000 C   0  0  3  0  0  0  0  0  0  0  0  0
   11.1972   -4.6913    0.0000 C   0  0  3  0  0  0  0  0  0  0  0  0
   11.1972   -3.6913    0.0000 C   0  0  3  0  0  0  0  0  0  0  0  0
    8.5890    2.8880    0.0000 C   0  0  3  0  0  0  0  0  0  0  0  0
    8.5928    3.8880    0.0000 C   0  0  3  0  0  0  0  0  0  0  0  0
    9.4530    2.3846    0.0000 C   0  0  3  0  0  0  0  0  0  0  0  0
    9.4608    4.3846    0.0000 C   0  0  3  0  0  0  0  0  0  0  0  0
   10.3210    2.8813    0.0000 C   0  0  3  0  0  0  0  0  0  0  0  0
    8.5991   -3.1913    0.0000 C   0  0  0  0  0  0  0  0  0  0  0  0
    9.4646    5.3846    0.0000 C   0  0  0  0  0  0  0  0  0  0  0  0
   12.0632   -2.1913    0.0000 C   0  0  0  0  0  0  0  0  0  0  0  0
   11.1812    1.3780    0.0000 C   0  0  0  0  0  0  0  0  0  0  0  0
   11.1972   -0.6913    0.0000 C   0  0  0  0  0  0  0  0  0  0  0  0
   11.1972   -1.6913    0.0000 C   0  0  0  0  0  0  0  0  0  0  0  0
   12.9292   -1.6913    0.0000 C   0  0  0  0  0  0  0  0  0  0  0  0
   12.0632   -0.1913    0.0000 C   0  0  0  0  0  0  0  0  0  0  0  0
    6.8671   -3.1913    0.0000 C   0  0  0  0  0  0  0  0  0  0  0  0
    6.0010   -3.6913    0.0000 C   0  0  0  0  0  0  0  0  0  0  0  0
    5.1350   -3.1913    0.0000 C   0  0  3  0  0  0  0  0  0  0  0  0
   12.0793    0.8502    0.0000 C   0  0  0  0  0  0  0  0  0  0  0  0
   10.2792    0.8572    0.0000 C   0  0  0  0  0  0  0  0  0  0  0  0
   10.2872   -0.1844    0.0000 C   0  0  0  0  0  0  0  0  0  0  0  0
    4.2690   -2.6913    0.0000 C   0  0  0  0  0  0  0  0  0  0  0  0
   13.7953   -2.1913    0.0000 C   0  0  0  0  0  0  0  0  0  0  0  0
    5.6350   -2.3253    0.0000 C   0  0  0  0  0  0  0  0  0  0  0  0
   14.6613   -1.6913    0.0000 C   0  0  0  0  0  0  0  0  0  0  0  0
   13.7953   -3.1913    0.0000 C   0  0  0  0  0  0  0  0  0  0  0  0
    3.4030   -3.1913    0.0000 C   0  0  0  0  0  0  0  0  0  0  0  0
   15.5273   -2.1913    0.0000 C   0  0  0  0  0  0  0  0  0  0  0  0
   14.6613   -3.6913    0.0000 C   0  0  0  0  0  0  0  0  0  0  0  0
   15.5273   -3.1913    0.0000 C   0  0  0  0  0  0  0  0  0  0  0  0
    9.4651   -5.3113    0.0000 H   0  0  0  0  0  0  0  0  0  0  0  0
   10.8681   -5.5013    0.0000 H   0  0  0  0  0  0  0  0  0  0  0  0
    9.4651   -3.0713    0.0000 H   0  0  0  0  0  0  0  0  0  0  0  0
   11.7341   -4.3813    0.0000 H   0  0  0  0  0  0  0  0  0  0  0  0
   11.1972   -3.0713    0.0000 H   0  0  0  0  0  0  0  0  0  0  0  0
    8.5866    2.2680    0.0000 H   0  0  0  0  0  0  0  0  0  0  0  0
    8.0547    3.5800    0.0000 H   0  0  0  0  0  0  0  0  0  0  0  0
    9.9888    2.0726    0.0000 H   0  0  0  0  0  0  0  0  0  0  0  0
    9.9989    4.6926    0.0000 H   0  0  0  0  0  0  0  0  0  0  0  0
   10.8591    3.1892    0.0000 H   0  0  0  0  0  0  0  0  0  0  0  0
    8.9976   -2.7163    0.0000 H   0  0  0  0  0  0  0  0  0  0  0  0
    8.2006   -2.7163    0.0000 H   0  0  0  0  0  0  0  0  0  0  0  0
    9.2548    5.9680    0.0000 H   0  0  0  0  0  0  0  0  0  0  0  0
    8.8536    5.2793    0.0000 H   0  0  0  0  0  0  0  0  0  0  0  0
    8.5991   -5.8113    0.0000 H   0  0  0  0  0  0  0  0  0  0  0  0
    9.7942   -6.5013    0.0000 H   0  0  0  0  0  0  0  0  0  0  0  0
   12.0632   -5.8113    0.0000 H   0  0  0  0  0  0  0  0  0  0  0  0
    7.1853    2.7034    0.0000 H   0  0  0  0  0  0  0  0  0  0  0  0
    7.7311    5.0113    0.0000 H   0  0  0  0  0  0  0  0  0  0  0  0
    8.9111    1.0767    0.0000 H   0  0  0  0  0  0  0  0  0  0  0  0
    5.6025   -4.1662    0.0000 H   0  0  0  0  0  0  0  0  0  0  0  0
    6.3996   -4.1662    0.0000 H   0  0  0  0  0  0  0  0  0  0  0  0
   12.6198    1.1540    0.0000 H   0  0  0  0  0  0  0  0  0  0  0  0
   10.3350    6.5013    0.0000 H   0  0  0  0  0  0  0  0  0  0  0  0
    9.7410    1.1651    0.0000 H   0  0  0  0  0  0  0  0  0  0  0  0
    4.6675   -2.2163    0.0000 H   0  0  0  0  0  0  0  0  0  0  0  0
    3.8705   -2.2163    0.0000 H   0  0  0  0  0  0  0  0  0  0  0  0
    6.1720   -2.6353    0.0000 H   0  0  0  0  0  0  0  0  0  0  0  0
    5.9450   -1.7883    0.0000 H   0  0  0  0  0  0  0  0  0  0  0  0
    5.0981   -2.0153    0.0000 H   0  0  0  0  0  0  0  0  0  0  0  0
    4.9450   -4.5942    0.0000 H   0  0  0  0  0  0  0  0  0  0  0  0
   14.6613   -1.0713    0.0000 H   0  0  0  0  0  0  0  0  0  0  0  0
   13.2583   -3.5013    0.0000 H   0  0  0  0  0  0  0  0  0  0  0  0
    8.8865   -0.3906    0.0000 H   0  0  0  0  0  0  0  0  0  0  0  0
   16.0643   -1.8813    0.0000 H   0  0  0  0  0  0  0  0  0  0  0  0
   14.6613   -4.3113    0.0000 H   0  0  0  0  0  0  0  0  0  0  0  0
    2.0000   -3.0013    0.0000 H   0  0  0  0  0  0  0  0  0  0  0  0
   16.3933   -4.3113    0.0000 H   0  0  0  0  0  0  0  0  0  0  0  0
  1 23  1  0  0  0  0
  1 25  1  0  0  0  0
  2 29  1  0  0  0  0
  2 30  1  0  0  0  0
  3 25  1  0  0  0  0
  3 33  1  0  0  0  0
  4 21  1  0  0  0  0
  4 68  1  0  0  0  0
  5 22  1  0  0  0  0
  5 69  1  0  0  0  0
  6 24  1  0  0  0  0
  6 70  1  0  0  0  0
  7 30  1  0  0  0  0
  7 34  1  0  0  0  0
  8 26  1  0  0  0  0
  8 71  1  0  0  0  0
  9 27  1  0  0  0  0
  9 72  1  0  0  0  0
 10 28  1  0  0  0  0
 10 73  1  0  0  0  0
 11 31  1  0  0  0  0
 11 39  1  0  0  0  0
 12 32  1  0  0  0  0
 12 77  1  0  0  0  0
 13 37  1  0  0  0  0
 13 38  1  0  0  0  0
 14 41  1  0  0  0  0
 14 84  1  0  0  0  0
 15 36  2  0  0  0  0
 16 39  2  0  0  0  0
 17 44  1  0  0  0  0
 17 87  1  0  0  0  0
 18 50  1  0  0  0  0
 18 90  1  0  0  0  0
 19 50  2  0  0  0  0
 20 53  1  0  0  0  0
 20 91  1  0  0  0  0
 21 22  1  0  0  0  0
 21 23  1  0  0  0  0
 21 54  1  0  0  0  0
 22 24  1  0  0  0  0
 22 55  1  0  0  0  0
 23 31  1  0  0  0  0
 23 56  1  0  0  0  0
 24 25  1  0  0  0  0
 24 57  1  0  0  0  0
 25 58  1  0  0  0  0
 26 27  1  0  0  0  0
 26 28  1  0  0  0  0
 26 59  1  0  0  0  0
 27 29  1  0  0  0  0
 27 60  1  0  0  0  0
 28 30  1  0  0  0  0
 28 61  1  0  0  0  0
 29 32  1  0  0  0  0
 29 62  1  0  0  0  0
 30 63  1  0  0  0  0
 31 64  1  0  0  0  0
 31 65  1  0  0  0  0
 32 66  1  0  0  0  0
 32 67  1  0  0  0  0
 33 36  1  0  0  0  0
 33 37  2  0  0  0  0
 34 42  1  0  0  0  0
 34 43  2  0  0  0  0
 35 36  1  0  0  0  0
 35 38  1  0  0  0  0
 35 44  2  0  0  0  0
 37 46  1  0  0  0  0
 38 42  2  0  0  0  0
 39 40  1  0  0  0  0
 40 41  1  0  0  0  0
 40 74  1  0  0  0  0
 40 75  1  0  0  0  0
 41 45  1  0  0  0  0
 41 47  1  0  0  0  0
 42 76  1  0  0  0  0
 43 44  1  0  0  0  0
 43 78  1  0  0  0  0
 45 50  1  0  0  0  0
 45 79  1  0  0  0  0
 45 80  1  0  0  0  0
 46 48  2  0  0  0  0
 46 49  1  0  0  0  0
 47 81  1  0  0  0  0
 47 82  1  0  0  0  0
 47 83  1  0  0  0  0
 48 51  1  0  0  0  0
 48 85  1  0  0  0  0
 49 52  2  0  0  0  0
 49 86  1  0  0  0  0
 51 53  2  0  0  0  0
 51 88  1  0  0  0  0
 52 53  1  0  0  0  0
 52 89  1  0  0  0  0
M  END
>  <PUBCHEM_COMPOUND_CID>
74978041

>  <PUBCHEM_COMPOUND_CANONICALIZED>
1

>  <PUBCHEM_CACTVS_COMPLEXITY>
1340

>  <PUBCHEM_CACTVS_HBOND_ACCEPTOR>
20

>  <PUBCHEM_CACTVS_HBOND_DONOR>
11

>  <PUBCHEM_CACTVS_ROTATABLE_BOND>
13

>  <PUBCHEM_CACTVS_SUBSKEYS>
AAADcfB8PgAAAAAAAAAAAAAAAAAAAAAAAAA0aIECAAAAAACBQAAAGgAACAAADFSwmAMyDoAABgCIAqDSCAICCAAkIAAIiAFGCMgdNzaGNR6ieWCl4BUPuQfI7qzOIAAACAAIAABAAAAQABAAAAAAAAAAAA==

>  <PUBCHEM_IUPAC_OPENEYE_NAME>
3-hydroxy-3-methyl-5-oxo-5-[[3,4,5-trihydroxy-6-[5-hydroxy-2-(4-hydroxyphenyl)-4-oxo-7-[3,4,5-trihydroxy-6-(hydroxymethyl)tetrahydropyran-2-yl]oxy-chromen-3-yl]oxy-tetrahydropyran-2-yl]methoxy]pentanoic acid

>  <PUBCHEM_IUPAC_CAS_NAME>
3-hydroxy-3-methyl-5-oxo-5-[[3,4,5-trihydroxy-6-[[5-hydroxy-2-(4-hydroxyphenyl)-4-oxo-7-[[3,4,5-trihydroxy-6-(hydroxymethyl)-2-oxanyl]oxy]-1-benzopyran-3-yl]oxy]-2-oxanyl]methoxy]pentanoic acid

>  <PUBCHEM_IUPAC_NAME>
3-hydroxy-3-methyl-5-oxo-5-[[3,4,5-trihydroxy-6-[5-hydroxy-2-(4-hydroxyphenyl)-4-oxo-7-[3,4,5-trihydroxy-6-(hydroxymethyl)oxan-2-yl]oxychromen-3-yl]oxyoxan-2-yl]methoxy]pentanoic acid

>  <PUBCHEM_IUPAC_SYSTEMATIC_NAME>
5-[[6-[7-[6-(hydroxymethyl)-3,4,5-tris(oxidanyl)oxan-2-yl]oxy-2-(4-hydroxyphenyl)-5-oxidanyl-4-oxidanylidene-chromen-3-yl]oxy-3,4,5-tris(oxidanyl)oxan-2-yl]methoxy]-3-methyl-3-oxidanyl-5-oxidanylidene-pentanoic acid

>  <PUBCHEM_IUPAC_TRADITIONAL_NAME>
3-hydroxy-5-keto-3-methyl-5-[[3,4,5-trihydroxy-6-[5-hydroxy-2-(4-hydroxyphenyl)-4-keto-7-(3,4,5-trihydroxy-6-methylol-tetrahydropyran-2-yl)oxy-chromen-3-yl]oxy-tetrahydropyran-2-yl]methoxy]valeric acid

>  <PUBCHEM_IUPAC_INCHI>
InChI=1S/C33H38O20/c1-33(47,8-19(37)38)9-20(39)48-11-18-23(41)26(44)28(46)32(52-18)53-30-24(42)21-15(36)6-14(49-31-27(45)25(43)22(40)17(10-34)51-31)7-16(21)50-29(30)12-2-4-13(35)5-3-12/h2-7,17-18,22-23,25-28,31-32,34-36,40-41,43-47H,8-11H2,1H3,(H,37,38)

>  <PUBCHEM_IUPAC_INCHIKEY>
KNBPTHQAIKQFMM-UHFFFAOYSA-N

>  <PUBCHEM_XLOGP3_AA>
-2.1

>  <PUBCHEM_EXACT_MASS>
754.196

>  <PUBCHEM_MOLECULAR_FORMULA>
C33H38O20

>  <PUBCHEM_MOLECULAR_WEIGHT>
754.647

>  <PUBCHEM_OPENEYE_CAN_SMILES>
CC(CC(=O)O)(CC(=O)OCC1C(C(C(C(O1)OC2=C(OC3=CC(=CC(=C3C2=O)O)OC4C(C(C(C(O4)CO)O)O)O)C5=CC=C(C=C5)O)O)O)O)O

>  <PUBCHEM_OPENEYE_ISO_SMILES>
CC(CC(=O)O)(CC(=O)OCC1C(C(C(C(O1)OC2=C(OC3=CC(=CC(=C3C2=O)O)OC4C(C(C(C(O4)CO)O)O)O)C5=CC=C(C=C5)O)O)O)O)O

>  <PUBCHEM_CACTVS_TPSA>
329

>  <PUBCHEM_MONOISOTOPIC_WEIGHT>
754.196

>  <PUBCHEM_TOTAL_CHARGE>
0

>  <PUBCHEM_HEAVY_ATOM_COUNT>
53

>  <PUBCHEM_ATOM_DEF_STEREO_COUNT>
0

>  <PUBCHEM_ATOM_UDEF_STEREO_COUNT>
11

>  <PUBCHEM_BOND_DEF_STEREO_COUNT>
0

>  <PUBCHEM_BOND_UDEF_STEREO_COUNT>
0

>  <PUBCHEM_ISOTOPIC_ATOM_COUNT>
0

>  <PUBCHEM_COMPONENT_COUNT>
1

>  <PUBCHEM_CACTVS_TAUTO_COUNT>
24

>  <PUBCHEM_COORDINATE_TYPE>
1
5
255

>  <PUBCHEM_BONDANNOTATIONS>
28  10  3
13  37  8
13  38  8
41  14  3
23  31  3
29  32  3
25  3  3
33  36  8
33  37  8
34  42  8
34  43  8
35  36  8
35  38  8
35  44  8
38  42  8
21  4  3
43  44  8
46  48  8
46  49  8
48  51  8
49  52  8
22  5  3
51  53  8
52  53  8
24  6  3
30  7  3
26  8  3
27  9  3

$$$$
