74978025
 OpenBabel06101807152D

114120  0  0  1  0  0  0  0  0999 V2000
    6.0010   -1.2715    0.0000 O   0  0  0  0  0  0  0  0  0  0  0  0
    4.2690   -1.2715    0.0000 O   0  0  0  0  0  0  0  0  0  0  0  0
    6.0010   -3.2715    0.0000 O   0  0  0  0  0  0  0  0  0  0  0  0
    6.8671    1.2285    0.0000 O   0  0  0  0  0  0  0  0  0  0  0  0
    5.1350   -4.7715    0.0000 O   0  0  0  0  0  0  0  0  0  0  0  0
    4.2690   -4.2715    0.0000 O   0  0  0  0  0  0  0  0  0  0  0  0
    2.5369   -3.2715    0.0000 O   0  0  0  0  0  0  0  0  0  0  0  0
    7.7331   -0.2715    0.0000 O   0  0  0  0  0  0  0  0  0  0  0  0
    4.2690   -0.2715    0.0000 O   0  0  0  0  0  0  0  0  0  0  0  0
    4.2690    1.7285    0.0000 O   0  0  0  0  0  0  0  0  0  0  0  0
    7.7331   -4.2715    0.0000 O   0  0  0  0  0  0  0  0  0  0  0  0
    7.7331   -6.2715    0.0000 O   0  0  0  0  0  0  0  0  0  0  0  0
    6.0010   -7.2715    0.0000 O   0  0  0  0  0  0  0  0  0  0  0  0
    2.5369   -0.2715    0.0000 O   0  0  0  0  0  0  0  0  0  0  0  0
    5.1350    3.2285    0.0000 O   0  0  0  0  0  0  0  0  0  0  0  0
    3.4030   -5.7715    0.0000 O   0  0  0  0  0  0  0  0  0  0  0  0
   12.9889    4.7702    0.0000 O   0  0  0  0  0  0  0  0  0  0  0  0
   12.1171    3.2736    0.0000 O   0  0  0  0  0  0  0  0  0  0  0  0
   10.3312    0.2285    0.0000 O   0  0  0  0  0  0  0  0  0  0  0  0
   10.3967    6.2803    0.0000 O   0  0  0  0  0  0  0  0  0  0  0  0
   12.1326    7.2736    0.0000 O   0  0  0  0  0  0  0  0  0  0  0  0
   10.3890    4.2803    0.0000 O   0  0  0  0  0  0  0  0  0  0  0  0
    7.7331    1.7285    0.0000 O   0  0  0  0  0  0  0  0  0  0  0  0
    8.5773    3.2600    0.0000 O   0  0  0  0  0  0  0  0  0  0  0  0
    9.4651   -4.2715    0.0000 O   0  0  0  0  0  0  0  0  0  0  0  0
    5.1350   -2.7715    0.0000 C   0  0  3  0  0  0  0  0  0  0  0  0
    5.1350   -1.7715    0.0000 C   0  0  3  0  0  0  0  0  0  0  0  0
    4.2690   -3.2715    0.0000 C   0  0  3  0  0  0  0  0  0  0  0  0
    3.4030   -2.7715    0.0000 C   0  0  3  0  0  0  0  0  0  0  0  0
    6.0010   -0.2715    0.0000 C   0  0  3  0  0  0  0  0  0  0  0  0
    3.4030   -1.7715    0.0000 C   0  0  3  0  0  0  0  0  0  0  0  0
    5.1350    0.2285    0.0000 C   0  0  3  0  0  0  0  0  0  0  0  0
    6.0010   -4.2715    0.0000 C   0  0  3  0  0  0  0  0  0  0  0  0
    5.1350    1.2285    0.0000 C   0  0  3  0  0  0  0  0  0  0  0  0
    6.8671    0.2285    0.0000 C   0  0  3  0  0  0  0  0  0  0  0  0
    6.8671   -4.7715    0.0000 C   0  0  3  0  0  0  0  0  0  0  0  0
    6.0010    1.7285    0.0000 C   0  0  3  0  0  0  0  0  0  0  0  0
    6.8671   -5.7715    0.0000 C   0  0  3  0  0  0  0  0  0  0  0  0
    6.0010   -6.2715    0.0000 C   0  0  3  0  0  0  0  0  0  0  0  0
    5.1350   -5.7715    0.0000 C   0  0  3  0  0  0  0  0  0  0  0  0
    2.5369   -1.2715    0.0000 C   0  0  0  0  0  0  0  0  0  0  0  0
    6.0010    2.7285    0.0000 C   0  0  0  0  0  0  0  0  0  0  0  0
    4.2690   -6.2715    0.0000 C   0  0  0  0  0  0  0  0  0  0  0  0
    8.5991    0.2285    0.0000 C   0  0  0  0  0  0  0  0  0  0  0  0
   11.2608    5.7769    0.0000 C   0  0  3  0  0  0  0  0  0  0  0  0
   12.1287    6.2736    0.0000 C   0  0  3  0  0  0  0  0  0  0  0  0
   11.2569    4.7769    0.0000 C   0  0  3  0  0  0  0  0  0  0  0  0
   12.9928    5.7702    0.0000 C   0  0  3  0  0  0  0  0  0  0  0  0
   12.1210    4.2736    0.0000 C   0  0  3  0  0  0  0  0  0  0  0  0
    9.4651   -0.2715    0.0000 C   0  0  0  0  0  0  0  0  0  0  0  0
    8.5991    1.2285    0.0000 C   0  0  0  0  0  0  0  0  0  0  0  0
    9.4651    1.7285    0.0000 C   0  0  0  0  0  0  0  0  0  0  0  0
   13.8607    6.2669    0.0000 C   0  0  0  0  0  0  0  0  0  0  0  0
   10.3312    1.2285    0.0000 C   0  0  0  0  0  0  0  0  0  0  0  0
    9.4651   -1.2715    0.0000 C   0  0  0  0  0  0  0  0  0  0  0  0
   11.2492    2.7769    0.0000 C   0  0  0  0  0  0  0  0  0  0  0  0
   11.2412    1.7353    0.0000 C   0  0  0  0  0  0  0  0  0  0  0  0
    9.4491    2.7700    0.0000 C   0  0  0  0  0  0  0  0  0  0  0  0
   10.3471    3.2978    0.0000 C   0  0  0  0  0  0  0  0  0  0  0  0
   10.3312   -1.7715    0.0000 C   0  0  0  0  0  0  0  0  0  0  0  0
    8.5991   -1.7715    0.0000 C   0  0  0  0  0  0  0  0  0  0  0  0
   10.3312   -2.7715    0.0000 C   0  0  0  0  0  0  0  0  0  0  0  0
    8.5991   -2.7715    0.0000 C   0  0  0  0  0  0  0  0  0  0  0  0
    9.4651   -3.2715    0.0000 C   0  0  0  0  0  0  0  0  0  0  0  0
    5.1350   -3.3915    0.0000 H   0  0  0  0  0  0  0  0  0  0  0  0
    5.1350   -1.1515    0.0000 H   0  0  0  0  0  0  0  0  0  0  0  0
    3.7320   -3.5815    0.0000 H   0  0  0  0  0  0  0  0  0  0  0  0
    2.8660   -2.4615    0.0000 H   0  0  0  0  0  0  0  0  0  0  0  0
    6.5380   -0.5815    0.0000 H   0  0  0  0  0  0  0  0  0  0  0  0
    3.4030   -1.1515    0.0000 H   0  0  0  0  0  0  0  0  0  0  0  0
    5.1350   -0.3915    0.0000 H   0  0  0  0  0  0  0  0  0  0  0  0
    6.5380   -3.9615    0.0000 H   0  0  0  0  0  0  0  0  0  0  0  0
    5.1350    1.8485    0.0000 H   0  0  0  0  0  0  0  0  0  0  0  0
    7.4040    0.5385    0.0000 H   0  0  0  0  0  0  0  0  0  0  0  0
    7.4040   -5.0815    0.0000 H   0  0  0  0  0  0  0  0  0  0  0  0
    6.5380    2.0385    0.0000 H   0  0  0  0  0  0  0  0  0  0  0  0
    6.8671   -6.3915    0.0000 H   0  0  0  0  0  0  0  0  0  0  0  0
    5.4641   -6.5815    0.0000 H   0  0  0  0  0  0  0  0  0  0  0  0
    4.5981   -5.4615    0.0000 H   0  0  0  0  0  0  0  0  0  0  0  0
    1.9264   -1.1638    0.0000 H   0  0  0  0  0  0  0  0  0  0  0  0
    2.3249   -1.8541    0.0000 H   0  0  0  0  0  0  0  0  0  0  0  0
    3.7320   -4.5815    0.0000 H   0  0  0  0  0  0  0  0  0  0  0  0
    6.6116    2.6208    0.0000 H   0  0  0  0  0  0  0  0  0  0  0  0
    6.2131    3.3111    0.0000 H   0  0  0  0  0  0  0  0  0  0  0  0
    2.0000   -2.9615    0.0000 H   0  0  0  0  0  0  0  0  0  0  0  0
    3.8705   -6.7464    0.0000 H   0  0  0  0  0  0  0  0  0  0  0  0
    4.6675   -6.7464    0.0000 H   0  0  0  0  0  0  0  0  0  0  0  0
    3.7320    0.0385    0.0000 H   0  0  0  0  0  0  0  0  0  0  0  0
    4.2690    2.3485    0.0000 H   0  0  0  0  0  0  0  0  0  0  0  0
    8.2700   -4.5815    0.0000 H   0  0  0  0  0  0  0  0  0  0  0  0
    7.7331   -6.8915    0.0000 H   0  0  0  0  0  0  0  0  0  0  0  0
    5.4641   -7.5815    0.0000 H   0  0  0  0  0  0  0  0  0  0  0  0
    2.0000    0.0385    0.0000 H   0  0  0  0  0  0  0  0  0  0  0  0
   10.7226    5.4690    0.0000 H   0  0  0  0  0  0  0  0  0  0  0  0
   11.5930    6.5856    0.0000 H   0  0  0  0  0  0  0  0  0  0  0  0
   11.2545    4.1569    0.0000 H   0  0  0  0  0  0  0  0  0  0  0  0
   13.5285    5.4582    0.0000 H   0  0  0  0  0  0  0  0  0  0  0  0
    5.1350    3.8485    0.0000 H   0  0  0  0  0  0  0  0  0  0  0  0
   12.6567    3.9615    0.0000 H   0  0  0  0  0  0  0  0  0  0  0  0
    2.8660   -6.0815    0.0000 H   0  0  0  0  0  0  0  0  0  0  0  0
   14.1687    5.7288    0.0000 H   0  0  0  0  0  0  0  0  0  0  0  0
   14.3989    6.5748    0.0000 H   0  0  0  0  0  0  0  0  0  0  0  0
   13.5528    6.8050    0.0000 H   0  0  0  0  0  0  0  0  0  0  0  0
   10.3991    6.9002    0.0000 H   0  0  0  0  0  0  0  0  0  0  0  0
   12.6707    7.5815    0.0000 H   0  0  0  0  0  0  0  0  0  0  0  0
   11.7745    1.4192    0.0000 H   0  0  0  0  0  0  0  0  0  0  0  0
    9.8532    4.5923    0.0000 H   0  0  0  0  0  0  0  0  0  0  0  0
   10.3447    3.9178    0.0000 H   0  0  0  0  0  0  0  0  0  0  0  0
   10.8681   -1.4615    0.0000 H   0  0  0  0  0  0  0  0  0  0  0  0
    8.0622   -1.4615    0.0000 H   0  0  0  0  0  0  0  0  0  0  0  0
    8.5702    3.8799    0.0000 H   0  0  0  0  0  0  0  0  0  0  0  0
   10.8681   -3.0815    0.0000 H   0  0  0  0  0  0  0  0  0  0  0  0
    8.0622   -3.0815    0.0000 H   0  0  0  0  0  0  0  0  0  0  0  0
   10.0021   -4.5815    0.0000 H   0  0  0  0  0  0  0  0  0  0  0  0
  1 27  1  0  0  0  0
  1 30  1  0  0  0  0
  2 27  1  0  0  0  0
  2 31  1  0  0  0  0
  3 26  1  0  0  0  0
  3 33  1  0  0  0  0
  4 35  1  0  0  0  0
  4 37  1  0  0  0  0
  5 33  1  0  0  0  0
  5 40  1  0  0  0  0
  6 28  1  0  0  0  0
  6 82  1  0  0  0  0
  7 29  1  0  0  0  0
  7 85  1  0  0  0  0
  8 35  1  0  0  0  0
  8 44  1  0  0  0  0
  9 32  1  0  0  0  0
  9 88  1  0  0  0  0
 10 34  1  0  0  0  0
 10 89  1  0  0  0  0
 11 36  1  0  0  0  0
 11 90  1  0  0  0  0
 12 38  1  0  0  0  0
 12 91  1  0  0  0  0
 13 39  1  0  0  0  0
 13 92  1  0  0  0  0
 14 41  1  0  0  0  0
 14 93  1  0  0  0  0
 15 42  1  0  0  0  0
 15 98  1  0  0  0  0
 16 43  1  0  0  0  0
 16100  1  0  0  0  0
 17 48  1  0  0  0  0
 17 49  1  0  0  0  0
 18 49  1  0  0  0  0
 18 56  1  0  0  0  0
 19 50  1  0  0  0  0
 19 54  1  0  0  0  0
 20 45  1  0  0  0  0
 20104  1  0  0  0  0
 21 46  1  0  0  0  0
 21105  1  0  0  0  0
 22 47  1  0  0  0  0
 22107  1  0  0  0  0
 23 51  2  0  0  0  0
 24 58  1  0  0  0  0
 24111  1  0  0  0  0
 25 64  1  0  0  0  0
 25114  1  0  0  0  0
 26 27  1  0  0  0  0
 26 28  1  0  0  0  0
 26 65  1  0  0  0  0
 27 66  1  0  0  0  0
 28 29  1  0  0  0  0
 28 67  1  0  0  0  0
 29 31  1  0  0  0  0
 29 68  1  0  0  0  0
 30 32  1  0  0  0  0
 30 35  1  0  0  0  0
 30 69  1  0  0  0  0
 31 41  1  0  0  0  0
 31 70  1  0  0  0  0
 32 34  1  0  0  0  0
 32 71  1  0  0  0  0
 33 36  1  0  0  0  0
 33 72  1  0  0  0  0
 34 37  1  0  0  0  0
 34 73  1  0  0  0  0
 35 74  1  0  0  0  0
 36 38  1  0  0  0  0
 36 75  1  0  0  0  0
 37 42  1  0  0  0  0
 37 76  1  0  0  0  0
 38 39  1  0  0  0  0
 38 77  1  0  0  0  0
 39 40  1  0  0  0  0
 39 78  1  0  0  0  0
 40 43  1  0  0  0  0
 40 79  1  0  0  0  0
 41 80  1  0  0  0  0
 41 81  1  0  0  0  0
 42 83  1  0  0  0  0
 42 84  1  0  0  0  0
 43 86  1  0  0  0  0
 43 87  1  0  0  0  0
 44 50  2  0  0  0  0
 44 51  1  0  0  0  0
 45 46  1  0  0  0  0
 45 47  1  0  0  0  0
 45 94  1  0  0  0  0
 46 48  1  0  0  0  0
 46 95  1  0  0  0  0
 47 49  1  0  0  0  0
 47 96  1  0  0  0  0
 48 53  1  0  0  0  0
 48 97  1  0  0  0  0
 49 99  1  0  0  0  0
 50 55  1  0  0  0  0
 51 52  1  0  0  0  0
 52 54  1  0  0  0  0
 52 58  2  0  0  0  0
 53101  1  0  0  0  0
 53102  1  0  0  0  0
 53103  1  0  0  0  0
 54 57  2  0  0  0  0
 55 60  2  0  0  0  0
 55 61  1  0  0  0  0
 56 57  1  0  0  0  0
 56 59  2  0  0  0  0
 57106  1  0  0  0  0
 58 59  1  0  0  0  0
 59108  1  0  0  0  0
 60 62  1  0  0  0  0
 60109  1  0  0  0  0
 61 63  2  0  0  0  0
 61110  1  0  0  0  0
 62 64  2  0  0  0  0
 62112  1  0  0  0  0
 63 64  1  0  0  0  0
 63113  1  0  0  0  0
M  END
>  <PUBCHEM_COMPOUND_CID>
74978025

>  <PUBCHEM_COMPOUND_CANONICALIZED>
1

>  <PUBCHEM_CACTVS_COMPLEXITY>
1580

>  <PUBCHEM_CACTVS_HBOND_ACCEPTOR>
25

>  <PUBCHEM_CACTVS_HBOND_DONOR>
15

>  <PUBCHEM_CACTVS_ROTATABLE_BOND>
12

>  <PUBCHEM_CACTVS_SUBSKEYS>
AAADcfB8PgAAAAAAAAAAAAAAAAAAAAAAAAA0aJEiAAAAAACBQAAAGgAACAAADBSwmAMyDoAABgCIAqBSAAICCAAkIAAIiAFGCMgdNzaGNR6ieWCl4BUPuQfI7KzOIAAACAAIAABAAAAQABAAAAAAAAAAAA==

>  <PUBCHEM_IUPAC_OPENEYE_NAME>
3-[3-[4,5-dihydroxy-6-(hydroxymethyl)-3-[3,4,5-trihydroxy-6-(hydroxymethyl)tetrahydropyran-2-yl]oxy-tetrahydropyran-2-yl]oxy-4,5-dihydroxy-6-(hydroxymethyl)tetrahydropyran-2-yl]oxy-5-hydroxy-2-(4-hydroxyphenyl)-7-(3,4,5-trihydroxy-6-methyl-tetrahydropyran-2-yl)oxy-chromen-4-one

>  <PUBCHEM_IUPAC_CAS_NAME>
3-[[3-[[4,5-dihydroxy-6-(hydroxymethyl)-3-[[3,4,5-trihydroxy-6-(hydroxymethyl)-2-oxanyl]oxy]-2-oxanyl]oxy]-4,5-dihydroxy-6-(hydroxymethyl)-2-oxanyl]oxy]-5-hydroxy-2-(4-hydroxyphenyl)-7-[(3,4,5-trihydroxy-6-methyl-2-oxanyl)oxy]-1-benzopyran-4-one

>  <PUBCHEM_IUPAC_NAME>
3-[3-[4,5-dihydroxy-6-(hydroxymethyl)-3-[3,4,5-trihydroxy-6-(hydroxymethyl)oxan-2-yl]oxyoxan-2-yl]oxy-4,5-dihydroxy-6-(hydroxymethyl)oxan-2-yl]oxy-5-hydroxy-2-(4-hydroxyphenyl)-7-(3,4,5-trihydroxy-6-methyloxan-2-yl)oxychromen-4-one

>  <PUBCHEM_IUPAC_SYSTEMATIC_NAME>
3-[6-(hydroxymethyl)-3-[6-(hydroxymethyl)-3-[6-(hydroxymethyl)-3,4,5-tris(oxidanyl)oxan-2-yl]oxy-4,5-bis(oxidanyl)oxan-2-yl]oxy-4,5-bis(oxidanyl)oxan-2-yl]oxy-2-(4-hydroxyphenyl)-7-[6-methyl-3,4,5-tris(oxidanyl)oxan-2-yl]oxy-5-oxidanyl-chromen-4-one

>  <PUBCHEM_IUPAC_TRADITIONAL_NAME>
3-[3-[4,5-dihydroxy-6-methylol-3-(3,4,5-trihydroxy-6-methylol-tetrahydropyran-2-yl)oxy-tetrahydropyran-2-yl]oxy-4,5-dihydroxy-6-methylol-tetrahydropyran-2-yl]oxy-5-hydroxy-2-(4-hydroxyphenyl)-7-(3,4,5-trihydroxy-6-methyl-tetrahydropyran-2-yl)oxy-chromone

>  <PUBCHEM_IUPAC_INCHI>
InChI=1S/C39H50O25/c1-11-21(45)26(50)30(54)36(56-11)57-14-6-15(44)20-16(7-14)58-32(12-2-4-13(43)5-3-12)33(25(20)49)62-38-35(29(53)24(48)18(9-41)60-38)64-39-34(28(52)23(47)19(10-42)61-39)63-37-31(55)27(51)22(46)17(8-40)59-37/h2-7,11,17-19,21-24,26-31,34-48,50-55H,8-10H2,1H3

>  <PUBCHEM_IUPAC_INCHIKEY>
BFCBWGVCQKVMCS-UHFFFAOYSA-N

>  <PUBCHEM_XLOGP3_AA>
-3.8

>  <PUBCHEM_EXACT_MASS>
918.264

>  <PUBCHEM_MOLECULAR_FORMULA>
C39H50O25

>  <PUBCHEM_MOLECULAR_WEIGHT>
918.804

>  <PUBCHEM_OPENEYE_CAN_SMILES>
CC1C(C(C(C(O1)OC2=CC(=C3C(=C2)OC(=C(C3=O)OC4C(C(C(C(O4)CO)O)O)OC5C(C(C(C(O5)CO)O)O)OC6C(C(C(C(O6)CO)O)O)O)C7=CC=C(C=C7)O)O)O)O)O

>  <PUBCHEM_OPENEYE_ISO_SMILES>
CC1C(C(C(C(O1)OC2=CC(=C3C(=C2)OC(=C(C3=O)OC4C(C(C(C(O4)CO)O)O)OC5C(C(C(C(O5)CO)O)O)OC6C(C(C(C(O6)CO)O)O)O)C7=CC=C(C=C7)O)O)O)O)O

>  <PUBCHEM_CACTVS_TPSA>
404

>  <PUBCHEM_MONOISOTOPIC_WEIGHT>
918.264

>  <PUBCHEM_TOTAL_CHARGE>
0

>  <PUBCHEM_HEAVY_ATOM_COUNT>
64

>  <PUBCHEM_ATOM_DEF_STEREO_COUNT>
0

>  <PUBCHEM_ATOM_UDEF_STEREO_COUNT>
20

>  <PUBCHEM_BOND_DEF_STEREO_COUNT>
0

>  <PUBCHEM_BOND_UDEF_STEREO_COUNT>
0

>  <PUBCHEM_ISOTOPIC_ATOM_COUNT>
0

>  <PUBCHEM_COMPONENT_COUNT>
1

>  <PUBCHEM_CACTVS_TAUTO_COUNT>
24

>  <PUBCHEM_COORDINATE_TYPE>
1
5
255

>  <PUBCHEM_BONDANNOTATIONS>
27  1  3
30  1  3
34  10  3
36  11  3
38  12  3
39  13  3
49  18  3
19  50  8
19  54  8
45  20  3
46  21  3
47  22  3
26  3  3
33  3  3
31  41  3
37  42  3
40  43  3
44  50  8
44  51  8
48  53  3
51  52  8
52  54  8
52  58  8
54  57  8
55  60  8
55  61  8
56  57  8
56  59  8
58  59  8
28  6  3
60  62  8
61  63  8
62  64  8
63  64  8
29  7  3
35  8  3
32  9  3

$$$$
