75324
 OpenBabel06101807152D

 28 29  0  0  0  0  0  0  0  0999 V2000
    7.1279    0.0000    0.0000 O   0  0  0  0  0  0  0  0  0  0  0  0
    3.7320   -2.0000    0.0000 O   0  0  0  0  0  0  0  0  0  0  0  0
    2.0000    1.0000    0.0000 O   0  0  0  0  0  0  0  0  0  0  0  0
    5.5443    0.8047    0.0000 N   0  0  0  0  0  0  0  0  0  0  0  0
    5.5443   -0.8047    0.0000 N   0  0  0  0  0  0  0  0  0  0  0  0
    3.7320    1.0000    0.0000 N   0  0  0  0  0  0  0  0  0  0  0  0
    2.8660   -0.5000    0.0000 N   0  0  0  0  0  0  0  0  0  0  0  0
    4.5981    0.5000    0.0000 C   0  0  0  0  0  0  0  0  0  0  0  0
    4.5981   -0.5000    0.0000 C   0  0  0  0  0  0  0  0  0  0  0  0
    6.1279    0.0000    0.0000 C   0  0  0  0  0  0  0  0  0  0  0  0
    3.7320   -1.0000    0.0000 C   0  0  0  0  0  0  0  0  0  0  0  0
    2.8660    0.5000    0.0000 C   0  0  0  0  0  0  0  0  0  0  0  0
    5.8550    1.7552    0.0000 C   0  0  0  0  0  0  0  0  0  0  0  0
    5.8550   -1.7552    0.0000 C   0  0  0  0  0  0  0  0  0  0  0  0
    3.7320    2.0000    0.0000 C   0  0  0  0  0  0  0  0  0  0  0  0
    2.0000   -1.0000    0.0000 C   0  0  0  0  0  0  0  0  0  0  0  0
    6.4443    1.5626    0.0000 H   0  0  0  0  0  0  0  0  0  0  0  0
    6.0476    2.3446    0.0000 H   0  0  0  0  0  0  0  0  0  0  0  0
    5.2656    1.9479    0.0000 H   0  0  0  0  0  0  0  0  0  0  0  0
    5.2656   -1.9479    0.0000 H   0  0  0  0  0  0  0  0  0  0  0  0
    6.0476   -2.3446    0.0000 H   0  0  0  0  0  0  0  0  0  0  0  0
    6.4443   -1.5626    0.0000 H   0  0  0  0  0  0  0  0  0  0  0  0
    4.3520    2.0000    0.0000 H   0  0  0  0  0  0  0  0  0  0  0  0
    3.7320    2.6200    0.0000 H   0  0  0  0  0  0  0  0  0  0  0  0
    3.1120    2.0000    0.0000 H   0  0  0  0  0  0  0  0  0  0  0  0
    1.6900   -0.4631    0.0000 H   0  0  0  0  0  0  0  0  0  0  0  0
    1.4631   -1.3100    0.0000 H   0  0  0  0  0  0  0  0  0  0  0  0
    2.3100   -1.5369    0.0000 H   0  0  0  0  0  0  0  0  0  0  0  0
  1 10  2  0  0  0  0
  2 11  2  0  0  0  0
  3 12  2  0  0  0  0
  4  8  1  0  0  0  0
  4 10  1  0  0  0  0
  4 13  1  0  0  0  0
  5  9  1  0  0  0  0
  5 10  1  0  0  0  0
  5 14  1  0  0  0  0
  6  8  1  0  0  0  0
  6 12  1  0  0  0  0
  6 15  1  0  0  0  0
  7 11  1  0  0  0  0
  7 12  1  0  0  0  0
  7 16  1  0  0  0  0
  8  9  2  0  0  0  0
  9 11  1  0  0  0  0
 13 17  1  0  0  0  0
 13 18  1  0  0  0  0
 13 19  1  0  0  0  0
 14 20  1  0  0  0  0
 14 21  1  0  0  0  0
 14 22  1  0  0  0  0
 15 23  1  0  0  0  0
 15 24  1  0  0  0  0
 15 25  1  0  0  0  0
 16 26  1  0  0  0  0
 16 27  1  0  0  0  0
 16 28  1  0  0  0  0
M  END
>  <PUBCHEM_COMPOUND_CID>
75324

>  <PUBCHEM_COMPOUND_CANONICALIZED>
1

>  <PUBCHEM_CACTVS_COMPLEXITY>
442

>  <PUBCHEM_CACTVS_HBOND_ACCEPTOR>
3

>  <PUBCHEM_CACTVS_HBOND_DONOR>
0

>  <PUBCHEM_CACTVS_ROTATABLE_BOND>
0

>  <PUBCHEM_CACTVS_SUBSKEYS>
AAADccBzsAAAAAAAAAAAAAAAAAAAAQAAAAAgAAAAAAAAAFgAAAAAHgAAAAAACAgBgAQDAAMAAACIAAVQUACAAAAAAAAAAACIAECAQAAAACAQAAAIByIAAEAAAAAAAAAAAAAAAAAAAAAAAAAAAAAAAAAAAA==

>  <PUBCHEM_IUPAC_OPENEYE_NAME>
1,3,7,9-tetramethylpurine-2,6,8-trione

>  <PUBCHEM_IUPAC_CAS_NAME>
1,3,7,9-tetramethylpurine-2,6,8-trione

>  <PUBCHEM_IUPAC_NAME>
1,3,7,9-tetramethylpurine-2,6,8-trione

>  <PUBCHEM_IUPAC_SYSTEMATIC_NAME>
1,3,7,9-tetramethylpurine-2,6,8-trione

>  <PUBCHEM_IUPAC_TRADITIONAL_NAME>
1,3,7,9-tetramethyluric acid

>  <PUBCHEM_IUPAC_INCHI>
InChI=1S/C9H12N4O3/c1-10-5-6(11(2)8(10)15)12(3)9(16)13(4)7(5)14/h1-4H3

>  <PUBCHEM_IUPAC_INCHIKEY>
QGDOQULISIQFHQ-UHFFFAOYSA-N

>  <PUBCHEM_XLOGP3>
-0.2

>  <PUBCHEM_EXACT_MASS>
224.091

>  <PUBCHEM_MOLECULAR_FORMULA>
C9H12N4O3

>  <PUBCHEM_MOLECULAR_WEIGHT>
224.22

>  <PUBCHEM_OPENEYE_CAN_SMILES>
CN1C2=C(N(C1=O)C)N(C(=O)N(C2=O)C)C

>  <PUBCHEM_OPENEYE_ISO_SMILES>
CN1C2=C(N(C1=O)C)N(C(=O)N(C2=O)C)C

>  <PUBCHEM_CACTVS_TPSA>
64.2

>  <PUBCHEM_MONOISOTOPIC_WEIGHT>
224.091

>  <PUBCHEM_TOTAL_CHARGE>
0

>  <PUBCHEM_HEAVY_ATOM_COUNT>
16

>  <PUBCHEM_ATOM_DEF_STEREO_COUNT>
0

>  <PUBCHEM_ATOM_UDEF_STEREO_COUNT>
0

>  <PUBCHEM_BOND_DEF_STEREO_COUNT>
0

>  <PUBCHEM_BOND_UDEF_STEREO_COUNT>
0

>  <PUBCHEM_ISOTOPIC_ATOM_COUNT>
0

>  <PUBCHEM_COMPONENT_COUNT>
1

>  <PUBCHEM_CACTVS_TAUTO_COUNT>
1

>  <PUBCHEM_COORDINATE_TYPE>
1
5
255

>  <PUBCHEM_BONDANNOTATIONS>
4  10  8
4  8  8
5  10  8
5  9  8
6  12  8
6  8  8
7  11  8
7  12  8
8  9  8
9  11  8

$$$$
