76025738
 OpenBabel06101807152D

 85 89  0  0  1  0  0  0  0  0999 V2000
    2.5357   -2.5933    0.0000 O   0  0  0  0  0  0  0  0  0  0  0  0
    2.5519   -0.5017    0.0000 O   0  0  0  0  0  0  0  0  0  0  0  0
   11.4608    0.4932    0.0000 O   0  0  0  0  0  0  0  0  0  0  0  0
   10.6064   -1.0134    0.0000 O   0  0  0  0  0  0  0  0  0  0  0  0
    7.0628   -1.0410    0.0000 C   0  0  3  0  0  0  0  0  0  0  0  0
    6.1968   -0.5410    0.0000 C   0  0  3  0  0  0  0  0  0  0  0  0
    5.2868   -1.0478    0.0000 C   0  0  3  0  0  0  0  0  0  0  0  0
    7.9288   -0.5410    0.0000 C   0  0  3  0  0  0  0  0  0  0  0  0
    5.2787   -2.0894    0.0000 C   0  0  3  0  0  0  0  0  0  0  0  0
    7.0789   -2.0825    0.0000 C   0  0  0  0  0  0  0  0  0  0  0  0
    6.1808   -2.6102    0.0000 C   0  0  0  0  0  0  0  0  0  0  0  0
    4.3433   -2.6391    0.0000 C   0  0  0  0  0  0  0  0  0  0  0  0
    6.1968    0.4590    0.0000 C   0  0  0  0  0  0  0  0  0  0  0  0
    7.9288    0.4590    0.0000 C   0  0  0  0  0  0  0  0  0  0  0  0
    4.3599   -0.4837    0.0000 C   0  0  0  0  0  0  0  0  0  0  0  0
    8.8228   -1.0756    0.0000 C   0  0  0  0  0  0  0  0  0  0  0  0
    7.0628    0.9590    0.0000 C   0  0  0  0  0  0  0  0  0  0  0  0
    7.7056   -1.8070    0.0000 C   0  0  0  0  0  0  0  0  0  0  0  0
    3.4037   -2.0966    0.0000 C   0  0  3  0  0  0  0  0  0  0  0  0
    3.4120   -1.0117    0.0000 C   0  0  3  0  0  0  0  0  0  0  0  0
    5.2945   -0.0478    0.0000 C   0  0  0  0  0  0  0  0  0  0  0  0
    9.7288    0.4799    0.0000 C   0  0  3  0  0  0  0  0  0  0  0  0
    8.8228    0.9937    0.0000 C   0  0  0  0  0  0  0  0  0  0  0  0
    9.7288   -0.5618    0.0000 C   0  0  0  0  0  0  0  0  0  0  0  0
    8.2709   -1.4806    0.0000 C   0  0  0  0  0  0  0  0  0  0  0  0
    3.8467   -3.5071    0.0000 C   0  0  0  0  0  0  0  0  0  0  0  0
    4.8466   -3.5032    0.0000 C   0  0  0  0  0  0  0  0  0  0  0  0
    8.7977    2.0784    0.0000 C   0  0  0  0  0  0  0  0  0  0  0  0
   10.6726    1.0151    0.0000 C   0  0  0  0  0  0  0  0  0  0  0  0
    9.7288    2.6353    0.0000 C   0  0  0  0  0  0  0  0  0  0  0  0
   10.6726    2.1001    0.0000 C   0  0  0  0  0  0  0  0  0  0  0  0
   10.5987   -0.0135    0.0000 C   0  0  0  0  0  0  0  0  0  0  0  0
   10.2188    3.5071    0.0000 C   0  0  0  0  0  0  0  0  0  0  0  0
    9.2188    3.4955    0.0000 C   0  0  0  0  0  0  0  0  0  0  0  0
   12.3307   -0.0001    0.0000 C   0  0  0  0  0  0  0  0  0  0  0  0
    6.7337   -0.2310    0.0000 H   0  0  0  0  0  0  0  0  0  0  0  0
    5.2811   -2.7094    0.0000 H   0  0  0  0  0  0  0  0  0  0  0  0
    7.2969   -2.6629    0.0000 H   0  0  0  0  0  0  0  0  0  0  0  0
    7.6880   -1.9670    0.0000 H   0  0  0  0  0  0  0  0  0  0  0  0
    5.7835   -3.0862    0.0000 H   0  0  0  0  0  0  0  0  0  0  0  0
    6.5818   -3.0831    0.0000 H   0  0  0  0  0  0  0  0  0  0  0  0
    5.9847    1.0416    0.0000 H   0  0  0  0  0  0  0  0  0  0  0  0
    5.5862    0.3514    0.0000 H   0  0  0  0  0  0  0  0  0  0  0  0
    4.7681   -0.0171    0.0000 H   0  0  0  0  0  0  0  0  0  0  0  0
    3.9700   -0.0017    0.0000 H   0  0  0  0  0  0  0  0  0  0  0  0
    8.4182   -1.5454    0.0000 H   0  0  0  0  0  0  0  0  0  0  0  0
    9.2164   -1.5546    0.0000 H   0  0  0  0  0  0  0  0  0  0  0  0
    7.4613    1.4340    0.0000 H   0  0  0  0  0  0  0  0  0  0  0  0
    6.6643    1.4340    0.0000 H   0  0  0  0  0  0  0  0  0  0  0  0
    7.2306   -2.2055    0.0000 H   0  0  0  0  0  0  0  0  0  0  0  0
    8.1041   -2.2820    0.0000 H   0  0  0  0  0  0  0  0  0  0  0  0
    8.1805   -1.4085    0.0000 H   0  0  0  0  0  0  0  0  0  0  0  0
    3.4025   -2.7166    0.0000 H   0  0  0  0  0  0  0  0  0  0  0  0
    3.4204   -0.3917    0.0000 H   0  0  0  0  0  0  0  0  0  0  0  0
    5.9145   -0.0526    0.0000 H   0  0  0  0  0  0  0  0  0  0  0  0
    5.2993    0.5721    0.0000 H   0  0  0  0  0  0  0  0  0  0  0  0
    4.6745   -0.0431    0.0000 H   0  0  0  0  0  0  0  0  0  0  0  0
    9.9379   -1.1455    0.0000 H   0  0  0  0  0  0  0  0  0  0  0  0
   10.3397   -0.4557    0.0000 H   0  0  0  0  0  0  0  0  0  0  0  0
    7.6884   -1.6927    0.0000 H   0  0  0  0  0  0  0  0  0  0  0  0
    8.4830   -2.0632    0.0000 H   0  0  0  0  0  0  0  0  0  0  0  0
    8.8535   -1.2685    0.0000 H   0  0  0  0  0  0  0  0  0  0  0  0
    4.3109   -3.8153    0.0000 H   0  0  0  0  0  0  0  0  0  0  0  0
    5.1587   -4.0390    0.0000 H   0  0  0  0  0  0  0  0  0  0  0  0
    5.3824   -3.1912    0.0000 H   0  0  0  0  0  0  0  0  0  0  0  0
    3.3085   -3.1992    0.0000 H   0  0  0  0  0  0  0  0  0  0  0  0
    3.5387   -4.0452    0.0000 H   0  0  0  0  0  0  0  0  0  0  0  0
    4.3848   -3.8150    0.0000 H   0  0  0  0  0  0  0  0  0  0  0  0
    8.5752    2.6571    0.0000 H   0  0  0  0  0  0  0  0  0  0  0  0
    8.1894    1.9582    0.0000 H   0  0  0  0  0  0  0  0  0  0  0  0
   10.8817    0.4314    0.0000 H   0  0  0  0  0  0  0  0  0  0  0  0
   11.2835    1.1212    0.0000 H   0  0  0  0  0  0  0  0  0  0  0  0
   11.2835    1.9940    0.0000 H   0  0  0  0  0  0  0  0  0  0  0  0
   10.8817    2.6838    0.0000 H   0  0  0  0  0  0  0  0  0  0  0  0
    2.0000   -2.2812    0.0000 H   0  0  0  0  0  0  0  0  0  0  0  0
    2.5590    0.1183    0.0000 H   0  0  0  0  0  0  0  0  0  0  0  0
    9.7522    3.8117    0.0000 H   0  0  0  0  0  0  0  0  0  0  0  0
    8.9027    4.0288    0.0000 H   0  0  0  0  0  0  0  0  0  0  0  0
    8.6855    3.1793    0.0000 H   0  0  0  0  0  0  0  0  0  0  0  0
   10.7593    3.2033    0.0000 H   0  0  0  0  0  0  0  0  0  0  0  0
   10.5226    4.0476    0.0000 H   0  0  0  0  0  0  0  0  0  0  0  0
    9.6783    3.8108    0.0000 H   0  0  0  0  0  0  0  0  0  0  0  0
   12.0248   -0.5394    0.0000 H   0  0  0  0  0  0  0  0  0  0  0  0
   12.8700   -0.3060    0.0000 H   0  0  0  0  0  0  0  0  0  0  0  0
   12.6365    0.5392    0.0000 H   0  0  0  0  0  0  0  0  0  0  0  0
  1 19  1  0  0  0  0
  1 75  1  0  0  0  0
  2 20  1  0  0  0  0
  2 76  1  0  0  0  0
  3 32  1  0  0  0  0
  3 35  1  0  0  0  0
  4 32  2  0  0  0  0
  5  6  1  0  0  0  0
  5  8  1  0  0  0  0
  5 10  1  0  0  0  0
  5 18  1  0  0  0  0
  6  7  1  0  0  0  0
  6 13  1  0  0  0  0
  6 36  1  0  0  0  0
  7  9  1  0  0  0  0
  7 15  1  0  0  0  0
  7 21  1  0  0  0  0
  8 14  1  0  0  0  0
  8 16  1  0  0  0  0
  8 25  1  0  0  0  0
  9 11  1  0  0  0  0
  9 12  1  0  0  0  0
  9 37  1  0  0  0  0
 10 11  1  0  0  0  0
 10 38  1  0  0  0  0
 10 39  1  0  0  0  0
 11 40  1  0  0  0  0
 11 41  1  0  0  0  0
 12 19  1  0  0  0  0
 12 26  1  0  0  0  0
 12 27  1  0  0  0  0
 13 17  1  0  0  0  0
 13 42  1  0  0  0  0
 13 43  1  0  0  0  0
 14 17  1  0  0  0  0
 14 23  2  0  0  0  0
 15 20  1  0  0  0  0
 15 44  1  0  0  0  0
 15 45  1  0  0  0  0
 16 24  1  0  0  0  0
 16 46  1  0  0  0  0
 16 47  1  0  0  0  0
 17 48  1  0  0  0  0
 17 49  1  0  0  0  0
 18 50  1  0  0  0  0
 18 51  1  0  0  0  0
 18 52  1  0  0  0  0
 19 20  1  0  0  0  0
 19 53  1  0  0  0  0
 20 54  1  0  0  0  0
 21 55  1  0  0  0  0
 21 56  1  0  0  0  0
 21 57  1  0  0  0  0
 22 23  1  0  0  0  0
 22 24  1  0  0  0  0
 22 29  1  0  0  0  0
 22 32  1  0  0  0  0
 23 28  1  0  0  0  0
 24 58  1  0  0  0  0
 24 59  1  0  0  0  0
 25 60  1  0  0  0  0
 25 61  1  0  0  0  0
 25 62  1  0  0  0  0
 26 66  1  0  0  0  0
 26 67  1  0  0  0  0
 26 68  1  0  0  0  0
 27 63  1  0  0  0  0
 27 64  1  0  0  0  0
 27 65  1  0  0  0  0
 28 30  1  0  0  0  0
 28 69  1  0  0  0  0
 28 70  1  0  0  0  0
 29 31  1  0  0  0  0
 29 71  1  0  0  0  0
 29 72  1  0  0  0  0
 30 31  1  0  0  0  0
 30 33  1  0  0  0  0
 30 34  1  0  0  0  0
 31 73  1  0  0  0  0
 31 74  1  0  0  0  0
 33 80  1  0  0  0  0
 33 81  1  0  0  0  0
 33 82  1  0  0  0  0
 34 77  1  0  0  0  0
 34 78  1  0  0  0  0
 34 79  1  0  0  0  0
 35 83  1  0  0  0  0
 35 84  1  0  0  0  0
 35 85  1  0  0  0  0
M  END
>  <PUBCHEM_COMPOUND_CID>
76025738

>  <PUBCHEM_COMPOUND_CANONICALIZED>
1

>  <PUBCHEM_CACTVS_COMPLEXITY>
948

>  <PUBCHEM_CACTVS_HBOND_ACCEPTOR>
4

>  <PUBCHEM_CACTVS_HBOND_DONOR>
2

>  <PUBCHEM_CACTVS_ROTATABLE_BOND>
2

>  <PUBCHEM_CACTVS_SUBSKEYS>
AAADcfB4OAAAAAAAAAAAAAAAAAAAAAAAAAAwYMGCAAAAAADAAAAAGgAACAAADxSggAICCAAABgCIAgDQCAAAAAAgAAAACAEAAAgBEBIAAAAAQAAEwAAJAAOIyPCPgAAAAAAAAADAAAYAADCAAAAAAAAAAA==

>  <PUBCHEM_IUPAC_OPENEYE_NAME>
methyl 10,11-dihydroxy-2,2,6a,6b,9,9,12a-heptamethyl-1,3,4,5,6,6a,7,8,8a,10,11,12,13,14-tetradecahydropicene-4a-carboxylate

>  <PUBCHEM_IUPAC_CAS_NAME>
10,11-dihydroxy-2,2,6a,6b,9,9,12a-heptamethyl-1,3,4,5,6,6a,7,8,8a,10,11,12,13,14-tetradecahydropicene-4a-carboxylic acid methyl ester

>  <PUBCHEM_IUPAC_NAME>
methyl 10,11-dihydroxy-2,2,6a,6b,9,9,12a-heptamethyl-1,3,4,5,6,6a,7,8,8a,10,11,12,13,14-tetradecahydropicene-4a-carboxylate

>  <PUBCHEM_IUPAC_SYSTEMATIC_NAME>
methyl 2,2,6a,6b,9,9,12a-heptamethyl-10,11-bis(oxidanyl)-1,3,4,5,6,6a,7,8,8a,10,11,12,13,14-tetradecahydropicene-4a-carboxylate

>  <PUBCHEM_IUPAC_TRADITIONAL_NAME>
10,11-dihydroxy-2,2,6a,6b,9,9,12a-heptamethyl-1,3,4,5,6,6a,7,8,8a,10,11,12,13,14-tetradecahydropicene-4a-carboxylic acid methyl ester

>  <PUBCHEM_IUPAC_INCHI>
InChI=1S/C31H50O4/c1-26(2)13-15-31(25(34)35-8)16-14-29(6)19(20(31)17-26)9-10-23-28(5)18-21(32)24(33)27(3,4)22(28)11-12-30(23,29)7/h21-24,32-33H,9-18H2,1-8H3

>  <PUBCHEM_IUPAC_INCHIKEY>
WUGPMNNYJCMJOJ-UHFFFAOYSA-N

>  <PUBCHEM_XLOGP3_AA>
6.6

>  <PUBCHEM_EXACT_MASS>
486.371

>  <PUBCHEM_MOLECULAR_FORMULA>
C31H50O4

>  <PUBCHEM_MOLECULAR_WEIGHT>
486.737

>  <PUBCHEM_OPENEYE_CAN_SMILES>
CC1(CCC2(CCC3(C(=C2C1)CCC4C3(CCC5C4(CC(C(C5(C)C)O)O)C)C)C)C(=O)OC)C

>  <PUBCHEM_OPENEYE_ISO_SMILES>
CC1(CCC2(CCC3(C(=C2C1)CCC4C3(CCC5C4(CC(C(C5(C)C)O)O)C)C)C)C(=O)OC)C

>  <PUBCHEM_CACTVS_TPSA>
66.8

>  <PUBCHEM_MONOISOTOPIC_WEIGHT>
486.371

>  <PUBCHEM_TOTAL_CHARGE>
0

>  <PUBCHEM_HEAVY_ATOM_COUNT>
35

>  <PUBCHEM_ATOM_DEF_STEREO_COUNT>
0

>  <PUBCHEM_ATOM_UDEF_STEREO_COUNT>
8

>  <PUBCHEM_BOND_DEF_STEREO_COUNT>
0

>  <PUBCHEM_BOND_UDEF_STEREO_COUNT>
0

>  <PUBCHEM_ISOTOPIC_ATOM_COUNT>
0

>  <PUBCHEM_COMPONENT_COUNT>
1

>  <PUBCHEM_CACTVS_TAUTO_COUNT>
1

>  <PUBCHEM_COORDINATE_TYPE>
1
5
255

>  <PUBCHEM_BONDANNOTATIONS>
19  1  3
20  2  3
22  32  3
5  18  3
6  13  3
7  21  3
8  25  3
9  11  3

$$$$
