76031895
 OpenBabel06101807152D

 78 82  0  0  1  0  0  0  0  0999 V2000
   12.1391   -3.1809    0.0000 O   0  0  0  0  0  0  0  0  0  0  0  0
   12.0869    0.9097    0.0000 O   0  0  0  0  0  0  0  0  0  0  0  0
    5.6023    2.6301    0.0000 O   0  0  0  0  0  0  0  0  0  0  0  0
    3.9863    0.5352    0.0000 O   0  0  0  0  0  0  0  0  0  0  0  0
    9.4888   -0.5903    0.0000 C   0  0  3  0  0  0  0  0  0  0  0  0
    7.6888    0.4305    0.0000 C   0  0  3  0  0  0  0  0  0  0  0  0
    8.5948    0.9443    0.0000 C   0  0  3  0  0  0  0  0  0  0  0  0
    9.4888    0.4097    0.0000 C   0  0  3  0  0  0  0  0  0  0  0  0
   10.3548   -1.0903    0.0000 C   0  0  3  0  0  0  0  0  0  0  0  0
    6.9265    1.1312    0.0000 C   0  0  3  0  0  0  0  0  0  0  0  0
   11.2208   -0.5903    0.0000 C   0  0  3  0  0  0  0  0  0  0  0  0
    8.5948   -1.1250    0.0000 C   0  0  0  0  0  0  0  0  0  0  0  0
    7.6888   -0.6111    0.0000 C   0  0  0  0  0  0  0  0  0  0  0  0
    8.3847    1.9583    0.0000 C   0  0  0  0  0  0  0  0  0  0  0  0
   10.3388   -2.1318    0.0000 C   0  0  0  0  0  0  0  0  0  0  0  0
   10.3548    0.9097    0.0000 C   0  0  0  0  0  0  0  0  0  0  0  0
   11.2368   -2.6596    0.0000 C   0  0  3  0  0  0  0  0  0  0  0  0
    7.3557    2.0735    0.0000 C   0  0  0  0  0  0  0  0  0  0  0  0
   12.1389   -2.1388    0.0000 C   0  0  3  0  0  0  0  0  0  0  0  0
   12.1308   -1.0972    0.0000 C   0  0  0  0  0  0  0  0  0  0  0  0
   11.2208    0.4097    0.0000 C   0  0  0  0  0  0  0  0  0  0  0  0
    6.8189   -0.0628    0.0000 C   0  0  0  0  0  0  0  0  0  0  0  0
    5.9464    0.9326    0.0000 C   0  0  3  0  0  0  0  0  0  0  0  0
    9.4888   -1.5903    0.0000 C   0  0  0  0  0  0  0  0  0  0  0  0
    5.2843    1.6820    0.0000 C   0  0  3  0  0  0  0  0  0  0  0  0
    5.6284   -0.0155    0.0000 C   0  0  0  0  0  0  0  0  0  0  0  0
    4.3042    1.4833    0.0000 C   0  0  3  0  0  0  0  0  0  0  0  0
    3.6422    2.2328    0.0000 C   0  0  3  0  0  0  0  0  0  0  0  0
    2.6621    2.0341    0.0000 C   0  0  0  0  0  0  0  0  0  0  0  0
    3.9601    3.1809    0.0000 C   0  0  0  0  0  0  0  0  0  0  0  0
    2.0000    2.7835    0.0000 C   0  0  0  0  0  0  0  0  0  0  0  0
    2.3441    1.0860    0.0000 C   0  0  0  0  0  0  0  0  0  0  0  0
   10.0257   -0.2803    0.0000 H   0  0  0  0  0  0  0  0  0  0  0  0
    9.1002    1.3036    0.0000 H   0  0  0  0  0  0  0  0  0  0  0  0
    9.4936    1.0297    0.0000 H   0  0  0  0  0  0  0  0  0  0  0  0
    6.5406    1.6166    0.0000 H   0  0  0  0  0  0  0  0  0  0  0  0
   11.7554   -0.2762    0.0000 H   0  0  0  0  0  0  0  0  0  0  0  0
    8.2012   -1.6040    0.0000 H   0  0  0  0  0  0  0  0  0  0  0  0
    8.9994   -1.5948    0.0000 H   0  0  0  0  0  0  0  0  0  0  0  0
    7.0779   -0.5050    0.0000 H   0  0  0  0  0  0  0  0  0  0  0  0
    7.4797   -1.1948    0.0000 H   0  0  0  0  0  0  0  0  0  0  0  0
    9.0017    2.0196    0.0000 H   0  0  0  0  0  0  0  0  0  0  0  0
    8.3886    2.5782    0.0000 H   0  0  0  0  0  0  0  0  0  0  0  0
    9.7296   -2.0163    0.0000 H   0  0  0  0  0  0  0  0  0  0  0  0
   10.1207   -2.7122    0.0000 H   0  0  0  0  0  0  0  0  0  0  0  0
   10.7533    1.3846    0.0000 H   0  0  0  0  0  0  0  0  0  0  0  0
    9.9563    1.3846    0.0000 H   0  0  0  0  0  0  0  0  0  0  0  0
   10.9247   -3.1953    0.0000 H   0  0  0  0  0  0  0  0  0  0  0  0
    7.4891    2.6790    0.0000 H   0  0  0  0  0  0  0  0  0  0  0  0
    6.7676    2.2698    0.0000 H   0  0  0  0  0  0  0  0  0  0  0  0
   12.7589   -2.1363    0.0000 H   0  0  0  0  0  0  0  0  0  0  0  0
   12.7425   -1.1986    0.0000 H   0  0  0  0  0  0  0  0  0  0  0  0
   12.3354   -0.5119    0.0000 H   0  0  0  0  0  0  0  0  0  0  0  0
    6.5131    0.4765    0.0000 H   0  0  0  0  0  0  0  0  0  0  0  0
    6.2796   -0.3687    0.0000 H   0  0  0  0  0  0  0  0  0  0  0  0
    7.1248   -0.6021    0.0000 H   0  0  0  0  0  0  0  0  0  0  0  0
    6.3569    0.4679    0.0000 H   0  0  0  0  0  0  0  0  0  0  0  0
    9.1788   -1.0534    0.0000 H   0  0  0  0  0  0  0  0  0  0  0  0
    8.9518   -1.9003    0.0000 H   0  0  0  0  0  0  0  0  0  0  0  0
    9.7988   -2.1273    0.0000 H   0  0  0  0  0  0  0  0  0  0  0  0
    4.8738    2.1466    0.0000 H   0  0  0  0  0  0  0  0  0  0  0  0
    5.0406    0.1816    0.0000 H   0  0  0  0  0  0  0  0  0  0  0  0
    5.4313   -0.6033    0.0000 H   0  0  0  0  0  0  0  0  0  0  0  0
    6.2162   -0.2127    0.0000 H   0  0  0  0  0  0  0  0  0  0  0  0
    3.6966    1.3602    0.0000 H   0  0  0  0  0  0  0  0  0  0  0  0
    4.2498    2.3559    0.0000 H   0  0  0  0  0  0  0  0  0  0  0  0
    5.1918    3.0948    0.0000 H   0  0  0  0  0  0  0  0  0  0  0  0
    3.0726    1.5694    0.0000 H   0  0  0  0  0  0  0  0  0  0  0  0
    3.3786    0.4121    0.0000 H   0  0  0  0  0  0  0  0  0  0  0  0
    4.5480    2.9837    0.0000 H   0  0  0  0  0  0  0  0  0  0  0  0
    4.1573    3.7687    0.0000 H   0  0  0  0  0  0  0  0  0  0  0  0
    3.3723    3.3780    0.0000 H   0  0  0  0  0  0  0  0  0  0  0  0
    2.4646    3.1940    0.0000 H   0  0  0  0  0  0  0  0  0  0  0  0
    1.5895    3.2482    0.0000 H   0  0  0  0  0  0  0  0  0  0  0  0
    1.5354    2.3730    0.0000 H   0  0  0  0  0  0  0  0  0  0  0  0
    1.7563    1.2831    0.0000 H   0  0  0  0  0  0  0  0  0  0  0  0
    2.1470    0.4982    0.0000 H   0  0  0  0  0  0  0  0  0  0  0  0
    2.9319    0.8888    0.0000 H   0  0  0  0  0  0  0  0  0  0  0  0
  1 17  1  0  0  0  0
  1 19  1  0  0  0  0
  2 21  2  0  0  0  0
  3 25  1  0  0  0  0
  3 67  1  0  0  0  0
  4 27  1  0  0  0  0
  4 69  1  0  0  0  0
  5  8  1  0  0  0  0
  5  9  1  0  0  0  0
  5 12  1  0  0  0  0
  5 33  1  0  0  0  0
  6  7  1  0  0  0  0
  6 10  1  0  0  0  0
  6 13  1  0  0  0  0
  6 22  1  0  0  0  0
  7  8  1  0  0  0  0
  7 14  1  0  0  0  0
  7 34  1  0  0  0  0
  8 16  1  0  0  0  0
  8 35  1  0  0  0  0
  9 11  1  0  0  0  0
  9 15  1  0  0  0  0
  9 24  1  0  0  0  0
 10 18  1  0  0  0  0
 10 23  1  0  0  0  0
 10 36  1  0  0  0  0
 11 20  1  0  0  0  0
 11 21  1  0  0  0  0
 11 37  1  0  0  0  0
 12 13  1  0  0  0  0
 12 38  1  0  0  0  0
 12 39  1  0  0  0  0
 13 40  1  0  0  0  0
 13 41  1  0  0  0  0
 14 18  1  0  0  0  0
 14 42  1  0  0  0  0
 14 43  1  0  0  0  0
 15 17  1  0  0  0  0
 15 44  1  0  0  0  0
 15 45  1  0  0  0  0
 16 21  1  0  0  0  0
 16 46  1  0  0  0  0
 16 47  1  0  0  0  0
 17 19  1  0  0  0  0
 17 48  1  0  0  0  0
 18 49  1  0  0  0  0
 18 50  1  0  0  0  0
 19 20  1  0  0  0  0
 19 51  1  0  0  0  0
 20 52  1  0  0  0  0
 20 53  1  0  0  0  0
 22 54  1  0  0  0  0
 22 55  1  0  0  0  0
 22 56  1  0  0  0  0
 23 25  1  0  0  0  0
 23 26  1  0  0  0  0
 23 57  1  0  0  0  0
 24 58  1  0  0  0  0
 24 59  1  0  0  0  0
 24 60  1  0  0  0  0
 25 27  1  0  0  0  0
 25 61  1  0  0  0  0
 26 62  1  0  0  0  0
 26 63  1  0  0  0  0
 26 64  1  0  0  0  0
 27 28  1  0  0  0  0
 27 65  1  0  0  0  0
 28 29  1  0  0  0  0
 28 30  1  0  0  0  0
 28 66  1  0  0  0  0
 29 31  1  0  0  0  0
 29 32  1  0  0  0  0
 29 68  1  0  0  0  0
 30 70  1  0  0  0  0
 30 71  1  0  0  0  0
 30 72  1  0  0  0  0
 31 73  1  0  0  0  0
 31 74  1  0  0  0  0
 31 75  1  0  0  0  0
 32 76  1  0  0  0  0
 32 77  1  0  0  0  0
 32 78  1  0  0  0  0
M  END
>  <PUBCHEM_COMPOUND_CID>
76031895

>  <PUBCHEM_COMPOUND_CANONICALIZED>
1

>  <PUBCHEM_CACTVS_COMPLEXITY>
750

>  <PUBCHEM_CACTVS_HBOND_ACCEPTOR>
4

>  <PUBCHEM_CACTVS_HBOND_DONOR>
2

>  <PUBCHEM_CACTVS_ROTATABLE_BOND>
5

>  <PUBCHEM_CACTVS_SUBSKEYS>
AAADcfB4OAAAAAAAAAAAAAAAEgAAAYAAAAAwYMAABIAAAGDAAAAAGgAACAAADxSggAICAAAABgAIAIAQAAAAAAAAAAAAAAEAAAABEBIAAAACQAAEAAABAAGKzPDPgAAAAAAAAADAAAYAACAAAQAACAAAAA==

>  <PUBCHEM_IUPAC_INCHI>
InChI=1S/C28H46O4/c1-14(2)15(3)25(30)26(31)16(4)18-7-8-19-17-11-22(29)21-12-23-24(32-23)13-28(21,6)20(17)9-10-27(18,19)5/h14-21,23-26,30-31H,7-13H2,1-6H3

>  <PUBCHEM_IUPAC_INCHIKEY>
WDGGOKUICSKRHH-UHFFFAOYSA-N

>  <PUBCHEM_XLOGP3_AA>
5.7

>  <PUBCHEM_EXACT_MASS>
446.34

>  <PUBCHEM_MOLECULAR_FORMULA>
C28H46O4

>  <PUBCHEM_MOLECULAR_WEIGHT>
446.672

>  <PUBCHEM_OPENEYE_CAN_SMILES>
CC(C)C(C)C(C(C(C)C1CCC2C1(CCC3C2CC(=O)C4C3(CC5C(C4)O5)C)C)O)O

>  <PUBCHEM_OPENEYE_ISO_SMILES>
CC(C)C(C)C(C(C(C)C1CCC2C1(CCC3C2CC(=O)C4C3(CC5C(C4)O5)C)C)O)O

>  <PUBCHEM_CACTVS_TPSA>
70.1

>  <PUBCHEM_MONOISOTOPIC_WEIGHT>
446.34

>  <PUBCHEM_TOTAL_CHARGE>
0

>  <PUBCHEM_HEAVY_ATOM_COUNT>
32

>  <PUBCHEM_ATOM_DEF_STEREO_COUNT>
0

>  <PUBCHEM_ATOM_UDEF_STEREO_COUNT>
13

>  <PUBCHEM_BOND_DEF_STEREO_COUNT>
0

>  <PUBCHEM_BOND_UDEF_STEREO_COUNT>
0

>  <PUBCHEM_ISOTOPIC_ATOM_COUNT>
0

>  <PUBCHEM_COMPONENT_COUNT>
1

>  <PUBCHEM_CACTVS_TAUTO_COUNT>
3

>  <PUBCHEM_COORDINATE_TYPE>
1
5
255

>  <PUBCHEM_BONDANNOTATIONS>
10  18  3
11  21  3
17  15  3
19  20  3
23  26  3
28  30  3
25  3  3
27  4  3
5  12  3
6  22  3
7  14  3
8  16  3
9  24  3

$$$$
