76516797
 OpenBabel06101807152D

117124  0  0  1  0  0  0  0  0999 V2000
    8.6192    5.5403    0.0000 O   0  0  0  0  0  0  0  0  0  0  0  0
    7.1962   -2.7038    0.0000 O   0  0  0  0  0  0  0  0  0  0  0  0
    5.4641   -2.7038    0.0000 O   0  0  0  0  0  0  0  0  0  0  0  0
    7.1962   -4.7038    0.0000 O   0  0  0  0  0  0  0  0  0  0  0  0
    5.4641   -5.7038    0.0000 O   0  0  0  0  0  0  0  0  0  0  0  0
    3.7320   -4.7038    0.0000 O   0  0  0  0  0  0  0  0  0  0  0  0
    3.7320   -1.7038    0.0000 O   0  0  0  0  0  0  0  0  0  0  0  0
    4.5981   -6.2038    0.0000 O   0  0  0  0  0  0  0  0  0  0  0  0
    2.0000   -5.7038    0.0000 O   0  0  0  0  0  0  0  0  0  0  0  0
    2.0000   -7.7038    0.0000 O   0  0  0  0  0  0  0  0  0  0  0  0
    3.7320   -8.7038    0.0000 O   0  0  0  0  0  0  0  0  0  0  0  0
    6.3301   -7.2038    0.0000 O   0  0  0  0  0  0  0  0  0  0  0  0
    8.5688    6.6213    0.0000 N   0  0  0  0  0  0  0  0  0  0  0  0
    7.2254    3.4931    0.0000 C   0  0  3  0  0  0  0  0  0  0  0  0
    8.0934    2.9965    0.0000 C   0  0  3  0  0  0  0  0  0  0  0  0
    7.4309    4.4657    0.0000 C   0  0  3  0  0  0  0  0  0  0  0  0
    8.0972    1.9965    0.0000 C   0  0  3  0  0  0  0  0  0  0  0  0
    7.2331    1.4931    0.0000 C   0  0  3  0  0  0  0  0  0  0  0  0
    8.4192    4.5726    0.0000 C   0  0  3  0  0  0  0  0  0  0  0  0
    7.2211    0.4516    0.0000 C   0  0  3  0  0  0  0  0  0  0  0  0
    8.8278    3.6664    0.0000 C   0  0  0  0  0  0  0  0  0  0  0  0
    6.3613    2.9898    0.0000 C   0  0  0  0  0  0  0  0  0  0  0  0
    7.0286    5.3683    0.0000 C   0  0  3  0  0  0  0  0  0  0  0  0
    6.3652    1.9898    0.0000 C   0  0  0  0  0  0  0  0  0  0  0  0
    8.1211   -0.0727    0.0000 C   0  0  3  0  0  0  0  0  0  0  0  0
    9.0092    1.4931    0.0000 C   0  0  0  0  0  0  0  0  0  0  0  0
    7.7615    6.0311    0.0000 C   0  0  3  0  0  0  0  0  0  0  0  0
    9.0212    0.4516    0.0000 C   0  0  0  0  0  0  0  0  0  0  0  0
    6.3575    3.9898    0.0000 C   0  0  0  0  0  0  0  0  0  0  0  0
    6.2712   -0.0727    0.0000 C   0  0  0  0  0  0  0  0  0  0  0  0
    8.1337   -1.1576    0.0000 C   0  0  0  0  0  0  0  0  0  0  0  0
    6.3570    0.9549    0.0000 C   0  0  0  0  0  0  0  0  0  0  0  0
    6.8468    6.4351    0.0000 C   0  0  0  0  0  0  0  0  0  0  0  0
    6.0502    5.5750    0.0000 C   0  0  0  0  0  0  0  0  0  0  0  0
    6.2586   -1.1576    0.0000 C   0  0  0  0  0  0  0  0  0  0  0  0
    7.1962   -1.7038    0.0000 C   0  0  3  0  0  0  0  0  0  0  0  0
    6.7393    7.4293    0.0000 C   0  0  0  0  0  0  0  0  0  0  0  0
    8.4613    7.6155    0.0000 C   0  0  0  0  0  0  0  0  0  0  0  0
    7.5465    8.0195    0.0000 C   0  0  3  0  0  0  0  0  0  0  0  0
    7.4390    9.0138    0.0000 C   0  0  0  0  0  0  0  0  0  0  0  0
    6.3301   -3.2038    0.0000 C   0  0  3  0  0  0  0  0  0  0  0  0
    6.3301   -4.2038    0.0000 C   0  0  3  0  0  0  0  0  0  0  0  0
    5.4641   -4.7038    0.0000 C   0  0  3  0  0  0  0  0  0  0  0  0
    4.5981   -3.2038    0.0000 C   0  0  3  0  0  0  0  0  0  0  0  0
    4.5981   -4.2038    0.0000 C   0  0  3  0  0  0  0  0  0  0  0  0
    3.7320   -2.7038    0.0000 C   0  0  0  0  0  0  0  0  0  0  0  0
    3.7320   -5.7038    0.0000 C   0  0  3  0  0  0  0  0  0  0  0  0
    2.8660   -6.2038    0.0000 C   0  0  3  0  0  0  0  0  0  0  0  0
    2.8660   -7.2038    0.0000 C   0  0  3  0  0  0  0  0  0  0  0  0
    4.5981   -7.2038    0.0000 C   0  0  3  0  0  0  0  0  0  0  0  0
    3.7320   -7.7038    0.0000 C   0  0  3  0  0  0  0  0  0  0  0  0
    5.4641   -7.7038    0.0000 C   0  0  0  0  0  0  0  0  0  0  0  0
    8.6610    2.7472    0.0000 H   0  0  0  0  0  0  0  0  0  0  0  0
    6.8143    4.4004    0.0000 H   0  0  0  0  0  0  0  0  0  0  0  0
    8.6305    2.3127    0.0000 H   0  0  0  0  0  0  0  0  0  0  0  0
    7.7689    1.1811    0.0000 H   0  0  0  0  0  0  0  0  0  0  0  0
    9.0355    4.6406    0.0000 H   0  0  0  0  0  0  0  0  0  0  0  0
    9.1952    3.1670    0.0000 H   0  0  0  0  0  0  0  0  0  0  0  0
    9.3631    3.9792    0.0000 H   0  0  0  0  0  0  0  0  0  0  0  0
    6.1470    3.5716    0.0000 H   0  0  0  0  0  0  0  0  0  0  0  0
    5.7512    2.8798    0.0000 H   0  0  0  0  0  0  0  0  0  0  0  0
    6.6388    4.8862    0.0000 H   0  0  0  0  0  0  0  0  0  0  0  0
    5.7542    2.0951    0.0000 H   0  0  0  0  0  0  0  0  0  0  0  0
    6.1554    1.4064    0.0000 H   0  0  0  0  0  0  0  0  0  0  0  0
    8.6605   -0.3786    0.0000 H   0  0  0  0  0  0  0  0  0  0  0  0
    9.6212    1.3941    0.0000 H   0  0  0  0  0  0  0  0  0  0  0  0
    9.2114    2.0792    0.0000 H   0  0  0  0  0  0  0  0  0  0  0  0
    9.2370   -0.1297    0.0000 H   0  0  0  0  0  0  0  0  0  0  0  0
    9.6308    0.5647    0.0000 H   0  0  0  0  0  0  0  0  0  0  0  0
    6.6654    4.5279    0.0000 H   0  0  0  0  0  0  0  0  0  0  0  0
    5.8193    4.2977    0.0000 H   0  0  0  0  0  0  0  0  0  0  0  0
    6.0495    3.4517    0.0000 H   0  0  0  0  0  0  0  0  0  0  0  0
    6.0689    0.5134    0.0000 H   0  0  0  0  0  0  0  0  0  0  0  0
    5.6591   -0.1717    0.0000 H   0  0  0  0  0  0  0  0  0  0  0  0
    8.3495   -1.7389    0.0000 H   0  0  0  0  0  0  0  0  0  0  0  0
    8.7433   -1.0445    0.0000 H   0  0  0  0  0  0  0  0  0  0  0  0
    6.6690    1.4906    0.0000 H   0  0  0  0  0  0  0  0  0  0  0  0
    5.8212    1.2670    0.0000 H   0  0  0  0  0  0  0  0  0  0  0  0
    6.0449    0.4192    0.0000 H   0  0  0  0  0  0  0  0  0  0  0  0
    6.2282    6.4765    0.0000 H   0  0  0  0  0  0  0  0  0  0  0  0
    6.6986    5.8331    0.0000 H   0  0  0  0  0  0  0  0  0  0  0  0
    6.1783    6.1816    0.0000 H   0  0  0  0  0  0  0  0  0  0  0  0
    5.4436    5.7032    0.0000 H   0  0  0  0  0  0  0  0  0  0  0  0
    5.9220    4.9684    0.0000 H   0  0  0  0  0  0  0  0  0  0  0  0
    5.6490   -1.0445    0.0000 H   0  0  0  0  0  0  0  0  0  0  0  0
    6.0428   -1.7389    0.0000 H   0  0  0  0  0  0  0  0  0  0  0  0
    7.7337   -2.0127    0.0000 H   0  0  0  0  0  0  0  0  0  0  0  0
    9.1360    6.3708    0.0000 H   0  0  0  0  0  0  0  0  0  0  0  0
    6.4658    7.9858    0.0000 H   0  0  0  0  0  0  0  0  0  0  0  0
    6.1438    7.2567    0.0000 H   0  0  0  0  0  0  0  0  0  0  0  0
    9.0799    7.5741    0.0000 H   0  0  0  0  0  0  0  0  0  0  0  0
    8.6095    8.2176    0.0000 H   0  0  0  0  0  0  0  0  0  0  0  0
    8.0470    8.3855    0.0000 H   0  0  0  0  0  0  0  0  0  0  0  0
    8.0554    9.0804    0.0000 H   0  0  0  0  0  0  0  0  0  0  0  0
    7.3724    9.6302    0.0000 H   0  0  0  0  0  0  0  0  0  0  0  0
    6.8226    8.9471    0.0000 H   0  0  0  0  0  0  0  0  0  0  0  0
    6.3301   -2.5838    0.0000 H   0  0  0  0  0  0  0  0  0  0  0  0
    6.3301   -4.8238    0.0000 H   0  0  0  0  0  0  0  0  0  0  0  0
    4.9272   -5.0138    0.0000 H   0  0  0  0  0  0  0  0  0  0  0  0
    4.5981   -2.5838    0.0000 H   0  0  0  0  0  0  0  0  0  0  0  0
    4.0611   -3.8938    0.0000 H   0  0  0  0  0  0  0  0  0  0  0  0
    7.7331   -4.3938    0.0000 H   0  0  0  0  0  0  0  0  0  0  0  0
    3.1215   -2.5961    0.0000 H   0  0  0  0  0  0  0  0  0  0  0  0
    3.5200   -3.2864    0.0000 H   0  0  0  0  0  0  0  0  0  0  0  0
    6.0010   -6.0138    0.0000 H   0  0  0  0  0  0  0  0  0  0  0  0
    3.1951   -5.3938    0.0000 H   0  0  0  0  0  0  0  0  0  0  0  0
    3.1951   -1.3938    0.0000 H   0  0  0  0  0  0  0  0  0  0  0  0
    3.4030   -6.5138    0.0000 H   0  0  0  0  0  0  0  0  0  0  0  0
    2.8660   -7.8238    0.0000 H   0  0  0  0  0  0  0  0  0  0  0  0
    5.1350   -6.8938    0.0000 H   0  0  0  0  0  0  0  0  0  0  0  0
    4.2690   -8.0138    0.0000 H   0  0  0  0  0  0  0  0  0  0  0  0
    2.0000   -5.0838    0.0000 H   0  0  0  0  0  0  0  0  0  0  0  0
    5.0656   -8.1787    0.0000 H   0  0  0  0  0  0  0  0  0  0  0  0
    5.8626   -8.1787    0.0000 H   0  0  0  0  0  0  0  0  0  0  0  0
    2.0000   -8.3238    0.0000 H   0  0  0  0  0  0  0  0  0  0  0  0
    4.2690   -9.0138    0.0000 H   0  0  0  0  0  0  0  0  0  0  0  0
    6.8671   -7.5138    0.0000 H   0  0  0  0  0  0  0  0  0  0  0  0
  1 19  1  0  0  0  0
  1 27  1  0  0  0  0
  2 36  1  0  0  0  0
  2 41  1  0  0  0  0
  3 41  1  0  0  0  0
  3 44  1  0  0  0  0
  4 42  1  0  0  0  0
  4102  1  0  0  0  0
  5 43  1  0  0  0  0
  5105  1  0  0  0  0
  6 45  1  0  0  0  0
  6 47  1  0  0  0  0
  7 46  1  0  0  0  0
  7107  1  0  0  0  0
  8 47  1  0  0  0  0
  8 50  1  0  0  0  0
  9 48  1  0  0  0  0
  9112  1  0  0  0  0
 10 49  1  0  0  0  0
 10115  1  0  0  0  0
 11 51  1  0  0  0  0
 11116  1  0  0  0  0
 12 52  1  0  0  0  0
 12117  1  0  0  0  0
 13 27  1  0  0  0  0
 13 38  1  0  0  0  0
 13 88  1  0  0  0  0
 14 15  1  0  0  0  0
 14 16  1  0  0  0  0
 14 22  1  0  0  0  0
 14 29  1  0  0  0  0
 15 17  1  0  0  0  0
 15 21  1  0  0  0  0
 15 53  1  0  0  0  0
 16 19  1  0  0  0  0
 16 23  1  0  0  0  0
 16 54  1  0  0  0  0
 17 18  1  0  0  0  0
 17 26  1  0  0  0  0
 17 55  1  0  0  0  0
 18 20  1  0  0  0  0
 18 24  1  0  0  0  0
 18 56  1  0  0  0  0
 19 21  1  0  0  0  0
 19 57  1  0  0  0  0
 20 25  1  0  0  0  0
 20 30  1  0  0  0  0
 20 32  1  0  0  0  0
 21 58  1  0  0  0  0
 21 59  1  0  0  0  0
 22 24  1  0  0  0  0
 22 60  1  0  0  0  0
 22 61  1  0  0  0  0
 23 27  1  0  0  0  0
 23 34  1  0  0  0  0
 23 62  1  0  0  0  0
 24 63  1  0  0  0  0
 24 64  1  0  0  0  0
 25 28  1  0  0  0  0
 25 31  1  0  0  0  0
 25 65  1  0  0  0  0
 26 28  1  0  0  0  0
 26 66  1  0  0  0  0
 26 67  1  0  0  0  0
 27 33  1  0  0  0  0
 28 68  1  0  0  0  0
 28 69  1  0  0  0  0
 29 70  1  0  0  0  0
 29 71  1  0  0  0  0
 29 72  1  0  0  0  0
 30 35  1  0  0  0  0
 30 73  1  0  0  0  0
 30 74  1  0  0  0  0
 31 36  1  0  0  0  0
 31 75  1  0  0  0  0
 31 76  1  0  0  0  0
 32 77  1  0  0  0  0
 32 78  1  0  0  0  0
 32 79  1  0  0  0  0
 33 37  1  0  0  0  0
 33 80  1  0  0  0  0
 33 81  1  0  0  0  0
 34 82  1  0  0  0  0
 34 83  1  0  0  0  0
 34 84  1  0  0  0  0
 35 36  1  0  0  0  0
 35 85  1  0  0  0  0
 35 86  1  0  0  0  0
 36 87  1  0  0  0  0
 37 39  1  0  0  0  0
 37 89  1  0  0  0  0
 37 90  1  0  0  0  0
 38 39  1  0  0  0  0
 38 91  1  0  0  0  0
 38 92  1  0  0  0  0
 39 40  1  0  0  0  0
 39 93  1  0  0  0  0
 40 94  1  0  0  0  0
 40 95  1  0  0  0  0
 40 96  1  0  0  0  0
 41 42  1  0  0  0  0
 41 97  1  0  0  0  0
 42 43  1  0  0  0  0
 42 98  1  0  0  0  0
 43 45  1  0  0  0  0
 43 99  1  0  0  0  0
 44 45  1  0  0  0  0
 44 46  1  0  0  0  0
 44100  1  0  0  0  0
 45101  1  0  0  0  0
 46103  1  0  0  0  0
 46104  1  0  0  0  0
 47 48  1  0  0  0  0
 47106  1  0  0  0  0
 48 49  1  0  0  0  0
 48108  1  0  0  0  0
 49 51  1  0  0  0  0
 49109  1  0  0  0  0
 50 51  1  0  0  0  0
 50 52  1  0  0  0  0
 50110  1  0  0  0  0
 51111  1  0  0  0  0
 52113  1  0  0  0  0
 52114  1  0  0  0  0
M  END
>  <PUBCHEM_COMPOUND_CID>
76516797

>  <PUBCHEM_COMPOUND_CANONICALIZED>
1

>  <PUBCHEM_CACTVS_COMPLEXITY>
1280

>  <PUBCHEM_CACTVS_HBOND_ACCEPTOR>
13

>  <PUBCHEM_CACTVS_HBOND_DONOR>
8

>  <PUBCHEM_CACTVS_ROTATABLE_BOND>
6

>  <PUBCHEM_CACTVS_SUBSKEYS>
AAADcfB+PAAAAAAAAAAAAAAAAAAAAaIAAAA8aNECAAASAGDAAAAAHgAQCAAADxzxgAcCCALABgAAAAAAAAAAAAAAAAAAAIAIAAEREAIAgAAuQAAFEACHAAHw8PwPgAAAAAAAAADAAAYAACAAAYAADAAAAA==

>  <PUBCHEM_IUPAC_INCHI>
InChI=1S/C39H65NO12/c1-18-7-12-39(40-15-18)19(2)28-25(52-39)14-24-22-6-5-20-13-21(8-10-37(20,3)23(22)9-11-38(24,28)4)48-35-33(47)31(45)34(27(17-42)50-35)51-36-32(46)30(44)29(43)26(16-41)49-36/h18-36,40-47H,5-17H2,1-4H3

>  <PUBCHEM_IUPAC_INCHIKEY>
KNFKROLCBJOHLX-UHFFFAOYSA-N

>  <PUBCHEM_XLOGP3_AA>
2.5

>  <PUBCHEM_EXACT_MASS>
739.451

>  <PUBCHEM_MOLECULAR_FORMULA>
C39H65NO12

>  <PUBCHEM_MOLECULAR_WEIGHT>
739.944

>  <PUBCHEM_OPENEYE_CAN_SMILES>
CC1CCC2(C(C3C(O2)CC4C3(CCC5C4CCC6C5(CCC(C6)OC7C(C(C(C(O7)CO)OC8C(C(C(C(O8)CO)O)O)O)O)O)C)C)C)NC1

>  <PUBCHEM_OPENEYE_ISO_SMILES>
CC1CCC2(C(C3C(O2)CC4C3(CCC5C4CCC6C5(CCC(C6)OC7C(C(C(C(O7)CO)OC8C(C(C(C(O8)CO)O)O)O)O)O)C)C)C)NC1

>  <PUBCHEM_CACTVS_TPSA>
200

>  <PUBCHEM_MONOISOTOPIC_WEIGHT>
739.451

>  <PUBCHEM_TOTAL_CHARGE>
0

>  <PUBCHEM_HEAVY_ATOM_COUNT>
52

>  <PUBCHEM_ATOM_DEF_STEREO_COUNT>
0

>  <PUBCHEM_ATOM_UDEF_STEREO_COUNT>
22

>  <PUBCHEM_BOND_DEF_STEREO_COUNT>
0

>  <PUBCHEM_BOND_UDEF_STEREO_COUNT>
0

>  <PUBCHEM_ISOTOPIC_ATOM_COUNT>
0

>  <PUBCHEM_COMPONENT_COUNT>
1

>  <PUBCHEM_CACTVS_TAUTO_COUNT>
1

>  <PUBCHEM_COORDINATE_TYPE>
1
5
255

>  <PUBCHEM_BONDANNOTATIONS>
49  10  3
51  11  3
14  29  3
15  21  3
16  23  3
17  26  3
18  24  3
19  21  3
36  2  3
41  2  3
20  32  3
23  34  3
25  28  3
27  33  3
39  40  3
42  4  3
44  46  3
43  5  3
50  52  3
45  6  3
47  6  3
48  9  3

$$$$
