76551346
 OpenBabel06101807152D

 30 30  0  0  1  0  0  0  0  0999 V2000
    8.1654   -1.0120    0.0000 S   0  5  0  0  0  0  0  0  0  0  0  0
    3.3669    1.3044    0.0000 O   0  0  0  0  0  0  0  0  0  0  0  0
    5.0611    0.9442    0.0000 O   0  0  0  0  0  0  0  0  0  0  0  0
    2.9511   -0.6519    0.0000 N   0  3  0  0  0  0  0  0  0  0  0  0
    6.4053   -1.2908    0.0000 N   0  0  0  0  0  0  0  0  0  0  0  0
    6.9053    0.2480    0.0000 N   0  0  0  0  0  0  0  0  0  0  0  0
    3.9021   -0.3429    0.0000 C   0  0  3  0  0  0  0  0  0  0  0  0
    4.6453   -1.0120    0.0000 C   0  0  0  0  0  0  0  0  0  0  0  0
    2.0000   -0.9609    0.0000 C   0  0  0  0  0  0  0  0  0  0  0  0
    2.6420    0.2991    0.0000 C   0  0  0  0  0  0  0  0  0  0  0  0
    3.2601   -1.6030    0.0000 C   0  0  0  0  0  0  0  0  0  0  0  0
    4.1100    0.6352    0.0000 C   0  0  0  0  0  0  0  0  0  0  0  0
    5.5963   -0.7030    0.0000 C   0  0  0  0  0  0  0  0  0  0  0  0
    5.9053    0.2480    0.0000 C   0  0  0  0  0  0  0  0  0  0  0  0
    7.2144   -0.7030    0.0000 C   0  0  0  0  0  0  0  0  0  0  0  0
    3.4414    0.0719    0.0000 H   0  0  0  0  0  0  0  0  0  0  0  0
    4.1567   -1.3938    0.0000 H   0  0  0  0  0  0  0  0  0  0  0  0
    4.9363   -1.5595    0.0000 H   0  0  0  0  0  0  0  0  0  0  0  0
    1.8084   -0.3713    0.0000 H   0  0  0  0  0  0  0  0  0  0  0  0
    1.4103   -1.1525    0.0000 H   0  0  0  0  0  0  0  0  0  0  0  0
    3.2317    0.4907    0.0000 H   0  0  0  0  0  0  0  0  0  0  0  0
    2.4504    0.8888    0.0000 H   0  0  0  0  0  0  0  0  0  0  0  0
    2.0524    0.1075    0.0000 H   0  0  0  0  0  0  0  0  0  0  0  0
    2.6704   -1.7946    0.0000 H   0  0  0  0  0  0  0  0  0  0  0  0
    3.4517   -2.1926    0.0000 H   0  0  0  0  0  0  0  0  0  0  0  0
    3.8497   -1.4114    0.0000 H   0  0  0  0  0  0  0  0  0  0  0  0
    2.1916   -1.5506    0.0000 H   0  0  0  0  0  0  0  0  0  0  0  0
    6.4053   -1.9108    0.0000 H   0  0  0  0  0  0  0  0  0  0  0  0
    5.5409    0.7496    0.0000 H   0  0  0  0  0  0  0  0  0  0  0  0
    3.4958    1.9108    0.0000 H   0  0  0  0  0  0  0  0  0  0  0  0
  1 15  1  0  0  0  0
  2 12  1  0  0  0  0
  2 30  1  0  0  0  0
  3 12  2  0  0  0  0
  4  7  1  0  0  0  0
  4  9  1  0  0  0  0
  4 10  1  0  0  0  0
  4 11  1  0  0  0  0
  5 13  1  0  0  0  0
  5 15  1  0  0  0  0
  5 28  1  0  0  0  0
  6 14  1  0  0  0  0
  6 15  2  0  0  0  0
  7  8  1  0  0  0  0
  7 12  1  0  0  0  0
  7 16  1  0  0  0  0
  8 13  1  0  0  0  0
  8 17  1  0  0  0  0
  8 18  1  0  0  0  0
  9 19  1  0  0  0  0
  9 20  1  0  0  0  0
  9 27  1  0  0  0  0
 10 21  1  0  0  0  0
 10 22  1  0  0  0  0
 10 23  1  0  0  0  0
 11 24  1  0  0  0  0
 11 25  1  0  0  0  0
 11 26  1  0  0  0  0
 13 14  2  0  0  0  0
 14 29  1  0  0  0  0
M  CHG  2   1  -1   4   1
M  END
>  <PUBCHEM_COMPOUND_CID>
76551346

>  <PUBCHEM_COMPOUND_CANONICALIZED>
1

>  <PUBCHEM_CACTVS_COMPLEXITY>
242

>  <PUBCHEM_CACTVS_HBOND_ACCEPTOR>
4

>  <PUBCHEM_CACTVS_HBOND_DONOR>
2

>  <PUBCHEM_CACTVS_ROTATABLE_BOND>
4

>  <PUBCHEM_CACTVS_SUBSKEYS>
AAADccBzMABAAAAAAAAAAAAAAAAAAWAAAAAAAAAAAAAAAAABgAAAHgQQCAAACCjBlgQvmBfJkgCoART3bAAA0i2xEqABUQG4cAiCaBJA2SGUQAAMkAJQQCC8EQIAAAAAAAAAAAAAAAAAAAAAAAAAAAAAAA==

>  <PUBCHEM_IUPAC_OPENEYE_NAME>
5-[2-carboxy-2-(trimethylammonio)ethyl]-1H-imidazole-2-thiolate

>  <PUBCHEM_IUPAC_CAS_NAME>
5-[2-carboxy-2-(trimethylammonio)ethyl]-1H-imidazole-2-thiolate

>  <PUBCHEM_IUPAC_NAME>
5-[2-carboxy-2-(trimethylazaniumyl)ethyl]-1H-imidazole-2-thiolate

>  <PUBCHEM_IUPAC_SYSTEMATIC_NAME>
5-[3-oxidanyl-3-oxidanylidene-2-(trimethylazaniumyl)propyl]-1H-imidazole-2-thiolate

>  <PUBCHEM_IUPAC_TRADITIONAL_NAME>
5-[2-carboxy-2-(trimethylammonio)ethyl]-1H-imidazole-2-thiolate

>  <PUBCHEM_IUPAC_INCHI>
InChI=1S/C9H15N3O2S/c1-12(2,3)7(8(13)14)4-6-5-10-9(15)11-6/h5,7H,4H2,1-3H3,(H2-,10,11,13,14,15)

>  <PUBCHEM_IUPAC_INCHIKEY>
SSISHJJTAXXQAX-UHFFFAOYSA-N

>  <PUBCHEM_XLOGP3_AA>
0.5

>  <PUBCHEM_EXACT_MASS>
229.088

>  <PUBCHEM_MOLECULAR_FORMULA>
C9H15N3O2S

>  <PUBCHEM_MOLECULAR_WEIGHT>
229.298

>  <PUBCHEM_OPENEYE_CAN_SMILES>
C[N+](C)(C)C(CC1=CN=C(N1)[S-])C(=O)O

>  <PUBCHEM_OPENEYE_ISO_SMILES>
C[N+](C)(C)C(CC1=CN=C(N1)[S-])C(=O)O

>  <PUBCHEM_CACTVS_TPSA>
67

>  <PUBCHEM_MONOISOTOPIC_WEIGHT>
229.088

>  <PUBCHEM_TOTAL_CHARGE>
0

>  <PUBCHEM_HEAVY_ATOM_COUNT>
15

>  <PUBCHEM_ATOM_DEF_STEREO_COUNT>
0

>  <PUBCHEM_ATOM_UDEF_STEREO_COUNT>
1

>  <PUBCHEM_BOND_DEF_STEREO_COUNT>
0

>  <PUBCHEM_BOND_UDEF_STEREO_COUNT>
0

>  <PUBCHEM_ISOTOPIC_ATOM_COUNT>
0

>  <PUBCHEM_COMPONENT_COUNT>
1

>  <PUBCHEM_CACTVS_TAUTO_COUNT>
2

>  <PUBCHEM_COORDINATE_TYPE>
1
5
255

>  <PUBCHEM_BONDANNOTATIONS>
13  14  8
5  13  8
5  15  8
6  14  8
6  15  8
7  8  3

$$$$
