77195052
 OpenBabel06101807152D

 44 46  0  0  1  0  0  0  0  0999 V2000
    5.1350   -1.1176    0.0000 O   0  0  0  0  0  0  0  0  0  0  0  0
    6.8671   -1.1176    0.0000 O   0  0  0  0  0  0  0  0  0  0  0  0
    5.1350   -4.1175    0.0000 O   0  0  0  0  0  0  0  0  0  0  0  0
    3.4030   -3.1176    0.0000 O   0  0  0  0  0  0  0  0  0  0  0  0
    6.8671   -3.1176    0.0000 O   0  0  0  0  0  0  0  0  0  0  0  0
    2.5369   -1.6176    0.0000 O   0  0  0  0  0  0  0  0  0  0  0  0
    7.7331    0.3825    0.0000 O   0  0  0  0  0  0  0  0  0  0  0  0
    5.1350   -0.1175    0.0000 O   0  0  0  0  0  0  0  0  0  0  0  0
    9.5191    3.4276    0.0000 O   0  0  0  0  0  0  0  0  0  0  0  0
    6.0010    1.3824    0.0000 N   0  0  0  0  0  0  0  0  0  0  0  0
    5.1350   -3.1176    0.0000 C   0  0  3  0  0  0  0  0  0  0  0  0
    4.2690   -2.6176    0.0000 C   0  0  3  0  0  0  0  0  0  0  0  0
    6.0010   -2.6176    0.0000 C   0  0  3  0  0  0  0  0  0  0  0  0
    4.2690   -1.6176    0.0000 C   0  0  3  0  0  0  0  0  0  0  0  0
    6.0010   -1.6176    0.0000 C   0  0  3  0  0  0  0  0  0  0  0  0
    3.4030   -1.1176    0.0000 C   0  0  0  0  0  0  0  0  0  0  0  0
    6.8671   -0.1175    0.0000 C   0  0  3  0  0  0  0  0  0  0  0  0
    6.0010    0.3825    0.0000 C   0  0  0  0  0  0  0  0  0  0  0  0
    7.7331    1.3824    0.0000 C   0  0  0  0  0  0  0  0  0  0  0  0
    6.8671    1.8824    0.0000 C   0  0  0  0  0  0  0  0  0  0  0  0
    8.6431    1.8893    0.0000 C   0  0  0  0  0  0  0  0  0  0  0  0
    6.8510    2.9240    0.0000 C   0  0  0  0  0  0  0  0  0  0  0  0
    8.6511    2.9309    0.0000 C   0  0  0  0  0  0  0  0  0  0  0  0
    7.7490    3.4517    0.0000 C   0  0  0  0  0  0  0  0  0  0  0  0
    9.5229    4.4276    0.0000 C   0  0  0  0  0  0  0  0  0  0  0  0
    5.6720   -3.4276    0.0000 H   0  0  0  0  0  0  0  0  0  0  0  0
    4.2690   -3.2376    0.0000 H   0  0  0  0  0  0  0  0  0  0  0  0
    6.5380   -2.3076    0.0000 H   0  0  0  0  0  0  0  0  0  0  0  0
    4.2690   -0.9975    0.0000 H   0  0  0  0  0  0  0  0  0  0  0  0
    6.0010   -0.9975    0.0000 H   0  0  0  0  0  0  0  0  0  0  0  0
    3.8015   -0.6426    0.0000 H   0  0  0  0  0  0  0  0  0  0  0  0
    3.0044   -0.6426    0.0000 H   0  0  0  0  0  0  0  0  0  0  0  0
    6.3301   -0.4275    0.0000 H   0  0  0  0  0  0  0  0  0  0  0  0
    4.5981   -4.4276    0.0000 H   0  0  0  0  0  0  0  0  0  0  0  0
    3.4030   -3.7376    0.0000 H   0  0  0  0  0  0  0  0  0  0  0  0
    6.8671   -3.7376    0.0000 H   0  0  0  0  0  0  0  0  0  0  0  0
    2.0000   -1.3076    0.0000 H   0  0  0  0  0  0  0  0  0  0  0  0
    5.4641    1.6924    0.0000 H   0  0  0  0  0  0  0  0  0  0  0  0
    9.1764    1.5731    0.0000 H   0  0  0  0  0  0  0  0  0  0  0  0
    6.3105    3.2277    0.0000 H   0  0  0  0  0  0  0  0  0  0  0  0
    7.7466    4.0717    0.0000 H   0  0  0  0  0  0  0  0  0  0  0  0
   10.1429    4.4252    0.0000 H   0  0  0  0  0  0  0  0  0  0  0  0
    9.5253    5.0475    0.0000 H   0  0  0  0  0  0  0  0  0  0  0  0
    8.9029    4.4299    0.0000 H   0  0  0  0  0  0  0  0  0  0  0  0
  1 14  1  0  0  0  0
  1 15  1  0  0  0  0
  2 15  1  0  0  0  0
  2 17  1  0  0  0  0
  3 11  1  0  0  0  0
  3 34  1  0  0  0  0
  4 12  1  0  0  0  0
  4 35  1  0  0  0  0
  5 13  1  0  0  0  0
  5 36  1  0  0  0  0
  6 16  1  0  0  0  0
  6 37  1  0  0  0  0
  7 17  1  0  0  0  0
  7 19  1  0  0  0  0
  8 18  2  0  0  0  0
  9 23  1  0  0  0  0
  9 25  1  0  0  0  0
 10 18  1  0  0  0  0
 10 20  1  0  0  0  0
 10 38  1  0  0  0  0
 11 12  1  0  0  0  0
 11 13  1  0  0  0  0
 11 26  1  0  0  0  0
 12 14  1  0  0  0  0
 12 27  1  0  0  0  0
 13 15  1  0  0  0  0
 13 28  1  0  0  0  0
 14 16  1  0  0  0  0
 14 29  1  0  0  0  0
 15 30  1  0  0  0  0
 16 31  1  0  0  0  0
 16 32  1  0  0  0  0
 17 18  1  0  0  0  0
 17 33  1  0  0  0  0
 19 20  2  0  0  0  0
 19 21  1  0  0  0  0
 20 22  1  0  0  0  0
 21 23  2  0  0  0  0
 21 39  1  0  0  0  0
 22 24  2  0  0  0  0
 22 40  1  0  0  0  0
 23 24  1  0  0  0  0
 24 41  1  0  0  0  0
 25 42  1  0  0  0  0
 25 43  1  0  0  0  0
 25 44  1  0  0  0  0
M  END
>  <PUBCHEM_COMPOUND_CID>
77195052

>  <PUBCHEM_COMPOUND_CANONICALIZED>
1

>  <PUBCHEM_CACTVS_COMPLEXITY>
478

>  <PUBCHEM_CACTVS_HBOND_ACCEPTOR>
9

>  <PUBCHEM_CACTVS_HBOND_DONOR>
5

>  <PUBCHEM_CACTVS_ROTATABLE_BOND>
4

>  <PUBCHEM_CACTVS_SUBSKEYS>
AAADceByPAAAAAAAAAAAAAAAAAAAAAAAAAA8SIAAAAAAAACxAAAAHgAQCAAACByxkAMyzoLABgCIACVSUAKCCAAhIgAIiABHbIgfNyLEsZ+neCjl1BXf6AfwYAwAAEAACAAAEAAAgAAQAAAgAAAAAAAAAA==

>  <PUBCHEM_IUPAC_OPENEYE_NAME>
7-methoxy-2-[3,4,5-trihydroxy-6-(hydroxymethyl)tetrahydropyran-2-yl]oxy-4H-1,4-benzoxazin-3-one

>  <PUBCHEM_IUPAC_CAS_NAME>
7-methoxy-2-[[3,4,5-trihydroxy-6-(hydroxymethyl)-2-oxanyl]oxy]-4H-1,4-benzoxazin-3-one

>  <PUBCHEM_IUPAC_NAME>
7-methoxy-2-[3,4,5-trihydroxy-6-(hydroxymethyl)oxan-2-yl]oxy-4H-1,4-benzoxazin-3-one

>  <PUBCHEM_IUPAC_SYSTEMATIC_NAME>
2-[6-(hydroxymethyl)-3,4,5-tris(oxidanyl)oxan-2-yl]oxy-7-methoxy-4H-1,4-benzoxazin-3-one

>  <PUBCHEM_IUPAC_TRADITIONAL_NAME>
7-methoxy-2-(3,4,5-trihydroxy-6-methylol-tetrahydropyran-2-yl)oxy-4H-1,4-benzoxazin-3-one

>  <PUBCHEM_IUPAC_INCHI>
InChI=1S/C15H19NO9/c1-22-6-2-3-7-8(4-6)23-15(13(21)16-7)25-14-12(20)11(19)10(18)9(5-17)24-14/h2-4,9-12,14-15,17-20H,5H2,1H3,(H,16,21)

>  <PUBCHEM_IUPAC_INCHIKEY>
PMBZSEOAOIYRMW-UHFFFAOYSA-N

>  <PUBCHEM_XLOGP3_AA>
-1.3

>  <PUBCHEM_EXACT_MASS>
357.106

>  <PUBCHEM_MOLECULAR_FORMULA>
C15H19NO9

>  <PUBCHEM_MOLECULAR_WEIGHT>
357.315

>  <PUBCHEM_OPENEYE_CAN_SMILES>
COC1=CC2=C(C=C1)NC(=O)C(O2)OC3C(C(C(C(O3)CO)O)O)O

>  <PUBCHEM_OPENEYE_ISO_SMILES>
COC1=CC2=C(C=C1)NC(=O)C(O2)OC3C(C(C(C(O3)CO)O)O)O

>  <PUBCHEM_CACTVS_TPSA>
147

>  <PUBCHEM_MONOISOTOPIC_WEIGHT>
357.106

>  <PUBCHEM_TOTAL_CHARGE>
0

>  <PUBCHEM_HEAVY_ATOM_COUNT>
25

>  <PUBCHEM_ATOM_DEF_STEREO_COUNT>
0

>  <PUBCHEM_ATOM_UDEF_STEREO_COUNT>
6

>  <PUBCHEM_BOND_DEF_STEREO_COUNT>
0

>  <PUBCHEM_BOND_UDEF_STEREO_COUNT>
0

>  <PUBCHEM_ISOTOPIC_ATOM_COUNT>
0

>  <PUBCHEM_COMPONENT_COUNT>
1

>  <PUBCHEM_CACTVS_TAUTO_COUNT>
3

>  <PUBCHEM_COORDINATE_TYPE>
1
5
255

>  <PUBCHEM_BONDANNOTATIONS>
14  16  3
19  20  8
19  21  8
15  2  3
17  2  3
20  22  8
21  23  8
22  24  8
23  24  8
11  3  3
12  4  3
13  5  3

$$$$
