78384665
 OpenBabel06101807152D

 45 47  0  0  1  0  0  0  0  0999 V2000
    6.0682    0.6513    0.0000 O   0  0  0  0  0  0  0  0  0  0  0  0
    2.5381   -0.3245    0.0000 O   0  0  0  0  0  0  0  0  0  0  0  0
    7.8805   -2.1534    0.0000 O   0  0  0  0  0  0  0  0  0  0  0  0
    7.5682    1.5173    0.0000 O   0  0  0  0  0  0  0  0  0  0  0  0
    5.2022   -0.8487    0.0000 C   0  0  3  0  0  0  0  0  0  0  0  0
    5.2022   -1.8487    0.0000 C   0  0  3  0  0  0  0  0  0  0  0  0
    4.3083   -0.3140    0.0000 C   0  0  3  0  0  0  0  0  0  0  0  0
    6.0682   -0.3487    0.0000 C   0  0  3  0  0  0  0  0  0  0  0  0
    4.3083   -2.3834    0.0000 C   0  0  0  0  0  0  0  0  0  0  0  0
    3.4022   -0.8279    0.0000 C   0  0  3  0  0  0  0  0  0  0  0  0
    6.0682   -2.3487    0.0000 C   0  0  0  0  0  0  0  0  0  0  0  0
    3.4022   -1.8695    0.0000 C   0  0  0  0  0  0  0  0  0  0  0  0
    5.2022    0.1513    0.0000 C   0  0  0  0  0  0  0  0  0  0  0  0
    6.9343   -0.8487    0.0000 C   0  0  0  0  0  0  0  0  0  0  0  0
    6.9343   -1.8487    0.0000 C   0  0  0  0  0  0  0  0  0  0  0  0
    4.3198    0.6859    0.0000 C   0  0  0  0  0  0  0  0  0  0  0  0
    7.8805   -0.5440    0.0000 C   0  0  0  0  0  0  0  0  0  0  0  0
    8.4641   -1.3487    0.0000 C   0  0  0  0  0  0  0  0  0  0  0  0
    8.6248    0.1239    0.0000 C   0  0  0  0  0  0  0  0  0  0  0  0
    6.5682    1.5173    0.0000 C   0  0  0  0  0  0  0  0  0  0  0  0
    6.0682    2.3834    0.0000 C   0  0  0  0  0  0  0  0  0  0  0  0
    5.2070   -2.4687    0.0000 H   0  0  0  0  0  0  0  0  0  0  0  0
    3.7744    0.0011    0.0000 H   0  0  0  0  0  0  0  0  0  0  0  0
    6.6052   -0.0387    0.0000 H   0  0  0  0  0  0  0  0  0  0  0  0
    3.9147   -2.8624    0.0000 H   0  0  0  0  0  0  0  0  0  0  0  0
    4.7129   -2.8531    0.0000 H   0  0  0  0  0  0  0  0  0  0  0  0
    2.8647   -1.1368    0.0000 H   0  0  0  0  0  0  0  0  0  0  0  0
    5.6697   -2.8236    0.0000 H   0  0  0  0  0  0  0  0  0  0  0  0
    6.4668   -2.8236    0.0000 H   0  0  0  0  0  0  0  0  0  0  0  0
    2.7914   -1.7634    0.0000 H   0  0  0  0  0  0  0  0  0  0  0  0
    3.1932   -2.4532    0.0000 H   0  0  0  0  0  0  0  0  0  0  0  0
    5.8222    0.1513    0.0000 H   0  0  0  0  0  0  0  0  0  0  0  0
    5.2022    0.7713    0.0000 H   0  0  0  0  0  0  0  0  0  0  0  0
    4.5822    0.1513    0.0000 H   0  0  0  0  0  0  0  0  0  0  0  0
    4.9398    0.6787    0.0000 H   0  0  0  0  0  0  0  0  0  0  0  0
    4.3270    1.3059    0.0000 H   0  0  0  0  0  0  0  0  0  0  0  0
    3.6999    0.6931    0.0000 H   0  0  0  0  0  0  0  0  0  0  0  0
    2.0000   -0.6325    0.0000 H   0  0  0  0  0  0  0  0  0  0  0  0
    9.0841   -1.3487    0.0000 H   0  0  0  0  0  0  0  0  0  0  0  0
    9.0389   -0.3376    0.0000 H   0  0  0  0  0  0  0  0  0  0  0  0
    9.0863    0.5379    0.0000 H   0  0  0  0  0  0  0  0  0  0  0  0
    8.2107    0.5853    0.0000 H   0  0  0  0  0  0  0  0  0  0  0  0
    6.6052    2.6934    0.0000 H   0  0  0  0  0  0  0  0  0  0  0  0
    5.7582    2.9203    0.0000 H   0  0  0  0  0  0  0  0  0  0  0  0
    5.5313    2.0734    0.0000 H   0  0  0  0  0  0  0  0  0  0  0  0
  1  8  1  0  0  0  0
  1 20  1  0  0  0  0
  2 10  1  0  0  0  0
  2 38  1  0  0  0  0
  3 15  1  0  0  0  0
  3 18  1  0  0  0  0
  4 20  2  0  0  0  0
  5  6  1  0  0  0  0
  5  7  1  0  0  0  0
  5  8  1  0  0  0  0
  5 13  1  0  0  0  0
  6  9  1  0  0  0  0
  6 11  1  0  0  0  0
  6 22  1  0  0  0  0
  7 10  1  0  0  0  0
  7 16  1  0  0  0  0
  7 23  1  0  0  0  0
  8 14  1  0  0  0  0
  8 24  1  0  0  0  0
  9 12  1  0  0  0  0
  9 25  1  0  0  0  0
  9 26  1  0  0  0  0
 10 12  1  0  0  0  0
 10 27  1  0  0  0  0
 11 15  1  0  0  0  0
 11 28  1  0  0  0  0
 11 29  1  0  0  0  0
 12 30  1  0  0  0  0
 12 31  1  0  0  0  0
 13 32  1  0  0  0  0
 13 33  1  0  0  0  0
 13 34  1  0  0  0  0
 14 15  2  0  0  0  0
 14 17  1  0  0  0  0
 16 35  1  0  0  0  0
 16 36  1  0  0  0  0
 16 37  1  0  0  0  0
 17 18  2  0  0  0  0
 17 19  1  0  0  0  0
 18 39  1  0  0  0  0
 19 40  1  0  0  0  0
 19 41  1  0  0  0  0
 19 42  1  0  0  0  0
 20 21  1  0  0  0  0
 21 43  1  0  0  0  0
 21 44  1  0  0  0  0
 21 45  1  0  0  0  0
M  END
>  <PUBCHEM_COMPOUND_CID>
78384665

>  <PUBCHEM_COMPOUND_CANONICALIZED>
1

>  <PUBCHEM_CACTVS_COMPLEXITY>
423

>  <PUBCHEM_CACTVS_HBOND_ACCEPTOR>
4

>  <PUBCHEM_CACTVS_HBOND_DONOR>
1

>  <PUBCHEM_CACTVS_ROTATABLE_BOND>
2

>  <PUBCHEM_CACTVS_SUBSKEYS>
AAADceB4OAAAAAAAAAAAAAAAAAAAASAAAAAwYAAAAAAAAEjBgAAAGgAACAAADxSgmAIiDIAABkCIAojSiAACCAAkIAAAiAEECMgMNzaENRqCWSCl4BEIqQfK7PzPgAAAAAAAAADAAAYQADAAAAAAAAAAAA==

>  <PUBCHEM_IUPAC_OPENEYE_NAME>
(6-hydroxy-3,4a,5-trimethyl-5,6,7,8,8a,9-hexahydro-4H-benzo[f]benzofuran-4-yl) acetate

>  <PUBCHEM_IUPAC_CAS_NAME>
acetic acid (6-hydroxy-3,4a,5-trimethyl-5,6,7,8,8a,9-hexahydro-4H-benzo[f]benzofuran-4-yl) ester

>  <PUBCHEM_IUPAC_NAME>
(6-hydroxy-3,4a,5-trimethyl-5,6,7,8,8a,9-hexahydro-4H-benzo[f][1]benzofuran-4-yl) acetate

>  <PUBCHEM_IUPAC_SYSTEMATIC_NAME>
(3,4a,5-trimethyl-6-oxidanyl-5,6,7,8,8a,9-hexahydro-4H-benzo[f][1]benzofuran-4-yl) ethanoate

>  <PUBCHEM_IUPAC_TRADITIONAL_NAME>
acetic acid (6-hydroxy-3,4a,5-trimethyl-5,6,7,8,8a,9-hexahydro-4H-benzo[f]benzofuran-4-yl) ester

>  <PUBCHEM_IUPAC_INCHI>
InChI=1S/C17H24O4/c1-9-8-20-14-7-12-5-6-13(19)10(2)17(12,4)16(15(9)14)21-11(3)18/h8,10,12-13,16,19H,5-7H2,1-4H3

>  <PUBCHEM_IUPAC_INCHIKEY>
CXZIQFLLAXJLDS-UHFFFAOYSA-N

>  <PUBCHEM_XLOGP3_AA>
2.7

>  <PUBCHEM_EXACT_MASS>
292.167

>  <PUBCHEM_MOLECULAR_FORMULA>
C17H24O4

>  <PUBCHEM_MOLECULAR_WEIGHT>
292.375

>  <PUBCHEM_OPENEYE_CAN_SMILES>
CC1C(CCC2C1(C(C3=C(C2)OC=C3C)OC(=O)C)C)O

>  <PUBCHEM_OPENEYE_ISO_SMILES>
CC1C(CCC2C1(C(C3=C(C2)OC=C3C)OC(=O)C)C)O

>  <PUBCHEM_CACTVS_TPSA>
59.7

>  <PUBCHEM_MONOISOTOPIC_WEIGHT>
292.167

>  <PUBCHEM_TOTAL_CHARGE>
0

>  <PUBCHEM_HEAVY_ATOM_COUNT>
21

>  <PUBCHEM_ATOM_DEF_STEREO_COUNT>
0

>  <PUBCHEM_ATOM_UDEF_STEREO_COUNT>
5

>  <PUBCHEM_BOND_DEF_STEREO_COUNT>
0

>  <PUBCHEM_BOND_UDEF_STEREO_COUNT>
0

>  <PUBCHEM_ISOTOPIC_ATOM_COUNT>
0

>  <PUBCHEM_COMPONENT_COUNT>
1

>  <PUBCHEM_CACTVS_TAUTO_COUNT>
1

>  <PUBCHEM_COORDINATE_TYPE>
1
5
255

>  <PUBCHEM_BONDANNOTATIONS>
8  1  3
14  15  8
14  17  8
17  18  8
10  2  3
3  15  8
3  18  8
5  13  3
6  9  3
7  16  3

$$$$
