79029
 OpenBabel06101807152D

 21 22  0  0  1  0  0  0  0  0999 V2000
    4.6196    2.0178    0.0000 O   0  0  0  0  0  0  0  0  0  0  0  0
    6.4963   -0.4396    0.0000 O   0  0  0  0  0  0  0  0  0  0  0  0
    2.7073    1.5120    0.0000 O   0  0  0  0  0  0  0  0  0  0  0  0
    2.1077   -0.5793    0.0000 O   0  0  0  0  0  0  0  0  0  0  0  0
    3.9113   -1.7958    0.0000 O   0  0  0  0  0  0  0  0  0  0  0  0
    5.3562    1.0352    0.0000 C   0  0  3  0  0  0  0  0  0  0  0  0
    3.3230    0.7240    0.0000 C   0  0  3  0  0  0  0  0  0  0  0  0
    3.0473   -0.2372    0.0000 C   0  0  3  0  0  0  0  0  0  0  0  0
    3.8764   -0.7964    0.0000 C   0  0  3  0  0  0  0  0  0  0  0  0
    5.0974    0.0692    0.0000 C   0  0  3  0  0  0  0  0  0  0  0  0
    6.7552    0.5263    0.0000 C   0  0  0  0  0  0  0  0  0  0  0  0
    5.7256    1.5331    0.0000 H   0  0  0  0  0  0  0  0  0  0  0  0
    2.7144    0.6057    0.0000 H   0  0  0  0  0  0  0  0  0  0  0  0
    2.5939    0.1856    0.0000 H   0  0  0  0  0  0  0  0  0  0  0  0
    3.3341   -1.0970    0.0000 H   0  0  0  0  0  0  0  0  0  0  0  0
    5.5589    0.4832    0.0000 H   0  0  0  0  0  0  0  0  0  0  0  0
    7.3491    0.3486    0.0000 H   0  0  0  0  0  0  0  0  0  0  0  0
    6.9501    1.1149    0.0000 H   0  0  0  0  0  0  0  0  0  0  0  0
    2.9396    2.0869    0.0000 H   0  0  0  0  0  0  0  0  0  0  0  0
    2.0000   -1.1898    0.0000 H   0  0  0  0  0  0  0  0  0  0  0  0
    4.4587   -2.0869    0.0000 H   0  0  0  0  0  0  0  0  0  0  0  0
  1  6  1  0  0  0  0
  1 10  1  0  0  0  0
  2 10  1  0  0  0  0
  2 11  1  0  0  0  0
  3  7  1  0  0  0  0
  3 19  1  0  0  0  0
  4  8  1  0  0  0  0
  4 20  1  0  0  0  0
  5  9  1  0  0  0  0
  5 21  1  0  0  0  0
  6  7  1  0  0  0  0
  6 11  1  0  0  0  0
  6 12  1  0  0  0  0
  7  8  1  0  0  0  0
  7 13  1  0  0  0  0
  8  9  1  0  0  0  0
  8 14  1  0  0  0  0
  9 10  1  0  0  0  0
  9 15  1  0  0  0  0
 10 16  1  0  0  0  0
 11 17  1  0  0  0  0
 11 18  1  0  0  0  0
M  END
>  <PUBCHEM_COMPOUND_CID>
79029

>  <PUBCHEM_COMPOUND_CANONICALIZED>
1

>  <PUBCHEM_CACTVS_COMPLEXITY>
161

>  <PUBCHEM_CACTVS_HBOND_ACCEPTOR>
5

>  <PUBCHEM_CACTVS_HBOND_DONOR>
3

>  <PUBCHEM_CACTVS_ROTATABLE_BOND>
0

>  <PUBCHEM_CACTVS_SUBSKEYS>
AAADccBgOAAAAAAAAAAAAAAAAAAAASAAAAAkAAAABIAAAAAAAAAAGgAACAAACBSwgAMACAAABgAAAAAAAAAAAAAAAAAAAAAAAAAREAIAAAAiQAAFAAAHAAHAYAwAAAAAAAAAAAAAAAAAAAAAAAAAAAAAAA==

>  <PUBCHEM_IUPAC_OPENEYE_NAME>
6,8-dioxabicyclo[3.2.1]octane-2,3,4-triol

>  <PUBCHEM_IUPAC_CAS_NAME>
6,8-dioxabicyclo[3.2.1]octane-2,3,4-triol

>  <PUBCHEM_IUPAC_NAME>
6,8-dioxabicyclo[3.2.1]octane-2,3,4-triol

>  <PUBCHEM_IUPAC_SYSTEMATIC_NAME>
6,8-dioxabicyclo[3.2.1]octane-2,3,4-triol

>  <PUBCHEM_IUPAC_TRADITIONAL_NAME>
6,8-dioxabicyclo[3.2.1]octane-2,3,4-triol

>  <PUBCHEM_IUPAC_INCHI>
InChI=1S/C6H10O5/c7-3-2-1-10-6(11-2)5(9)4(3)8/h2-9H,1H2

>  <PUBCHEM_IUPAC_INCHIKEY>
TWNIBLMWSKIRAT-UHFFFAOYSA-N

>  <PUBCHEM_XLOGP3_AA>
-2.1

>  <PUBCHEM_EXACT_MASS>
162.053

>  <PUBCHEM_MOLECULAR_FORMULA>
C6H10O5

>  <PUBCHEM_MOLECULAR_WEIGHT>
162.141

>  <PUBCHEM_OPENEYE_CAN_SMILES>
C1C2C(C(C(C(O1)O2)O)O)O

>  <PUBCHEM_OPENEYE_ISO_SMILES>
C1C2C(C(C(C(O1)O2)O)O)O

>  <PUBCHEM_CACTVS_TPSA>
79.2

>  <PUBCHEM_MONOISOTOPIC_WEIGHT>
162.053

>  <PUBCHEM_TOTAL_CHARGE>
0

>  <PUBCHEM_HEAVY_ATOM_COUNT>
11

>  <PUBCHEM_ATOM_DEF_STEREO_COUNT>
0

>  <PUBCHEM_ATOM_UDEF_STEREO_COUNT>
5

>  <PUBCHEM_BOND_DEF_STEREO_COUNT>
0

>  <PUBCHEM_BOND_UDEF_STEREO_COUNT>
0

>  <PUBCHEM_ISOTOPIC_ATOM_COUNT>
0

>  <PUBCHEM_COMPONENT_COUNT>
1

>  <PUBCHEM_CACTVS_TAUTO_COUNT>
1

>  <PUBCHEM_COORDINATE_TYPE>
1
5
255

>  <PUBCHEM_BONDANNOTATIONS>
10  1  3
7  3  3
8  4  3
9  5  3
6  11  3

$$$$
