85087490
 OpenBabel06101807152D

 47 52  0  0  1  0  0  0  0  0999 V2000
    5.3064    0.3486    0.0000 O   0  0  0  0  0  0  0  0  0  0  0  0
    8.3097   -1.0568    0.0000 O   0  0  0  0  0  0  0  0  0  0  0  0
    6.0614   -2.4171    0.0000 O   0  0  0  0  0  0  0  0  0  0  0  0
    6.8878    1.7780    0.0000 O   0  0  0  0  0  0  0  0  0  0  0  0
    4.3868    2.2628    0.0000 O   0  0  0  0  0  0  0  0  0  0  0  0
    5.5953    2.7013    0.0000 O   0  0  0  0  0  0  0  0  0  0  0  0
    5.7303   -0.7086    0.0000 C   0  0  3  0  0  0  0  0  0  0  0  0
    6.0240    0.2000    0.0000 C   0  0  3  0  0  0  0  0  0  0  0  0
    4.4777    0.2016    0.0000 C   0  0  3  0  0  0  0  0  0  0  0  0
    4.7748   -0.7121    0.0000 C   0  0  3  0  0  0  0  0  0  0  0  0
    6.9880    0.4065    0.0000 C   0  0  3  0  0  0  0  0  0  0  0  0
    5.2514    0.7619    0.0000 C   0  0  3  0  0  0  0  0  0  0  0  0
    7.6489   -0.3252    0.0000 C   0  0  3  0  0  0  0  0  0  0  0  0
    6.3816   -1.4698    0.0000 C   0  0  3  0  0  0  0  0  0  0  0  0
    7.3456   -1.2633    0.0000 C   0  0  3  0  0  0  0  0  0  0  0  0
    3.7319   -0.6543    0.0000 C   0  0  0  0  0  0  0  0  0  0  0  0
    4.2462   -1.5141    0.0000 C   0  0  0  0  0  0  0  0  0  0  0  0
    3.5775    0.5385    0.0000 C   0  0  0  0  0  0  0  0  0  0  0  0
    2.6246   -0.9067    0.0000 C   0  0  3  0  0  0  0  0  0  0  0  0
    6.2266    1.0278    0.0000 C   0  0  0  0  0  0  0  0  0  0  0  0
    3.2892   -1.6006    0.0000 C   0  0  0  0  0  0  0  0  0  0  0  0
    2.7536    0.0454    0.0000 C   0  0  0  0  0  0  0  0  0  0  0  0
    7.6771    1.1311    0.0000 C   0  0  0  0  0  0  0  0  0  0  0  0
    5.2523    1.7619    0.0000 C   0  0  0  0  0  0  0  0  0  0  0  0
    2.0000    0.7028    0.0000 C   0  0  0  0  0  0  0  0  0  0  0  0
    6.4396   -0.2601    0.0000 H   0  0  0  0  0  0  0  0  0  0  0  0
    5.0698   -1.2574    0.0000 H   0  0  0  0  0  0  0  0  0  0  0  0
    5.8040    1.0430    0.0000 H   0  0  0  0  0  0  0  0  0  0  0  0
    8.1090    0.0904    0.0000 H   0  0  0  0  0  0  0  0  0  0  0  0
    5.7729   -1.5874    0.0000 H   0  0  0  0  0  0  0  0  0  0  0  0
    7.4755   -1.8696    0.0000 H   0  0  0  0  0  0  0  0  0  0  0  0
    3.6765   -1.2718    0.0000 H   0  0  0  0  0  0  0  0  0  0  0  0
    4.3022   -0.8975    0.0000 H   0  0  0  0  0  0  0  0  0  0  0  0
    4.1633   -2.1285    0.0000 H   0  0  0  0  0  0  0  0  0  0  0  0
    4.8268   -1.7316    0.0000 H   0  0  0  0  0  0  0  0  0  0  0  0
    3.9186    1.0562    0.0000 H   0  0  0  0  0  0  0  0  0  0  0  0
    3.1487    0.9863    0.0000 H   0  0  0  0  0  0  0  0  0  0  0  0
    2.0350   -1.0985    0.0000 H   0  0  0  0  0  0  0  0  0  0  0  0
    2.7571   -1.9189    0.0000 H   0  0  0  0  0  0  0  0  0  0  0  0
    3.4810   -2.1901    0.0000 H   0  0  0  0  0  0  0  0  0  0  0  0
    8.1264    0.7039    0.0000 H   0  0  0  0  0  0  0  0  0  0  0  0
    8.1044    1.5804    0.0000 H   0  0  0  0  0  0  0  0  0  0  0  0
    7.2279    1.5584    0.0000 H   0  0  0  0  0  0  0  0  0  0  0  0
    6.4707   -2.8828    0.0000 H   0  0  0  0  0  0  0  0  0  0  0  0
    2.1194    1.3112    0.0000 H   0  0  0  0  0  0  0  0  0  0  0  0
    1.4134    0.5020    0.0000 H   0  0  0  0  0  0  0  0  0  0  0  0
    4.3874    2.8828    0.0000 H   0  0  0  0  0  0  0  0  0  0  0  0
  1  7  1  0  0  0  0
  1 20  1  0  0  0  0
  2 13  1  0  0  0  0
  2 15  1  0  0  0  0
  3 14  1  0  0  0  0
  3 44  1  0  0  0  0
  4 20  2  0  0  0  0
  5 24  1  0  0  0  0
  5 47  1  0  0  0  0
  6 24  2  0  0  0  0
  7  8  1  0  0  0  0
  7 10  1  0  0  0  0
  7 14  1  0  0  0  0
  8 11  1  0  0  0  0
  8 12  1  0  0  0  0
  8 26  1  0  0  0  0
  9 10  1  0  0  0  0
  9 12  1  0  0  0  0
  9 16  1  0  0  0  0
  9 18  1  0  0  0  0
 10 17  1  0  0  0  0
 10 27  1  0  0  0  0
 11 13  1  0  0  0  0
 11 20  1  0  0  0  0
 11 23  1  0  0  0  0
 12 24  1  0  0  0  0
 12 28  1  0  0  0  0
 13 15  1  0  0  0  0
 13 29  1  0  0  0  0
 14 15  1  0  0  0  0
 14 30  1  0  0  0  0
 15 31  1  0  0  0  0
 16 19  1  0  0  0  0
 16 32  1  0  0  0  0
 16 33  1  0  0  0  0
 17 21  1  0  0  0  0
 17 34  1  0  0  0  0
 17 35  1  0  0  0  0
 18 22  1  0  0  0  0
 18 36  1  0  0  0  0
 18 37  1  0  0  0  0
 19 21  1  0  0  0  0
 19 22  1  0  0  0  0
 19 38  1  0  0  0  0
 21 39  1  0  0  0  0
 21 40  1  0  0  0  0
 22 25  2  0  0  0  0
 23 41  1  0  0  0  0
 23 42  1  0  0  0  0
 23 43  1  0  0  0  0
 25 45  1  0  0  0  0
 25 46  1  0  0  0  0
M  END
>  <PUBCHEM_COMPOUND_CID>
85087490

>  <PUBCHEM_COMPOUND_CANONICALIZED>
1

>  <PUBCHEM_CACTVS_COMPLEXITY>
761

>  <PUBCHEM_CACTVS_HBOND_ACCEPTOR>
6

>  <PUBCHEM_CACTVS_HBOND_DONOR>
2

>  <PUBCHEM_CACTVS_ROTATABLE_BOND>
1

>  <PUBCHEM_CACTVS_SUBSKEYS>
AAADceB4OAAAAAAAAAAAAAAAEgAAAaMEAAAwYAAABokSAGDAAAAAGgAACAAAD1SggAICCAAABgCIAgDSCAAAAAAgAAAAAAEAAAgBEBYAAQACQAAFoAADAAHK7vzPgAAAAAAAAADCAAYQADCAAYAADAAAAA==

>  <PUBCHEM_IUPAC_INCHI>
InChI=1S/C19H22O6/c1-7-5-18-6-8(7)3-4-9(18)19-12(10(18)15(21)22)17(2,16(23)25-19)14-11(24-14)13(19)20/h8-14,20H,1,3-6H2,2H3,(H,21,22)

>  <PUBCHEM_IUPAC_INCHIKEY>
GKOVHAGMHIIKFS-UHFFFAOYSA-N

>  <PUBCHEM_XLOGP3_AA>
0.7

>  <PUBCHEM_EXACT_MASS>
346.142

>  <PUBCHEM_MOLECULAR_FORMULA>
C19H22O6

>  <PUBCHEM_MOLECULAR_WEIGHT>
346.379

>  <PUBCHEM_OPENEYE_CAN_SMILES>
CC12C3C(C45CC(CCC4C3(C(C6C1O6)O)OC2=O)C(=C)C5)C(=O)O

>  <PUBCHEM_OPENEYE_ISO_SMILES>
CC12C3C(C45CC(CCC4C3(C(C6C1O6)O)OC2=O)C(=C)C5)C(=O)O

>  <PUBCHEM_CACTVS_TPSA>
96.4

>  <PUBCHEM_MONOISOTOPIC_WEIGHT>
346.142

>  <PUBCHEM_TOTAL_CHARGE>
0

>  <PUBCHEM_HEAVY_ATOM_COUNT>
25

>  <PUBCHEM_ATOM_DEF_STEREO_COUNT>
0

>  <PUBCHEM_ATOM_UDEF_STEREO_COUNT>
10

>  <PUBCHEM_BOND_DEF_STEREO_COUNT>
0

>  <PUBCHEM_BOND_UDEF_STEREO_COUNT>
0

>  <PUBCHEM_ISOTOPIC_ATOM_COUNT>
0

>  <PUBCHEM_COMPONENT_COUNT>
1

>  <PUBCHEM_CACTVS_TAUTO_COUNT>
1

>  <PUBCHEM_COORDINATE_TYPE>
1
5
255

>  <PUBCHEM_BONDANNOTATIONS>
7  1  3
10  17  3
11  23  3
12  24  3
19  22  3
13  2  3
15  2  3
14  3  3
8  12  3
9  18  3

$$$$
