85118552
 OpenBabel06101807152D

135141  0  0  1  0  0  0  0  0999 V2000
    8.5991   -3.8946    0.0000 O   0  0  0  0  0  0  0  0  0  0  0  0
   10.3529    5.3848    0.0000 O   0  0  0  0  0  0  0  0  0  0  0  0
   11.2362    3.8950    0.0000 O   0  0  0  0  0  0  0  0  0  0  0  0
    6.8671   -3.8946    0.0000 O   0  0  0  0  0  0  0  0  0  0  0  0
   11.2015    6.8948    0.0000 O   0  0  0  0  0  0  0  0  0  0  0  0
    8.5991   -5.8946    0.0000 O   0  0  0  0  0  0  0  0  0  0  0  0
    6.8671   -6.8946    0.0000 O   0  0  0  0  0  0  0  0  0  0  0  0
    5.1350   -5.8946    0.0000 O   0  0  0  0  0  0  0  0  0  0  0  0
   12.0964    4.4049    0.0000 O   0  0  0  0  0  0  0  0  0  0  0  0
   13.8168    5.4249    0.0000 O   0  0  0  0  0  0  0  0  0  0  0  0
   13.7937    7.4248    0.0000 O   0  0  0  0  0  0  0  0  0  0  0  0
    4.2690   -4.3946    0.0000 O   0  0  0  0  0  0  0  0  0  0  0  0
    5.1350   -2.8946    0.0000 O   0  0  0  0  0  0  0  0  0  0  0  0
    5.1350   -6.8946    0.0000 O   0  0  0  0  0  0  0  0  0  0  0  0
   11.1784    8.8946    0.0000 O   0  0  0  0  0  0  0  0  0  0  0  0
    5.1350   -8.8946    0.0000 O   0  0  0  0  0  0  0  0  0  0  0  0
    6.8671   -8.8946    0.0000 O   0  0  0  0  0  0  0  0  0  0  0  0
    2.5369   -7.3946    0.0000 O   0  0  0  0  0  0  0  0  0  0  0  0
    3.4030   -5.8946    0.0000 O   0  0  0  0  0  0  0  0  0  0  0  0
    9.5002    0.8056    0.0000 C   0  0  3  0  0  0  0  0  0  0  0  0
    8.6361    0.3023    0.0000 C   0  0  3  0  0  0  0  0  0  0  0  0
    8.6240   -0.7393    0.0000 C   0  0  3  0  0  0  0  0  0  0  0  0
    9.4963    1.8056    0.0000 C   0  0  3  0  0  0  0  0  0  0  0  0
    9.5241   -1.2636    0.0000 C   0  0  3  0  0  0  0  0  0  0  0  0
   10.4121    0.3023    0.0000 C   0  0  0  0  0  0  0  0  0  0  0  0
    9.5366   -2.3485    0.0000 C   0  0  0  0  0  0  0  0  0  0  0  0
   10.4242   -0.7393    0.0000 C   0  0  0  0  0  0  0  0  0  0  0  0
    8.6284    2.3023    0.0000 C   0  0  0  0  0  0  0  0  0  0  0  0
    8.6083    3.3437    0.0000 C   0  0  3  0  0  0  0  0  0  0  0  0
    7.7681    0.7990    0.0000 C   0  0  0  0  0  0  0  0  0  0  0  0
    7.6741   -1.2636    0.0000 C   0  0  0  0  0  0  0  0  0  0  0  0
   10.4044    2.3160    0.0000 C   0  0  0  0  0  0  0  0  0  0  0  0
    9.5043    3.8749    0.0000 C   0  0  3  0  0  0  0  0  0  0  0  0
   10.4843    0.9831    0.0000 C   0  0  0  0  0  0  0  0  0  0  0  0
    8.5991   -2.8946    0.0000 C   0  0  3  0  0  0  0  0  0  0  0  0
   10.4084    3.3576    0.0000 C   0  0  0  0  0  0  0  0  0  0  0  0
    7.7600   -0.2359    0.0000 C   0  0  0  0  0  0  0  0  0  0  0  0
    7.7643    1.7990    0.0000 C   0  0  0  0  0  0  0  0  0  0  0  0
    7.6616   -2.3485    0.0000 C   0  0  0  0  0  0  0  0  0  0  0  0
   10.4818    1.6358    0.0000 C   0  0  0  0  0  0  0  0  0  0  0  0
    7.6544    3.8607    0.0000 C   0  0  0  0  0  0  0  0  0  0  0  0
    9.5085    4.9599    0.0000 C   0  0  0  0  0  0  0  0  0  0  0  0
    7.6335    4.9455    0.0000 C   0  0  0  0  0  0  0  0  0  0  0  0
   10.0433   -3.2106    0.0000 C   0  0  0  0  0  0  0  0  0  0  0  0
   10.5366   -2.3408    0.0000 C   0  0  0  0  0  0  0  0  0  0  0  0
    8.5668    5.4988    0.0000 C   0  0  0  0  0  0  0  0  0  0  0  0
   10.3645    4.3849    0.0000 C   0  0  0  0  0  0  0  0  0  0  0  0
    7.1202    5.8037    0.0000 C   0  0  0  0  0  0  0  0  0  0  0  0
    6.6336    4.9300    0.0000 C   0  0  0  0  0  0  0  0  0  0  0  0
    7.7331   -4.3946    0.0000 C   0  0  3  0  0  0  0  0  0  0  0  0
    7.7331   -5.3946    0.0000 C   0  0  3  0  0  0  0  0  0  0  0  0
   11.2131    5.8948    0.0000 C   0  0  3  0  0  0  0  0  0  0  0  0
    6.8671   -5.8946    0.0000 C   0  0  3  0  0  0  0  0  0  0  0  0
    6.0010   -4.3946    0.0000 C   0  0  3  0  0  0  0  0  0  0  0  0
    6.0010   -5.3946    0.0000 C   0  0  3  0  0  0  0  0  0  0  0  0
   12.0849    5.4049    0.0000 C   0  0  3  0  0  0  0  0  0  0  0  0
   12.9450    5.9149    0.0000 C   0  0  3  0  0  0  0  0  0  0  0  0
   12.0617    7.4047    0.0000 C   0  0  3  0  0  0  0  0  0  0  0  0
   12.9335    6.9148    0.0000 C   0  0  3  0  0  0  0  0  0  0  0  0
    5.1350   -3.8946    0.0000 C   0  0  0  0  0  0  0  0  0  0  0  0
   12.0502    8.4047    0.0000 C   0  0  0  0  0  0  0  0  0  0  0  0
    6.0010   -7.3946    0.0000 C   0  0  3  0  0  0  0  0  0  0  0  0
    6.0010   -8.3946    0.0000 C   0  0  0  0  0  0  0  0  0  0  0  0
    4.2690   -7.3946    0.0000 C   0  0  0  0  0  0  0  0  0  0  0  0
    3.4030   -6.8946    0.0000 C   0  0  0  0  0  0  0  0  0  0  0  0
    9.1718   -0.0098    0.0000 H   0  0  0  0  0  0  0  0  0  0  0  0
   10.0634   -1.5694    0.0000 H   0  0  0  0  0  0  0  0  0  0  0  0
   11.0242    0.2033    0.0000 H   0  0  0  0  0  0  0  0  0  0  0  0
   10.6144    0.8884    0.0000 H   0  0  0  0  0  0  0  0  0  0  0  0
   10.6400   -1.3205    0.0000 H   0  0  0  0  0  0  0  0  0  0  0  0
   11.0338   -0.6261    0.0000 H   0  0  0  0  0  0  0  0  0  0  0  0
    8.0787    3.0214    0.0000 H   0  0  0  0  0  0  0  0  0  0  0  0
    7.1572    0.9043    0.0000 H   0  0  0  0  0  0  0  0  0  0  0  0
    7.5583    0.2155    0.0000 H   0  0  0  0  0  0  0  0  0  0  0  0
    7.4718   -0.6775    0.0000 H   0  0  0  0  0  0  0  0  0  0  0  0
    7.0621   -1.3626    0.0000 H   0  0  0  0  0  0  0  0  0  0  0  0
   10.6112    1.7315    0.0000 H   0  0  0  0  0  0  0  0  0  0  0  0
   11.0156    2.4197    0.0000 H   0  0  0  0  0  0  0  0  0  0  0  0
   10.5943    0.3729    0.0000 H   0  0  0  0  0  0  0  0  0  0  0  0
   11.0945    1.0931    0.0000 H   0  0  0  0  0  0  0  0  0  0  0  0
   10.3743    1.5932    0.0000 H   0  0  0  0  0  0  0  0  0  0  0  0
    8.0616   -3.2036    0.0000 H   0  0  0  0  0  0  0  0  0  0  0  0
   11.0188    3.2492    0.0000 H   0  0  0  0  0  0  0  0  0  0  0  0
   10.6197    3.9405    0.0000 H   0  0  0  0  0  0  0  0  0  0  0  0
    8.0720    0.2998    0.0000 H   0  0  0  0  0  0  0  0  0  0  0  0
    7.2242    0.0761    0.0000 H   0  0  0  0  0  0  0  0  0  0  0  0
    7.4479   -0.7717    0.0000 H   0  0  0  0  0  0  0  0  0  0  0  0
    7.2262    2.1069    0.0000 H   0  0  0  0  0  0  0  0  0  0  0  0
    7.0520   -2.2353    0.0000 H   0  0  0  0  0  0  0  0  0  0  0  0
    7.4458   -2.9297    0.0000 H   0  0  0  0  0  0  0  0  0  0  0  0
   10.3765    1.0248    0.0000 H   0  0  0  0  0  0  0  0  0  0  0  0
   11.0928    1.5305    0.0000 H   0  0  0  0  0  0  0  0  0  0  0  0
   10.5871    2.2468    0.0000 H   0  0  0  0  0  0  0  0  0  0  0  0
    7.0416    3.9550    0.0000 H   0  0  0  0  0  0  0  0  0  0  0  0
    7.4566    3.2731    0.0000 H   0  0  0  0  0  0  0  0  0  0  0  0
   10.1189    4.8515    0.0000 H   0  0  0  0  0  0  0  0  0  0  0  0
    9.7198    5.5428    0.0000 H   0  0  0  0  0  0  0  0  0  0  0  0
   10.5414   -2.9607    0.0000 H   0  0  0  0  0  0  0  0  0  0  0  0
   11.1566   -2.3360    0.0000 H   0  0  0  0  0  0  0  0  0  0  0  0
   10.5318   -1.7208    0.0000 H   0  0  0  0  0  0  0  0  0  0  0  0
    9.5088   -3.5248    0.0000 H   0  0  0  0  0  0  0  0  0  0  0  0
   10.3574   -3.7452    0.0000 H   0  0  0  0  0  0  0  0  0  0  0  0
   10.5778   -2.8965    0.0000 H   0  0  0  0  0  0  0  0  0  0  0  0
    8.9622    5.9763    0.0000 H   0  0  0  0  0  0  0  0  0  0  0  0
    8.1640    5.9701    0.0000 H   0  0  0  0  0  0  0  0  0  0  0  0
    7.6523    6.1219    0.0000 H   0  0  0  0  0  0  0  0  0  0  0  0
    6.8019    6.3358    0.0000 H   0  0  0  0  0  0  0  0  0  0  0  0
    6.5881    5.4854    0.0000 H   0  0  0  0  0  0  0  0  0  0  0  0
    6.6240    5.5500    0.0000 H   0  0  0  0  0  0  0  0  0  0  0  0
    6.0137    4.9205    0.0000 H   0  0  0  0  0  0  0  0  0  0  0  0
    6.6431    4.3101    0.0000 H   0  0  0  0  0  0  0  0  0  0  0  0
    7.7331   -3.7746    0.0000 H   0  0  0  0  0  0  0  0  0  0  0  0
    7.7331   -6.0146    0.0000 H   0  0  0  0  0  0  0  0  0  0  0  0
   10.6726    6.1986    0.0000 H   0  0  0  0  0  0  0  0  0  0  0  0
    6.3301   -6.2046    0.0000 H   0  0  0  0  0  0  0  0  0  0  0  0
    6.0010   -3.7746    0.0000 H   0  0  0  0  0  0  0  0  0  0  0  0
    5.4641   -5.0846    0.0000 H   0  0  0  0  0  0  0  0  0  0  0  0
   11.5515    5.0887    0.0000 H   0  0  0  0  0  0  0  0  0  0  0  0
    8.5991   -6.5146    0.0000 H   0  0  0  0  0  0  0  0  0  0  0  0
   13.4784    6.2310    0.0000 H   0  0  0  0  0  0  0  0  0  0  0  0
   11.5212    7.7085    0.0000 H   0  0  0  0  0  0  0  0  0  0  0  0
   12.9263    7.5348    0.0000 H   0  0  0  0  0  0  0  0  0  0  0  0
    4.5981   -5.5846    0.0000 H   0  0  0  0  0  0  0  0  0  0  0  0
   12.6369    4.1012    0.0000 H   0  0  0  0  0  0  0  0  0  0  0  0
   12.6619    8.3041    0.0000 H   0  0  0  0  0  0  0  0  0  0  0  0
   12.2555    8.9897    0.0000 H   0  0  0  0  0  0  0  0  0  0  0  0
    6.5380   -7.7046    0.0000 H   0  0  0  0  0  0  0  0  0  0  0  0
   14.3501    5.7411    0.0000 H   0  0  0  0  0  0  0  0  0  0  0  0
   13.7865    8.0447    0.0000 H   0  0  0  0  0  0  0  0  0  0  0  0
    3.7320   -4.0846    0.0000 H   0  0  0  0  0  0  0  0  0  0  0  0
   11.1712    9.5146    0.0000 H   0  0  0  0  0  0  0  0  0  0  0  0
    3.8705   -7.8695    0.0000 H   0  0  0  0  0  0  0  0  0  0  0  0
    4.6675   -7.8695    0.0000 H   0  0  0  0  0  0  0  0  0  0  0  0
    5.1350   -9.5146    0.0000 H   0  0  0  0  0  0  0  0  0  0  0  0
    2.0000   -7.0846    0.0000 H   0  0  0  0  0  0  0  0  0  0  0  0
  1 35  1  0  0  0  0
  1 50  1  0  0  0  0
  2 47  1  0  0  0  0
  2 52  1  0  0  0  0
  3 47  2  0  0  0  0
  4 50  1  0  0  0  0
  4 54  1  0  0  0  0
  5 52  1  0  0  0  0
  5 58  1  0  0  0  0
  6 51  1  0  0  0  0
  6119  1  0  0  0  0
  7 53  1  0  0  0  0
  7 62  1  0  0  0  0
  8 55  1  0  0  0  0
  8123  1  0  0  0  0
  9 56  1  0  0  0  0
  9124  1  0  0  0  0
 10 57  1  0  0  0  0
 10128  1  0  0  0  0
 11 59  1  0  0  0  0
 11129  1  0  0  0  0
 12 60  1  0  0  0  0
 12130  1  0  0  0  0
 13 60  2  0  0  0  0
 14 62  1  0  0  0  0
 14 64  1  0  0  0  0
 15 61  1  0  0  0  0
 15131  1  0  0  0  0
 16 63  1  0  0  0  0
 16134  1  0  0  0  0
 17 63  2  0  0  0  0
 18 65  1  0  0  0  0
 18135  1  0  0  0  0
 19 65  2  0  0  0  0
 20 21  1  0  0  0  0
 20 23  1  0  0  0  0
 20 25  1  0  0  0  0
 20 34  1  0  0  0  0
 21 22  1  0  0  0  0
 21 30  1  0  0  0  0
 21 66  1  0  0  0  0
 22 24  1  0  0  0  0
 22 31  1  0  0  0  0
 22 37  1  0  0  0  0
 23 28  1  0  0  0  0
 23 32  1  0  0  0  0
 23 40  1  0  0  0  0
 24 26  1  0  0  0  0
 24 27  1  0  0  0  0
 24 67  1  0  0  0  0
 25 27  1  0  0  0  0
 25 68  1  0  0  0  0
 25 69  1  0  0  0  0
 26 35  1  0  0  0  0
 26 44  1  0  0  0  0
 26 45  1  0  0  0  0
 27 70  1  0  0  0  0
 27 71  1  0  0  0  0
 28 29  1  0  0  0  0
 28 38  2  0  0  0  0
 29 33  1  0  0  0  0
 29 41  1  0  0  0  0
 29 72  1  0  0  0  0
 30 38  1  0  0  0  0
 30 73  1  0  0  0  0
 30 74  1  0  0  0  0
 31 39  1  0  0  0  0
 31 75  1  0  0  0  0
 31 76  1  0  0  0  0
 32 36  1  0  0  0  0
 32 77  1  0  0  0  0
 32 78  1  0  0  0  0
 33 36  1  0  0  0  0
 33 42  1  0  0  0  0
 33 47  1  0  0  0  0
 34 79  1  0  0  0  0
 34 80  1  0  0  0  0
 34 81  1  0  0  0  0
 35 39  1  0  0  0  0
 35 82  1  0  0  0  0
 36 83  1  0  0  0  0
 36 84  1  0  0  0  0
 37 85  1  0  0  0  0
 37 86  1  0  0  0  0
 37 87  1  0  0  0  0
 38 88  1  0  0  0  0
 39 89  1  0  0  0  0
 39 90  1  0  0  0  0
 40 91  1  0  0  0  0
 40 92  1  0  0  0  0
 40 93  1  0  0  0  0
 41 43  1  0  0  0  0
 41 94  1  0  0  0  0
 41 95  1  0  0  0  0
 42 46  1  0  0  0  0
 42 96  1  0  0  0  0
 42 97  1  0  0  0  0
 43 46  1  0  0  0  0
 43 48  1  0  0  0  0
 43 49  1  0  0  0  0
 44101  1  0  0  0  0
 44102  1  0  0  0  0
 44103  1  0  0  0  0
 45 98  1  0  0  0  0
 45 99  1  0  0  0  0
 45100  1  0  0  0  0
 46104  1  0  0  0  0
 46105  1  0  0  0  0
 48106  1  0  0  0  0
 48107  1  0  0  0  0
 48108  1  0  0  0  0
 49109  1  0  0  0  0
 49110  1  0  0  0  0
 49111  1  0  0  0  0
 50 51  1  0  0  0  0
 50112  1  0  0  0  0
 51 53  1  0  0  0  0
 51113  1  0  0  0  0
 52 56  1  0  0  0  0
 52114  1  0  0  0  0
 53 55  1  0  0  0  0
 53115  1  0  0  0  0
 54 55  1  0  0  0  0
 54 60  1  0  0  0  0
 54116  1  0  0  0  0
 55117  1  0  0  0  0
 56 57  1  0  0  0  0
 56118  1  0  0  0  0
 57 59  1  0  0  0  0
 57120  1  0  0  0  0
 58 59  1  0  0  0  0
 58 61  1  0  0  0  0
 58121  1  0  0  0  0
 59122  1  0  0  0  0
 61125  1  0  0  0  0
 61126  1  0  0  0  0
 62 63  1  0  0  0  0
 62127  1  0  0  0  0
 64 65  1  0  0  0  0
 64132  1  0  0  0  0
 64133  1  0  0  0  0
M  END
>  <PUBCHEM_COMPOUND_CID>
85118552

>  <PUBCHEM_COMPOUND_CANONICALIZED>
1

>  <PUBCHEM_CACTVS_COMPLEXITY>
1870

>  <PUBCHEM_CACTVS_HBOND_ACCEPTOR>
19

>  <PUBCHEM_CACTVS_HBOND_DONOR>
9

>  <PUBCHEM_CACTVS_ROTATABLE_BOND>
13

>  <PUBCHEM_CACTVS_SUBSKEYS>
AAADcfB8PgAAAAAAAAAAAAAAAAAAAAAAAAA0aMGCAAAAAADAAAAAGgAACAAADxSwgAMCCAAABgCIAiDSCAIAAAAgAAAACAFAAAgREBYAAQQiQAAFoAAPAAPK7PzPgAAAAAAAAADAAAYAADAAAAAAAAAAAA==

>  <PUBCHEM_IUPAC_OPENEYE_NAME>
6-[[4,4,6a,6b,11,11,14b-heptamethyl-8a-[3,4,5-trihydroxy-6-(hydroxymethyl)tetrahydropyran-2-yl]oxycarbonyl-1,2,3,4a,5,6,7,8,9,10,12,12a,14,14a-tetradecahydropicen-3-yl]oxy]-4-[carboxy(carboxymethoxy)methoxy]-3,5-dihydroxy-tetrahydropyran-2-carboxylic acid

>  <PUBCHEM_IUPAC_CAS_NAME>
6-[[4,4,6a,6b,11,11,14b-heptamethyl-8a-[oxo-[[3,4,5-trihydroxy-6-(hydroxymethyl)-2-oxanyl]oxy]methyl]-1,2,3,4a,5,6,7,8,9,10,12,12a,14,14a-tetradecahydropicen-3-yl]oxy]-4-[carboxy(carboxymethoxy)methoxy]-3,5-dihydroxy-2-oxanecarboxylic acid

>  <PUBCHEM_IUPAC_NAME>
6-[[4,4,6a,6b,11,11,14b-heptamethyl-8a-[3,4,5-trihydroxy-6-(hydroxymethyl)oxan-2-yl]oxycarbonyl-1,2,3,4a,5,6,7,8,9,10,12,12a,14,14a-tetradecahydropicen-3-yl]oxy]-4-[carboxy(carboxymethoxy)methoxy]-3,5-dihydroxyoxane-2-carboxylic acid

>  <PUBCHEM_IUPAC_SYSTEMATIC_NAME>
6-[[8a-[6-(hydroxymethyl)-3,4,5-tris(oxidanyl)oxan-2-yl]oxycarbonyl-4,4,6a,6b,11,11,14b-heptamethyl-1,2,3,4a,5,6,7,8,9,10,12,12a,14,14a-tetradecahydropicen-3-yl]oxy]-4-[1-(2-hydroxy-2-oxoethyloxy)-2-oxidanyl-2-oxidanylidene-ethoxy]-3,5-bis(oxidanyl)oxane-2-carboxylic acid

>  <PUBCHEM_IUPAC_TRADITIONAL_NAME>
6-[[4,4,6a,6b,11,11,14b-heptamethyl-8a-(3,4,5-trihydroxy-6-methylol-tetrahydropyran-2-yl)oxycarbonyl-1,2,3,4a,5,6,7,8,9,10,12,12a,14,14a-tetradecahydropicen-3-yl]oxy]-4-[carboxy(carboxymethoxy)methoxy]-3,5-dihydroxy-tetrahydropyran-2-carboxylic acid

>  <PUBCHEM_IUPAC_INCHI>
InChI=1S/C46H70O19/c1-41(2)14-16-46(40(59)65-37-30(52)29(51)28(50)23(19-47)61-37)17-15-44(6)21(22(46)18-41)8-9-25-43(5)12-11-26(42(3,4)24(43)10-13-45(25,44)7)62-38-32(54)33(31(53)34(64-38)35(55)56)63-39(36(57)58)60-20-27(48)49/h8,22-26,28-34,37-39,47,50-54H,9-20H2,1-7H3,(H,48,49)(H,55,56)(H,57,58)

>  <PUBCHEM_IUPAC_INCHIKEY>
DVEJWYUSLPQXTD-UHFFFAOYSA-N

>  <PUBCHEM_XLOGP3_AA>
4

>  <PUBCHEM_EXACT_MASS>
926.451

>  <PUBCHEM_MOLECULAR_FORMULA>
C46H70O19

>  <PUBCHEM_MOLECULAR_WEIGHT>
927.047

>  <PUBCHEM_OPENEYE_CAN_SMILES>
CC1(CCC2(CCC3(C(=CCC4C3(CCC5C4(CCC(C5(C)C)OC6C(C(C(C(O6)C(=O)O)O)OC(C(=O)O)OCC(=O)O)O)C)C)C2C1)C)C(=O)OC7C(C(C(C(O7)CO)O)O)O)C

>  <PUBCHEM_OPENEYE_ISO_SMILES>
CC1(CCC2(CCC3(C(=CCC4C3(CCC5C4(CCC(C5(C)C)OC6C(C(C(C(O6)C(=O)O)O)OC(C(=O)O)OCC(=O)O)O)C)C)C2C1)C)C(=O)OC7C(C(C(C(O7)CO)O)O)O)C

>  <PUBCHEM_CACTVS_TPSA>
306

>  <PUBCHEM_MONOISOTOPIC_WEIGHT>
926.451

>  <PUBCHEM_TOTAL_CHARGE>
0

>  <PUBCHEM_HEAVY_ATOM_COUNT>
65

>  <PUBCHEM_ATOM_DEF_STEREO_COUNT>
0

>  <PUBCHEM_ATOM_UDEF_STEREO_COUNT>
19

>  <PUBCHEM_BOND_DEF_STEREO_COUNT>
0

>  <PUBCHEM_BOND_UDEF_STEREO_COUNT>
0

>  <PUBCHEM_ISOTOPIC_ATOM_COUNT>
0

>  <PUBCHEM_COMPONENT_COUNT>
1

>  <PUBCHEM_CACTVS_TAUTO_COUNT>
1

>  <PUBCHEM_COORDINATE_TYPE>
1
5
255

>  <PUBCHEM_BONDANNOTATIONS>
35  1  3
50  1  3
57  10  3
59  11  3
52  2  3
20  34  3
21  30  3
22  37  3
23  40  3
24  27  3
29  41  3
33  47  3
54  60  3
58  61  3
51  6  3
62  63  3
53  7  3
55  8  3
56  9  3

$$$$
