85120804
 OpenBabel06101807152D

 38 42  0  0  1  0  0  0  0  0999 V2000
    6.2719   -1.2287    0.0000 O   0  0  0  0  0  0  0  0  0  0  0  0
    6.4811    1.7431    0.0000 O   0  0  0  0  0  0  0  0  0  0  0  0
    4.7490    0.7431    0.0000 O   0  0  0  0  0  0  0  0  0  0  0  0
    2.2123   -1.2454    0.0000 O   0  0  0  0  0  0  0  0  0  0  0  0
    2.8914   -2.7673    0.0000 O   0  0  0  0  0  0  0  0  0  0  0  0
   10.0112    1.7673    0.0000 O   0  0  0  0  0  0  0  0  0  0  0  0
   10.0112   -0.2810    0.0000 O   0  0  0  0  0  0  0  0  0  0  0  0
    5.6151    0.2431    0.0000 C   0  0  3  0  0  0  0  0  0  0  0  0
    6.4811   -0.2569    0.0000 C   0  0  3  0  0  0  0  0  0  0  0  0
    4.8780   -0.4240    0.0000 C   0  0  0  0  0  0  0  0  0  0  0  0
    5.6151    1.2431    0.0000 C   0  0  0  0  0  0  0  0  0  0  0  0
    7.3471    0.2431    0.0000 C   0  0  0  0  0  0  0  0  0  0  0  0
    5.2832   -1.3317    0.0000 C   0  0  0  0  0  0  0  0  0  0  0  0
    7.3471    1.2431    0.0000 C   0  0  0  0  0  0  0  0  0  0  0  0
    3.8499   -0.3007    0.0000 C   0  0  0  0  0  0  0  0  0  0  0  0
    4.6882   -2.1792    0.0000 C   0  0  0  0  0  0  0  0  0  0  0  0
    8.2410   -0.2915    0.0000 C   0  0  0  0  0  0  0  0  0  0  0  0
    3.2356   -1.1343    0.0000 C   0  0  0  0  0  0  0  0  0  0  0  0
    3.6576   -2.0798    0.0000 C   0  0  0  0  0  0  0  0  0  0  0  0
    8.2410    1.7778    0.0000 C   0  0  0  0  0  0  0  0  0  0  0  0
    9.1471    0.2223    0.0000 C   0  0  0  0  0  0  0  0  0  0  0  0
    9.1471    1.2639    0.0000 C   0  0  0  0  0  0  0  0  0  0  0  0
    2.0000   -2.2526    0.0000 C   0  0  0  0  0  0  0  0  0  0  0  0
   10.0074    2.7673    0.0000 C   0  0  0  0  0  0  0  0  0  0  0  0
    6.9822   -0.6219    0.0000 H   0  0  0  0  0  0  0  0  0  0  0  0
    5.4030    1.8257    0.0000 H   0  0  0  0  0  0  0  0  0  0  0  0
    5.0045    1.1355    0.0000 H   0  0  0  0  0  0  0  0  0  0  0  0
    3.6038    0.2683    0.0000 H   0  0  0  0  0  0  0  0  0  0  0  0
    4.7490    1.3631    0.0000 H   0  0  0  0  0  0  0  0  0  0  0  0
    4.9474   -2.7425    0.0000 H   0  0  0  0  0  0  0  0  0  0  0  0
    8.2339   -0.9115    0.0000 H   0  0  0  0  0  0  0  0  0  0  0  0
    8.2339    2.3978    0.0000 H   0  0  0  0  0  0  0  0  0  0  0  0
    1.4101   -2.0617    0.0000 H   0  0  0  0  0  0  0  0  0  0  0  0
    1.7482   -2.8192    0.0000 H   0  0  0  0  0  0  0  0  0  0  0  0
   10.0088   -0.9010    0.0000 H   0  0  0  0  0  0  0  0  0  0  0  0
   10.6273    2.7697    0.0000 H   0  0  0  0  0  0  0  0  0  0  0  0
   10.0050    3.3873    0.0000 H   0  0  0  0  0  0  0  0  0  0  0  0
    9.3874    2.7649    0.0000 H   0  0  0  0  0  0  0  0  0  0  0  0
  1  9  1  0  0  0  0
  1 13  1  0  0  0  0
  2 11  1  0  0  0  0
  2 14  1  0  0  0  0
  3  8  1  0  0  0  0
  3 29  1  0  0  0  0
  4 18  1  0  0  0  0
  4 23  1  0  0  0  0
  5 19  1  0  0  0  0
  5 23  1  0  0  0  0
  6 22  1  0  0  0  0
  6 24  1  0  0  0  0
  7 21  1  0  0  0  0
  7 35  1  0  0  0  0
  8  9  1  0  0  0  0
  8 10  1  0  0  0  0
  8 11  1  0  0  0  0
  9 12  1  0  0  0  0
  9 25  1  0  0  0  0
 10 13  1  0  0  0  0
 10 15  2  0  0  0  0
 11 26  1  0  0  0  0
 11 27  1  0  0  0  0
 12 14  1  0  0  0  0
 12 17  2  0  0  0  0
 13 16  2  0  0  0  0
 14 20  2  0  0  0  0
 15 18  1  0  0  0  0
 15 28  1  0  0  0  0
 16 19  1  0  0  0  0
 16 30  1  0  0  0  0
 17 21  1  0  0  0  0
 17 31  1  0  0  0  0
 18 19  2  0  0  0  0
 20 22  1  0  0  0  0
 20 32  1  0  0  0  0
 21 22  2  0  0  0  0
 23 33  1  0  0  0  0
 23 34  1  0  0  0  0
 24 36  1  0  0  0  0
 24 37  1  0  0  0  0
 24 38  1  0  0  0  0
M  END
>  <PUBCHEM_COMPOUND_CID>
85120804

>  <PUBCHEM_COMPOUND_CANONICALIZED>
1

>  <PUBCHEM_CACTVS_COMPLEXITY>
501

>  <PUBCHEM_CACTVS_HBOND_ACCEPTOR>
7

>  <PUBCHEM_CACTVS_HBOND_DONOR>
2

>  <PUBCHEM_CACTVS_ROTATABLE_BOND>
1

>  <PUBCHEM_CACTVS_SUBSKEYS>
AAADccB4OAAAAAAAAAAAAAAAAAAAASJAAAA0YIAAAAAAAEiRQAAAGgAACAAADFSgmAMyDoAABgCAAiBCAAACCAAgIAAAiAAGiIgdJyKGMRqieCOlwBUPuAfA4PwOoQABCAAIQABCAAIQABCAAAAAAAAAAA==

>  <PUBCHEM_IUPAC_INCHI>
InChI=1S/C17H14O7/c1-20-13-4-11-8(2-10(13)18)16-17(19,6-21-11)9-3-14-15(23-7-22-14)5-12(9)24-16/h2-5,16,18-19H,6-7H2,1H3

>  <PUBCHEM_IUPAC_INCHIKEY>
PAURLKLZDUKKLK-UHFFFAOYSA-N

>  <PUBCHEM_XLOGP3_AA>
1.3

>  <PUBCHEM_EXACT_MASS>
330.074

>  <PUBCHEM_MOLECULAR_FORMULA>
C17H14O7

>  <PUBCHEM_MOLECULAR_WEIGHT>
330.292

>  <PUBCHEM_OPENEYE_CAN_SMILES>
COC1=C(C=C2C3C(COC2=C1)(C4=CC5=C(C=C4O3)OCO5)O)O

>  <PUBCHEM_OPENEYE_ISO_SMILES>
COC1=C(C=C2C3C(COC2=C1)(C4=CC5=C(C=C4O3)OCO5)O)O

>  <PUBCHEM_CACTVS_TPSA>
86.6

>  <PUBCHEM_MONOISOTOPIC_WEIGHT>
330.074

>  <PUBCHEM_TOTAL_CHARGE>
0

>  <PUBCHEM_HEAVY_ATOM_COUNT>
24

>  <PUBCHEM_ATOM_DEF_STEREO_COUNT>
0

>  <PUBCHEM_ATOM_UDEF_STEREO_COUNT>
2

>  <PUBCHEM_BOND_DEF_STEREO_COUNT>
0

>  <PUBCHEM_BOND_UDEF_STEREO_COUNT>
0

>  <PUBCHEM_ISOTOPIC_ATOM_COUNT>
0

>  <PUBCHEM_COMPONENT_COUNT>
1

>  <PUBCHEM_CACTVS_TAUTO_COUNT>
3

>  <PUBCHEM_COORDINATE_TYPE>
1
5
255

>  <PUBCHEM_BONDANNOTATIONS>
9  1  3
10  13  8
10  15  8
12  14  8
12  17  8
13  16  8
14  20  8
15  18  8
16  19  8
17  21  8
18  19  8
20  22  8
21  22  8
8  3  3

$$$$
