85125594
 OpenBabel06101807152D

197202  0  0  1  0  0  0  0  0999 V2000
   19.3205   -2.1346    0.0000 O   0  0  0  0  0  0  0  0  0  0  0  0
   17.5885   -2.1346    0.0000 O   0  0  0  0  0  0  0  0  0  0  0  0
   17.5885   -5.1346    0.0000 O   0  0  0  0  0  0  0  0  0  0  0  0
   15.8564   -4.1346    0.0000 O   0  0  0  0  0  0  0  0  0  0  0  0
   18.4325    0.4313    0.0000 O   0  0  0  0  0  0  0  0  0  0  0  0
   19.3205   -4.1346    0.0000 O   0  0  0  0  0  0  0  0  0  0  0  0
   19.3483    1.9346    0.0000 O   0  0  0  0  0  0  0  0  0  0  0  0
   14.1244   -4.1346    0.0000 O   0  0  0  0  0  0  0  0  0  0  0  0
   15.8564   -5.1346    0.0000 O   0  0  0  0  0  0  0  0  0  0  0  0
   21.0765    0.9279    0.0000 O   0  0  0  0  0  0  0  0  0  0  0  0
   21.0904   -1.1036    0.0000 O   0  0  0  0  0  0  0  0  0  0  0  0
   17.5962    3.9760    0.0000 O   0  0  0  0  0  0  0  0  0  0  0  0
   19.3560    3.9346    0.0000 O   0  0  0  0  0  0  0  0  0  0  0  0
   15.3324   -1.6949    0.0000 O   0  0  0  0  0  0  0  0  0  0  0  0
   17.5885   -7.1346    0.0000 O   0  0  0  0  0  0  0  0  0  0  0  0
   12.3923   -2.1346    0.0000 O   0  0  0  0  0  0  0  0  0  0  0  0
   17.5959    0.9068    0.0000 O   0  0  0  0  0  0  0  0  0  0  0  0
   14.1244   -1.1346    0.0000 O   0  0  0  0  0  0  0  0  0  0  0  0
   15.8564   -8.1346    0.0000 O   0  0  0  0  0  0  0  0  0  0  0  0
   14.1244   -7.1346    0.0000 O   0  0  0  0  0  0  0  0  0  0  0  0
   15.8181    1.9241    0.0000 O   0  0  0  0  0  0  0  0  0  0  0  0
   20.1865   -2.6346    0.0000 O   0  0  0  0  0  0  0  0  0  0  0  0
   21.9367   -0.5754    0.0000 O   0  0  0  0  0  0  0  0  0  0  0  0
   11.5263   -3.6346    0.0000 O   0  0  0  0  0  0  0  0  0  0  0  0
   17.5885   -4.1346    0.0000 C   0  0  3  0  0  0  0  0  0  0  0  0
   16.7224   -3.6346    0.0000 C   0  0  3  0  0  0  0  0  0  0  0  0
   18.4545   -3.6346    0.0000 C   0  0  3  0  0  0  0  0  0  0  0  0
   18.4545   -2.6346    0.0000 C   0  0  3  0  0  0  0  0  0  0  0  0
   19.3205   -1.1346    0.0000 C   0  0  3  0  0  0  0  0  0  0  0  0
   16.7224   -2.6346    0.0000 C   0  0  3  0  0  0  0  0  0  0  0  0
   20.2206   -0.6103    0.0000 C   0  0  3  0  0  0  0  0  0  0  0  0
   18.4204   -0.6103    0.0000 C   0  0  3  0  0  0  0  0  0  0  0  0
   20.2085    0.4313    0.0000 C   0  0  3  0  0  0  0  0  0  0  0  0
   19.3444    0.9346    0.0000 C   0  0  3  0  0  0  0  0  0  0  0  0
   14.9904   -3.6346    0.0000 C   0  0  3  0  0  0  0  0  0  0  0  0
   16.7224   -5.6346    0.0000 C   0  0  3  0  0  0  0  0  0  0  0  0
   18.4842    2.4379    0.0000 C   0  0  3  0  0  0  0  0  0  0  0  0
   14.9904   -2.6346    0.0000 C   0  0  3  0  0  0  0  0  0  0  0  0
   16.7224   -6.6346    0.0000 C   0  0  3  0  0  0  0  0  0  0  0  0
   15.8564   -2.1346    0.0000 C   0  0  0  0  0  0  0  0  0  0  0  0
   17.5882    1.9067    0.0000 C   0  0  3  0  0  0  0  0  0  0  0  0
   14.1244   -2.1346    0.0000 C   0  0  3  0  0  0  0  0  0  0  0  0
   15.8564   -7.1346    0.0000 C   0  0  3  0  0  0  0  0  0  0  0  0
   18.4881    3.4379    0.0000 C   0  0  3  0  0  0  0  0  0  0  0  0
   13.2583   -2.6346    0.0000 C   0  0  3  0  0  0  0  0  0  0  0  0
   13.2583   -3.6346    0.0000 C   0  0  3  0  0  0  0  0  0  0  0  0
   14.9904   -6.6346    0.0000 C   0  0  3  0  0  0  0  0  0  0  0  0
   17.5506   -1.1036    0.0000 C   0  0  0  0  0  0  0  0  0  0  0  0
   16.6841    2.4241    0.0000 C   0  0  3  0  0  0  0  0  0  0  0  0
   14.9904   -5.6346    0.0000 C   0  0  3  0  0  0  0  0  0  0  0  0
   16.6881    3.4657    0.0000 C   0  0  3  0  0  0  0  0  0  0  0  0
   20.1865   -3.6346    0.0000 C   0  0  0  0  0  0  0  0  0  0  0  0
   19.3599    4.9346    0.0000 C   0  0  3  0  0  0  0  0  0  0  0  0
   12.3923   -4.1346    0.0000 C   0  0  0  0  0  0  0  0  0  0  0  0
   14.1244   -5.1346    0.0000 C   0  0  0  0  0  0  0  0  0  0  0  0
   21.0526   -4.1346    0.0000 C   0  0  3  0  0  0  0  0  0  0  0  0
   15.8260    3.9724    0.0000 C   0  0  0  0  0  0  0  0  0  0  0  0
   20.2278    5.4312    0.0000 C   0  0  0  0  0  0  0  0  0  0  0  0
   21.9406    0.4246    0.0000 C   0  0  0  0  0  0  0  0  0  0  0  0
   18.4958    5.4379    0.0000 C   0  0  0  0  0  0  0  0  0  0  0  0
   21.0919    4.9279    0.0000 C   0  0  0  0  0  0  0  0  0  0  0  0
   22.8085    0.9213    0.0000 C   0  0  0  0  0  0  0  0  0  0  0  0
   21.0526   -5.1346    0.0000 C   0  0  0  0  0  0  0  0  0  0  0  0
   18.4996    6.4379    0.0000 C   0  0  0  0  0  0  0  0  0  0  0  0
   21.9186   -3.6346    0.0000 C   0  0  0  0  0  0  0  0  0  0  0  0
   21.9598    5.4246    0.0000 C   0  0  0  0  0  0  0  0  0  0  0  0
   22.8124    1.9212    0.0000 C   0  0  0  0  0  0  0  0  0  0  0  0
   11.5263   -2.6346    0.0000 C   0  0  0  0  0  0  0  0  0  0  0  0
   22.8239    4.9212    0.0000 C   0  0  0  0  0  0  0  0  0  0  0  0
   23.6803    2.4179    0.0000 C   0  0  0  0  0  0  0  0  0  0  0  0
   17.6355    6.9412    0.0000 C   0  0  0  0  0  0  0  0  0  0  0  0
   22.8201    3.9212    0.0000 C   0  0  0  0  0  0  0  0  0  0  0  0
   23.6842    3.4179    0.0000 C   0  0  0  0  0  0  0  0  0  0  0  0
   10.6603   -2.1346    0.0000 C   0  0  0  0  0  0  0  0  0  0  0  0
   21.9186   -5.6346    0.0000 C   0  0  0  0  0  0  0  0  0  0  0  0
    9.7942   -2.6346    0.0000 C   0  0  0  0  0  0  0  0  0  0  0  0
   17.6394    7.9412    0.0000 C   0  0  0  0  0  0  0  0  0  0  0  0
    8.9282   -2.1346    0.0000 C   0  0  0  0  0  0  0  0  0  0  0  0
   16.7753    8.4446    0.0000 C   0  0  0  0  0  0  0  0  0  0  0  0
    8.0622   -2.6346    0.0000 C   0  0  0  0  0  0  0  0  0  0  0  0
    7.1962   -2.1346    0.0000 C   0  0  0  0  0  0  0  0  0  0  0  0
    6.3301   -2.6346    0.0000 C   0  0  0  0  0  0  0  0  0  0  0  0
    5.4641   -2.1346    0.0000 C   0  0  0  0  0  0  0  0  0  0  0  0
    4.5981   -2.6346    0.0000 C   0  0  0  0  0  0  0  0  0  0  0  0
    3.7320   -2.1346    0.0000 C   0  0  0  0  0  0  0  0  0  0  0  0
    2.8660   -2.6346    0.0000 C   0  0  0  0  0  0  0  0  0  0  0  0
    2.0000   -2.1346    0.0000 C   0  0  0  0  0  0  0  0  0  0  0  0
   18.1254   -4.4446    0.0000 H   0  0  0  0  0  0  0  0  0  0  0  0
   16.1855   -3.3246    0.0000 H   0  0  0  0  0  0  0  0  0  0  0  0
   18.9914   -3.3246    0.0000 H   0  0  0  0  0  0  0  0  0  0  0  0
   18.4545   -2.0146    0.0000 H   0  0  0  0  0  0  0  0  0  0  0  0
   19.8580   -1.4435    0.0000 H   0  0  0  0  0  0  0  0  0  0  0  0
   16.7224   -2.0146    0.0000 H   0  0  0  0  0  0  0  0  0  0  0  0
   20.7545   -0.2951    0.0000 H   0  0  0  0  0  0  0  0  0  0  0  0
   17.8865   -0.2951    0.0000 H   0  0  0  0  0  0  0  0  0  0  0  0
   20.7467    0.1234    0.0000 H   0  0  0  0  0  0  0  0  0  0  0  0
   18.8111    1.2508    0.0000 H   0  0  0  0  0  0  0  0  0  0  0  0
   15.5273   -3.3246    0.0000 H   0  0  0  0  0  0  0  0  0  0  0  0
   16.7224   -5.0146    0.0000 H   0  0  0  0  0  0  0  0  0  0  0  0
   18.4866    1.8179    0.0000 H   0  0  0  0  0  0  0  0  0  0  0  0
   15.6010   -2.7422    0.0000 H   0  0  0  0  0  0  0  0  0  0  0  0
   16.7224   -7.2546    0.0000 H   0  0  0  0  0  0  0  0  0  0  0  0
   16.1664   -1.5976    0.0000 H   0  0  0  0  0  0  0  0  0  0  0  0
   15.3195   -1.8246    0.0000 H   0  0  0  0  0  0  0  0  0  0  0  0
   15.5464   -2.6715    0.0000 H   0  0  0  0  0  0  0  0  0  0  0  0
   18.1281    1.6019    0.0000 H   0  0  0  0  0  0  0  0  0  0  0  0
   13.5874   -1.8246    0.0000 H   0  0  0  0  0  0  0  0  0  0  0  0
   18.4952    4.0579    0.0000 H   0  0  0  0  0  0  0  0  0  0  0  0
   15.3195   -7.4446    0.0000 H   0  0  0  0  0  0  0  0  0  0  0  0
   13.7953   -2.9446    0.0000 H   0  0  0  0  0  0  0  0  0  0  0  0
   13.2583   -4.2546    0.0000 H   0  0  0  0  0  0  0  0  0  0  0  0
   14.4534   -6.3246    0.0000 H   0  0  0  0  0  0  0  0  0  0  0  0
   17.2447   -0.5643    0.0000 H   0  0  0  0  0  0  0  0  0  0  0  0
   17.0113   -1.4094    0.0000 H   0  0  0  0  0  0  0  0  0  0  0  0
   17.8564   -1.6429    0.0000 H   0  0  0  0  0  0  0  0  0  0  0  0
   16.6853    1.8041    0.0000 H   0  0  0  0  0  0  0  0  0  0  0  0
   14.9904   -5.0146    0.0000 H   0  0  0  0  0  0  0  0  0  0  0  0
   16.6941    4.0857    0.0000 H   0  0  0  0  0  0  0  0  0  0  0  0
   21.0952   -1.7236    0.0000 H   0  0  0  0  0  0  0  0  0  0  0  0
   18.8217    4.6267    0.0000 H   0  0  0  0  0  0  0  0  0  0  0  0
   12.0823   -3.5976    0.0000 H   0  0  0  0  0  0  0  0  0  0  0  0
   11.8554   -4.4446    0.0000 H   0  0  0  0  0  0  0  0  0  0  0  0
   12.7023   -4.6715    0.0000 H   0  0  0  0  0  0  0  0  0  0  0  0
   14.4344   -4.5976    0.0000 H   0  0  0  0  0  0  0  0  0  0  0  0
   13.5874   -4.8246    0.0000 H   0  0  0  0  0  0  0  0  0  0  0  0
   13.8144   -5.6715    0.0000 H   0  0  0  0  0  0  0  0  0  0  0  0
   21.0526   -3.5146    0.0000 H   0  0  0  0  0  0  0  0  0  0  0  0
   16.1401    4.5069    0.0000 H   0  0  0  0  0  0  0  0  0  0  0  0
   15.2915    4.2865    0.0000 H   0  0  0  0  0  0  0  0  0  0  0  0
   15.5119    3.4378    0.0000 H   0  0  0  0  0  0  0  0  0  0  0  0
   14.9339   -1.2199    0.0000 H   0  0  0  0  0  0  0  0  0  0  0  0
   17.5885   -7.7546    0.0000 H   0  0  0  0  0  0  0  0  0  0  0  0
   20.6282    5.9046    0.0000 H   0  0  0  0  0  0  0  0  0  0  0  0
   19.8311    5.9077    0.0000 H   0  0  0  0  0  0  0  0  0  0  0  0
   17.0614    0.5926    0.0000 H   0  0  0  0  0  0  0  0  0  0  0  0
   13.5874   -0.8246    0.0000 H   0  0  0  0  0  0  0  0  0  0  0  0
   17.8856    5.5479    0.0000 H   0  0  0  0  0  0  0  0  0  0  0  0
   18.2815    4.8561    0.0000 H   0  0  0  0  0  0  0  0  0  0  0  0
   15.3195   -8.4446    0.0000 H   0  0  0  0  0  0  0  0  0  0  0  0
   15.2812    2.2341    0.0000 H   0  0  0  0  0  0  0  0  0  0  0  0
   13.5874   -6.8246    0.0000 H   0  0  0  0  0  0  0  0  0  0  0  0
   20.6915    4.4545    0.0000 H   0  0  0  0  0  0  0  0  0  0  0  0
   21.4886    4.4514    0.0000 H   0  0  0  0  0  0  0  0  0  0  0  0
   23.0183    0.3378    0.0000 H   0  0  0  0  0  0  0  0  0  0  0  0
   23.4195    1.0266    0.0000 H   0  0  0  0  0  0  0  0  0  0  0  0
   20.4420   -5.0269    0.0000 H   0  0  0  0  0  0  0  0  0  0  0  0
   20.8405   -5.7172    0.0000 H   0  0  0  0  0  0  0  0  0  0  0  0
   19.1098    6.3279    0.0000 H   0  0  0  0  0  0  0  0  0  0  0  0
   18.7139    7.0197    0.0000 H   0  0  0  0  0  0  0  0  0  0  0  0
   22.2286   -4.1715    0.0000 H   0  0  0  0  0  0  0  0  0  0  0  0
   22.4555   -3.3246    0.0000 H   0  0  0  0  0  0  0  0  0  0  0  0
   21.6086   -3.0976    0.0000 H   0  0  0  0  0  0  0  0  0  0  0  0
   22.3602    5.8980    0.0000 H   0  0  0  0  0  0  0  0  0  0  0  0
   21.5631    5.9010    0.0000 H   0  0  0  0  0  0  0  0  0  0  0  0
   22.6026    2.5047    0.0000 H   0  0  0  0  0  0  0  0  0  0  0  0
   22.2014    1.8160    0.0000 H   0  0  0  0  0  0  0  0  0  0  0  0
   23.4341    4.8112    0.0000 H   0  0  0  0  0  0  0  0  0  0  0  0
   23.0382    5.5030    0.0000 H   0  0  0  0  0  0  0  0  0  0  0  0
   23.8901    1.8345    0.0000 H   0  0  0  0  0  0  0  0  0  0  0  0
   24.2913    2.5232    0.0000 H   0  0  0  0  0  0  0  0  0  0  0  0
   17.0254    7.0513    0.0000 H   0  0  0  0  0  0  0  0  0  0  0  0
   17.4212    6.3595    0.0000 H   0  0  0  0  0  0  0  0  0  0  0  0
   22.2099    4.0312    0.0000 H   0  0  0  0  0  0  0  0  0  0  0  0
   22.6058    3.3394    0.0000 H   0  0  0  0  0  0  0  0  0  0  0  0
   24.2943    3.3079    0.0000 H   0  0  0  0  0  0  0  0  0  0  0  0
   23.8985    3.9997    0.0000 H   0  0  0  0  0  0  0  0  0  0  0  0
   11.0588   -1.6596    0.0000 H   0  0  0  0  0  0  0  0  0  0  0  0
   10.2617   -1.6596    0.0000 H   0  0  0  0  0  0  0  0  0  0  0  0
   21.6086   -6.1715    0.0000 H   0  0  0  0  0  0  0  0  0  0  0  0
   22.4555   -5.9446    0.0000 H   0  0  0  0  0  0  0  0  0  0  0  0
   22.2286   -5.0976    0.0000 H   0  0  0  0  0  0  0  0  0  0  0  0
    9.3957   -3.1095    0.0000 H   0  0  0  0  0  0  0  0  0  0  0  0
   10.1928   -3.1095    0.0000 H   0  0  0  0  0  0  0  0  0  0  0  0
   18.2495    7.8312    0.0000 H   0  0  0  0  0  0  0  0  0  0  0  0
   17.8537    8.5230    0.0000 H   0  0  0  0  0  0  0  0  0  0  0  0
    9.3267   -1.6596    0.0000 H   0  0  0  0  0  0  0  0  0  0  0  0
    8.5297   -1.6596    0.0000 H   0  0  0  0  0  0  0  0  0  0  0  0
   17.0874    8.9803    0.0000 H   0  0  0  0  0  0  0  0  0  0  0  0
   16.2396    8.7566    0.0000 H   0  0  0  0  0  0  0  0  0  0  0  0
   16.4632    7.9088    0.0000 H   0  0  0  0  0  0  0  0  0  0  0  0
    7.6636   -3.1095    0.0000 H   0  0  0  0  0  0  0  0  0  0  0  0
    8.4607   -3.1095    0.0000 H   0  0  0  0  0  0  0  0  0  0  0  0
    7.5947   -1.6596    0.0000 H   0  0  0  0  0  0  0  0  0  0  0  0
    6.7976   -1.6596    0.0000 H   0  0  0  0  0  0  0  0  0  0  0  0
    5.9316   -3.1095    0.0000 H   0  0  0  0  0  0  0  0  0  0  0  0
    6.7287   -3.1095    0.0000 H   0  0  0  0  0  0  0  0  0  0  0  0
    5.8626   -1.6596    0.0000 H   0  0  0  0  0  0  0  0  0  0  0  0
    5.0656   -1.6596    0.0000 H   0  0  0  0  0  0  0  0  0  0  0  0
    4.1996   -3.1095    0.0000 H   0  0  0  0  0  0  0  0  0  0  0  0
    4.9966   -3.1095    0.0000 H   0  0  0  0  0  0  0  0  0  0  0  0
    4.1306   -1.6596    0.0000 H   0  0  0  0  0  0  0  0  0  0  0  0
    3.3335   -1.6596    0.0000 H   0  0  0  0  0  0  0  0  0  0  0  0
    2.4675   -3.1095    0.0000 H   0  0  0  0  0  0  0  0  0  0  0  0
    3.2646   -3.1095    0.0000 H   0  0  0  0  0  0  0  0  0  0  0  0
    2.3100   -1.5976    0.0000 H   0  0  0  0  0  0  0  0  0  0  0  0
    1.4631   -1.8246    0.0000 H   0  0  0  0  0  0  0  0  0  0  0  0
    1.6900   -2.6715    0.0000 H   0  0  0  0  0  0  0  0  0  0  0  0
  1 28  1  0  0  0  0
  1 29  1  0  0  0  0
  2 28  1  0  0  0  0
  2 30  1  0  0  0  0
  3 25  1  0  0  0  0
  3 36  1  0  0  0  0
  4 26  1  0  0  0  0
  4 35  1  0  0  0  0
  5 32  1  0  0  0  0
  5 34  1  0  0  0  0
  6 27  1  0  0  0  0
  6 52  1  0  0  0  0
  7 34  1  0  0  0  0
  7 37  1  0  0  0  0
  8 35  1  0  0  0  0
  8 46  1  0  0  0  0
  9 36  1  0  0  0  0
  9 50  1  0  0  0  0
 10 33  1  0  0  0  0
 10 59  1  0  0  0  0
 11 31  1  0  0  0  0
 11119  1  0  0  0  0
 12 44  1  0  0  0  0
 12 51  1  0  0  0  0
 13 44  1  0  0  0  0
 13 53  1  0  0  0  0
 14 38  1  0  0  0  0
 14131  1  0  0  0  0
 15 39  1  0  0  0  0
 15132  1  0  0  0  0
 16 45  1  0  0  0  0
 16 68  1  0  0  0  0
 17 41  1  0  0  0  0
 17135  1  0  0  0  0
 18 42  1  0  0  0  0
 18136  1  0  0  0  0
 19 43  1  0  0  0  0
 19139  1  0  0  0  0
 20 47  1  0  0  0  0
 20141  1  0  0  0  0
 21 49  1  0  0  0  0
 21140  1  0  0  0  0
 22 52  2  0  0  0  0
 23 59  2  0  0  0  0
 24 68  2  0  0  0  0
 25 26  1  0  0  0  0
 25 27  1  0  0  0  0
 25 88  1  0  0  0  0
 26 30  1  0  0  0  0
 26 89  1  0  0  0  0
 27 28  1  0  0  0  0
 27 90  1  0  0  0  0
 28 91  1  0  0  0  0
 29 31  1  0  0  0  0
 29 32  1  0  0  0  0
 29 92  1  0  0  0  0
 30 40  1  0  0  0  0
 30 93  1  0  0  0  0
 31 33  1  0  0  0  0
 31 94  1  0  0  0  0
 32 48  1  0  0  0  0
 32 95  1  0  0  0  0
 33 34  1  0  0  0  0
 33 96  1  0  0  0  0
 34 97  1  0  0  0  0
 35 38  1  0  0  0  0
 35 98  1  0  0  0  0
 36 39  1  0  0  0  0
 36 99  1  0  0  0  0
 37 41  1  0  0  0  0
 37 44  1  0  0  0  0
 37100  1  0  0  0  0
 38 42  1  0  0  0  0
 38101  1  0  0  0  0
 39 43  1  0  0  0  0
 39102  1  0  0  0  0
 40103  1  0  0  0  0
 40104  1  0  0  0  0
 40105  1  0  0  0  0
 41 49  1  0  0  0  0
 41106  1  0  0  0  0
 42 45  1  0  0  0  0
 42107  1  0  0  0  0
 43 47  1  0  0  0  0
 43109  1  0  0  0  0
 44108  1  0  0  0  0
 45 46  1  0  0  0  0
 45110  1  0  0  0  0
 46 54  1  0  0  0  0
 46111  1  0  0  0  0
 47 50  1  0  0  0  0
 47112  1  0  0  0  0
 48113  1  0  0  0  0
 48114  1  0  0  0  0
 48115  1  0  0  0  0
 49 51  1  0  0  0  0
 49116  1  0  0  0  0
 50 55  1  0  0  0  0
 50117  1  0  0  0  0
 51 57  1  0  0  0  0
 51118  1  0  0  0  0
 52 56  1  0  0  0  0
 53 58  1  0  0  0  0
 53 60  1  0  0  0  0
 53120  1  0  0  0  0
 54121  1  0  0  0  0
 54122  1  0  0  0  0
 54123  1  0  0  0  0
 55124  1  0  0  0  0
 55125  1  0  0  0  0
 55126  1  0  0  0  0
 56 63  1  0  0  0  0
 56 65  1  0  0  0  0
 56127  1  0  0  0  0
 57128  1  0  0  0  0
 57129  1  0  0  0  0
 57130  1  0  0  0  0
 58 61  1  0  0  0  0
 58133  1  0  0  0  0
 58134  1  0  0  0  0
 59 62  1  0  0  0  0
 60 64  1  0  0  0  0
 60137  1  0  0  0  0
 60138  1  0  0  0  0
 61 66  1  0  0  0  0
 61142  1  0  0  0  0
 61143  1  0  0  0  0
 62 67  1  0  0  0  0
 62144  1  0  0  0  0
 62145  1  0  0  0  0
 63 75  1  0  0  0  0
 63146  1  0  0  0  0
 63147  1  0  0  0  0
 64 71  1  0  0  0  0
 64148  1  0  0  0  0
 64149  1  0  0  0  0
 65150  1  0  0  0  0
 65151  1  0  0  0  0
 65152  1  0  0  0  0
 66 69  1  0  0  0  0
 66153  1  0  0  0  0
 66154  1  0  0  0  0
 67 70  1  0  0  0  0
 67155  1  0  0  0  0
 67156  1  0  0  0  0
 68 74  1  0  0  0  0
 69 72  1  0  0  0  0
 69157  1  0  0  0  0
 69158  1  0  0  0  0
 70 73  1  0  0  0  0
 70159  1  0  0  0  0
 70160  1  0  0  0  0
 71 77  1  0  0  0  0
 71161  1  0  0  0  0
 71162  1  0  0  0  0
 72 73  1  0  0  0  0
 72163  1  0  0  0  0
 72164  1  0  0  0  0
 73165  1  0  0  0  0
 73166  1  0  0  0  0
 74 76  1  0  0  0  0
 74167  1  0  0  0  0
 74168  1  0  0  0  0
 75169  1  0  0  0  0
 75170  1  0  0  0  0
 75171  1  0  0  0  0
 76 78  1  0  0  0  0
 76172  1  0  0  0  0
 76173  1  0  0  0  0
 77 79  1  0  0  0  0
 77174  1  0  0  0  0
 77175  1  0  0  0  0
 78 80  1  0  0  0  0
 78176  1  0  0  0  0
 78177  1  0  0  0  0
 79178  1  0  0  0  0
 79179  1  0  0  0  0
 79180  1  0  0  0  0
 80 81  1  0  0  0  0
 80181  1  0  0  0  0
 80182  1  0  0  0  0
 81 82  1  0  0  0  0
 81183  1  0  0  0  0
 81184  1  0  0  0  0
 82 83  1  0  0  0  0
 82185  1  0  0  0  0
 82186  1  0  0  0  0
 83 84  1  0  0  0  0
 83187  1  0  0  0  0
 83188  1  0  0  0  0
 84 85  1  0  0  0  0
 84189  1  0  0  0  0
 84190  1  0  0  0  0
 85 86  1  0  0  0  0
 85191  1  0  0  0  0
 85192  1  0  0  0  0
 86 87  1  0  0  0  0
 86193  1  0  0  0  0
 86194  1  0  0  0  0
 87195  1  0  0  0  0
 87196  1  0  0  0  0
 87197  1  0  0  0  0
M  END
>  <PUBCHEM_COMPOUND_CID>
85125594

>  <PUBCHEM_COMPOUND_CANONICALIZED>
1

>  <PUBCHEM_CACTVS_COMPLEXITY>
1990

>  <PUBCHEM_CACTVS_HBOND_ACCEPTOR>
24

>  <PUBCHEM_CACTVS_HBOND_DONOR>
8

>  <PUBCHEM_CACTVS_ROTATABLE_BOND>
26

>  <PUBCHEM_CACTVS_SUBSKEYS>
AAADcfB8PgAAAAAAAAAAAAAAAAAAAAAAAAAkSJEiQAAAAAAAAAAAGgAACAAADRSwgAMCCAAABgAIAACQCAAAAAAAAAAAAAEAAAAREBIAAAAiQAAFAAAHAAHI6KyIAAAAAAAAAAAAAAAAAAAAAAAAAAAAAA==

>  <PUBCHEM_IUPAC_INCHI>
InChI=1S/C63H110O24/c1-10-13-15-16-17-18-21-24-28-32-41(64)81-51-37(7)77-60(49(72)47(51)70)85-53-39(9)79-63(57(83-58(74)34(4)12-3)56(53)87-59-48(71)45(68)43(66)35(5)75-59)84-52-38(8)78-62-55(50(52)73)82-42(65)33-29-25-22-19-20-23-27-31-40(30-26-14-11-2)80-61-54(86-62)46(69)44(67)36(6)76-61/h34-40,43-57,59-63,66-73H,10-33H2,1-9H3

>  <PUBCHEM_IUPAC_INCHIKEY>
GHVUZHWERYBEGZ-UHFFFAOYSA-N

>  <PUBCHEM_XLOGP3_AA>
8.2

>  <PUBCHEM_EXACT_MASS>
1250.739

>  <PUBCHEM_MOLECULAR_FORMULA>
C63H110O24

>  <PUBCHEM_MOLECULAR_WEIGHT>
1251.549

>  <PUBCHEM_OPENEYE_CAN_SMILES>
CCCCCCCCCCCC(=O)OC1C(OC(C(C1O)O)OC2C(OC(C(C2OC3C(C(C(C(O3)C)O)O)O)OC(=O)C(C)CC)OC4C(OC5C(C4O)OC(=O)CCCCCCCCCC(OC6C(O5)C(C(C(O6)C)O)O)CCCCC)C)C)C

>  <PUBCHEM_OPENEYE_ISO_SMILES>
CCCCCCCCCCCC(=O)OC1C(OC(C(C1O)O)OC2C(OC(C(C2OC3C(C(C(C(O3)C)O)O)O)OC(=O)C(C)CC)OC4C(OC5C(C4O)OC(=O)CCCCCCCCCC(OC6C(O5)C(C(C(O6)C)O)O)CCCCC)C)C)C

>  <PUBCHEM_CACTVS_TPSA>
333

>  <PUBCHEM_MONOISOTOPIC_WEIGHT>
1250.739

>  <PUBCHEM_TOTAL_CHARGE>
0

>  <PUBCHEM_HEAVY_ATOM_COUNT>
87

>  <PUBCHEM_ATOM_DEF_STEREO_COUNT>
0

>  <PUBCHEM_ATOM_UDEF_STEREO_COUNT>
27

>  <PUBCHEM_BOND_DEF_STEREO_COUNT>
0

>  <PUBCHEM_BOND_UDEF_STEREO_COUNT>
0

>  <PUBCHEM_ISOTOPIC_ATOM_COUNT>
0

>  <PUBCHEM_COMPONENT_COUNT>
1

>  <PUBCHEM_CACTVS_TAUTO_COUNT>
2

>  <PUBCHEM_COORDINATE_TYPE>
1
5
255

>  <PUBCHEM_BONDANNOTATIONS>
28  1  3
29  1  3
33  10  3
31  11  3
44  13  3
38  14  3
39  15  3
45  16  3
41  17  3
42  18  3
43  19  3
47  20  3
49  21  3
25  3  3
36  3  3
30  40  3
32  48  3
26  4  3
35  4  3
46  54  3
34  5  3
50  55  3
51  57  3
53  60  3
56  65  3
27  6  3
37  7  3

$$$$
