85229547
 OpenBabel06101807152D

121127  0  0  1  0  0  0  0  0999 V2000
    7.7680   -4.2582    0.0000 O   0  0  0  0  0  0  0  0  0  0  0  0
    6.1394    0.0810    0.0000 O   0  0  0  0  0  0  0  0  0  0  0  0
    7.4042    1.6922    0.0000 O   0  0  0  0  0  0  0  0  0  0  0  0
    6.0010   -4.1977    0.0000 O   0  0  0  0  0  0  0  0  0  0  0  0
   10.5477    2.8193    0.0000 O   0  0  0  0  0  0  0  0  0  0  0  0
    8.8340    3.0708    0.0000 O   0  0  0  0  0  0  0  0  0  0  0  0
    4.2690   -4.1977    0.0000 O   0  0  0  0  0  0  0  0  0  0  0  0
    9.9087    4.4291    0.0000 O   0  0  0  0  0  0  0  0  0  0  0  0
    6.0010   -6.1977    0.0000 O   0  0  0  0  0  0  0  0  0  0  0  0
   12.4066    3.5571    0.0000 O   0  0  0  0  0  0  0  0  0  0  0  0
    4.2690   -7.1977    0.0000 O   0  0  0  0  0  0  0  0  0  0  0  0
    2.5369   -6.1977    0.0000 O   0  0  0  0  0  0  0  0  0  0  0  0
   12.6971    5.5359    0.0000 O   0  0  0  0  0  0  0  0  0  0  0  0
   11.1286    6.7769    0.0000 O   0  0  0  0  0  0  0  0  0  0  0  0
    2.5369   -3.1977    0.0000 O   0  0  0  0  0  0  0  0  0  0  0  0
   13.4813    4.9154    0.0000 O   0  0  0  0  0  0  0  0  0  0  0  0
    9.4149    7.0284    0.0000 O   0  0  0  0  0  0  0  0  0  0  0  0
   13.9751    2.3162    0.0000 O   0  0  0  0  0  0  0  0  0  0  0  0
   15.8340    3.0540    0.0000 O   0  0  0  0  0  0  0  0  0  0  0  0
   16.1244    5.0328    0.0000 O   0  0  0  0  0  0  0  0  0  0  0  0
   13.7718    6.8942    0.0000 O   0  0  0  0  0  0  0  0  0  0  0  0
    7.5254   -1.0203    0.0000 C   0  0  3  0  0  0  0  0  0  0  0  0
    8.5142   -1.1693    0.0000 C   0  0  3  0  0  0  0  0  0  0  0  0
    9.1761   -0.3651    0.0000 C   0  0  3  0  0  0  0  0  0  0  0  0
    8.8031    0.6075    0.0000 C   0  0  3  0  0  0  0  0  0  0  0  0
    7.6933   -3.2610    0.0000 C   0  0  3  0  0  0  0  0  0  0  0  0
    7.9744   -2.1133    0.0000 C   0  0  0  0  0  0  0  0  0  0  0  0
    6.7923   -1.7005    0.0000 C   0  0  0  0  0  0  0  0  0  0  0  0
    7.1299   -0.0566    0.0000 C   0  0  3  0  0  0  0  0  0  0  0  0
    6.8671   -2.6977    0.0000 C   0  0  3  0  0  0  0  0  0  0  0  0
    9.0142   -2.0354    0.0000 C   0  0  0  0  0  0  0  0  0  0  0  0
    7.7731    0.7627    0.0000 C   0  0  3  0  0  0  0  0  0  0  0  0
    8.6489   -2.9662    0.0000 C   0  0  0  0  0  0  0  0  0  0  0  0
    9.4730    1.4609    0.0000 C   0  0  3  0  0  0  0  0  0  0  0  0
   10.2450   -0.5515    0.0000 C   0  0  0  0  0  0  0  0  0  0  0  0
    9.5343   -1.2987    0.0000 C   0  0  0  0  0  0  0  0  0  0  0  0
   10.5459    1.2992    0.0000 C   0  0  0  0  0  0  0  0  0  0  0  0
   10.9345    0.2862    0.0000 C   0  0  0  0  0  0  0  0  0  0  0  0
    6.0010   -3.1977    0.0000 C   0  0  0  0  0  0  0  0  0  0  0  0
    8.6888    2.0814    0.0000 C   0  0  0  0  0  0  0  0  0  0  0  0
    9.6182    2.4503    0.0000 C   0  0  0  0  0  0  0  0  0  0  0  0
    5.1350   -4.6977    0.0000 C   0  0  3  0  0  0  0  0  0  0  0  0
   10.6929    3.8087    0.0000 C   0  0  3  0  0  0  0  0  0  0  0  0
    5.1350   -5.6977    0.0000 C   0  0  3  0  0  0  0  0  0  0  0  0
   11.6224    4.1776    0.0000 C   0  0  3  0  0  0  0  0  0  0  0  0
    4.2690   -6.1977    0.0000 C   0  0  3  0  0  0  0  0  0  0  0  0
    3.4030   -4.6977    0.0000 C   0  0  3  0  0  0  0  0  0  0  0  0
    3.4030   -5.6977    0.0000 C   0  0  3  0  0  0  0  0  0  0  0  0
   11.7676    5.1670    0.0000 C   0  0  3  0  0  0  0  0  0  0  0  0
   10.0539    5.4185    0.0000 C   0  0  3  0  0  0  0  0  0  0  0  0
   10.9834    5.7875    0.0000 C   0  0  3  0  0  0  0  0  0  0  0  0
    2.5369   -4.1977    0.0000 C   0  0  0  0  0  0  0  0  0  0  0  0
    9.2697    6.0390    0.0000 C   0  0  0  0  0  0  0  0  0  0  0  0
   13.3361    3.9260    0.0000 C   0  0  3  0  0  0  0  0  0  0  0  0
   14.1203    3.3056    0.0000 C   0  0  3  0  0  0  0  0  0  0  0  0
   15.0498    3.6745    0.0000 C   0  0  3  0  0  0  0  0  0  0  0  0
   14.4108    5.2844    0.0000 C   0  0  3  0  0  0  0  0  0  0  0  0
   15.1950    4.6639    0.0000 C   0  0  3  0  0  0  0  0  0  0  0  0
   14.5560    6.2738    0.0000 C   0  0  0  0  0  0  0  0  0  0  0  0
    9.1321   -1.2204    0.0000 H   0  0  0  0  0  0  0  0  0  0  0  0
    8.5743    1.1837    0.0000 H   0  0  0  0  0  0  0  0  0  0  0  0
    8.5017   -2.4394    0.0000 H   0  0  0  0  0  0  0  0  0  0  0  0
    8.4472   -1.7123    0.0000 H   0  0  0  0  0  0  0  0  0  0  0  0
    6.4823   -1.1635    0.0000 H   0  0  0  0  0  0  0  0  0  0  0  0
    6.1999   -1.8832    0.0000 H   0  0  0  0  0  0  0  0  0  0  0  0
    6.8979    0.5183    0.0000 H   0  0  0  0  0  0  0  0  0  0  0  0
    6.8439   -3.3172    0.0000 H   0  0  0  0  0  0  0  0  0  0  0  0
    9.5265   -2.3846    0.0000 H   0  0  0  0  0  0  0  0  0  0  0  0
    9.4687   -1.6136    0.0000 H   0  0  0  0  0  0  0  0  0  0  0  0
    7.1595    0.8516    0.0000 H   0  0  0  0  0  0  0  0  0  0  0  0
    8.6952   -3.5845    0.0000 H   0  0  0  0  0  0  0  0  0  0  0  0
    9.2620   -3.0586    0.0000 H   0  0  0  0  0  0  0  0  0  0  0  0
   10.0355   -1.1351    0.0000 H   0  0  0  0  0  0  0  0  0  0  0  0
   10.7841   -0.8578    0.0000 H   0  0  0  0  0  0  0  0  0  0  0  0
    8.9554   -1.5208    0.0000 H   0  0  0  0  0  0  0  0  0  0  0  0
    9.7564   -1.8776    0.0000 H   0  0  0  0  0  0  0  0  0  0  0  0
   10.1132   -1.0767    0.0000 H   0  0  0  0  0  0  0  0  0  0  0  0
   11.1542    1.4190    0.0000 H   0  0  0  0  0  0  0  0  0  0  0  0
   10.5320    1.9191    0.0000 H   0  0  0  0  0  0  0  0  0  0  0  0
   11.3387   -0.1839    0.0000 H   0  0  0  0  0  0  0  0  0  0  0  0
   11.4668    0.6040    0.0000 H   0  0  0  0  0  0  0  0  0  0  0  0
    5.7890   -2.6151    0.0000 H   0  0  0  0  0  0  0  0  0  0  0  0
    5.3905   -3.3053    0.0000 H   0  0  0  0  0  0  0  0  0  0  0  0
    8.3266   -4.5272    0.0000 H   0  0  0  0  0  0  0  0  0  0  0  0
    9.0735    2.5676    0.0000 H   0  0  0  0  0  0  0  0  0  0  0  0
    8.2026    2.4661    0.0000 H   0  0  0  0  0  0  0  0  0  0  0  0
    8.3041    1.5952    0.0000 H   0  0  0  0  0  0  0  0  0  0  0  0
    5.9063    0.6554    0.0000 H   0  0  0  0  0  0  0  0  0  0  0  0
    6.7907    1.7822    0.0000 H   0  0  0  0  0  0  0  0  0  0  0  0
    5.1350   -4.0777    0.0000 H   0  0  0  0  0  0  0  0  0  0  0  0
   11.1791    3.4240    0.0000 H   0  0  0  0  0  0  0  0  0  0  0  0
    5.1350   -6.3177    0.0000 H   0  0  0  0  0  0  0  0  0  0  0  0
   12.1986    4.4063    0.0000 H   0  0  0  0  0  0  0  0  0  0  0  0
    3.7320   -6.5077    0.0000 H   0  0  0  0  0  0  0  0  0  0  0  0
    3.4030   -4.0777    0.0000 H   0  0  0  0  0  0  0  0  0  0  0  0
    2.8660   -5.3877    0.0000 H   0  0  0  0  0  0  0  0  0  0  0  0
   11.8576    5.7804    0.0000 H   0  0  0  0  0  0  0  0  0  0  0  0
    9.4776    5.1898    0.0000 H   0  0  0  0  0  0  0  0  0  0  0  0
   10.4972    6.1722    0.0000 H   0  0  0  0  0  0  0  0  0  0  0  0
    6.5380   -5.8877    0.0000 H   0  0  0  0  0  0  0  0  0  0  0  0
    1.9264   -4.0900    0.0000 H   0  0  0  0  0  0  0  0  0  0  0  0
    2.3249   -4.7803    0.0000 H   0  0  0  0  0  0  0  0  0  0  0  0
    3.7320   -7.5077    0.0000 H   0  0  0  0  0  0  0  0  0  0  0  0
    8.6812    6.2342    0.0000 H   0  0  0  0  0  0  0  0  0  0  0  0
    8.9753    5.4934    0.0000 H   0  0  0  0  0  0  0  0  0  0  0  0
    2.0000   -5.8877    0.0000 H   0  0  0  0  0  0  0  0  0  0  0  0
   12.8498    4.3107    0.0000 H   0  0  0  0  0  0  0  0  0  0  0  0
   12.7871    6.1493    0.0000 H   0  0  0  0  0  0  0  0  0  0  0  0
   11.7049    7.0056    0.0000 H   0  0  0  0  0  0  0  0  0  0  0  0
   14.6065    2.9209    0.0000 H   0  0  0  0  0  0  0  0  0  0  0  0
    2.0000   -2.8877    0.0000 H   0  0  0  0  0  0  0  0  0  0  0  0
    8.9287    7.4131    0.0000 H   0  0  0  0  0  0  0  0  0  0  0  0
   15.6260    3.9032    0.0000 H   0  0  0  0  0  0  0  0  0  0  0  0
   13.9245    5.6691    0.0000 H   0  0  0  0  0  0  0  0  0  0  0  0
   15.2850    5.2773    0.0000 H   0  0  0  0  0  0  0  0  0  0  0  0
   14.4613    1.9315    0.0000 H   0  0  0  0  0  0  0  0  0  0  0  0
   15.1445    6.0786    0.0000 H   0  0  0  0  0  0  0  0  0  0  0  0
   14.8504    6.8194    0.0000 H   0  0  0  0  0  0  0  0  0  0  0  0
   16.4102    3.2828    0.0000 H   0  0  0  0  0  0  0  0  0  0  0  0
   16.2145    5.6462    0.0000 H   0  0  0  0  0  0  0  0  0  0  0  0
   13.8618    7.5077    0.0000 H   0  0  0  0  0  0  0  0  0  0  0  0
  1 26  1  0  0  0  0
  1 84  1  0  0  0  0
  2 29  1  0  0  0  0
  2 88  1  0  0  0  0
  3 32  1  0  0  0  0
  3 89  1  0  0  0  0
  4 39  1  0  0  0  0
  4 42  1  0  0  0  0
  5 41  1  0  0  0  0
  5 43  1  0  0  0  0
  6 41  2  0  0  0  0
  7 42  1  0  0  0  0
  7 47  1  0  0  0  0
  8 43  1  0  0  0  0
  8 50  1  0  0  0  0
  9 44  1  0  0  0  0
  9100  1  0  0  0  0
 10 45  1  0  0  0  0
 10 54  1  0  0  0  0
 11 46  1  0  0  0  0
 11103  1  0  0  0  0
 12 48  1  0  0  0  0
 12106  1  0  0  0  0
 13 49  1  0  0  0  0
 13108  1  0  0  0  0
 14 51  1  0  0  0  0
 14109  1  0  0  0  0
 15 52  1  0  0  0  0
 15111  1  0  0  0  0
 16 54  1  0  0  0  0
 16 57  1  0  0  0  0
 17 53  1  0  0  0  0
 17112  1  0  0  0  0
 18 55  1  0  0  0  0
 18116  1  0  0  0  0
 19 56  1  0  0  0  0
 19119  1  0  0  0  0
 20 58  1  0  0  0  0
 20120  1  0  0  0  0
 21 59  1  0  0  0  0
 21121  1  0  0  0  0
 22 23  1  0  0  0  0
 22 27  1  0  0  0  0
 22 28  1  0  0  0  0
 22 29  1  0  0  0  0
 23 24  1  0  0  0  0
 23 31  1  0  0  0  0
 23 60  1  0  0  0  0
 24 25  1  0  0  0  0
 24 35  1  0  0  0  0
 24 36  1  0  0  0  0
 25 32  1  0  0  0  0
 25 34  1  0  0  0  0
 25 61  1  0  0  0  0
 26 27  1  0  0  0  0
 26 30  1  0  0  0  0
 26 33  1  0  0  0  0
 27 62  1  0  0  0  0
 27 63  1  0  0  0  0
 28 30  1  0  0  0  0
 28 64  1  0  0  0  0
 28 65  1  0  0  0  0
 29 32  1  0  0  0  0
 29 66  1  0  0  0  0
 30 39  1  0  0  0  0
 30 67  1  0  0  0  0
 31 33  1  0  0  0  0
 31 68  1  0  0  0  0
 31 69  1  0  0  0  0
 32 70  1  0  0  0  0
 33 71  1  0  0  0  0
 33 72  1  0  0  0  0
 34 37  1  0  0  0  0
 34 40  1  0  0  0  0
 34 41  1  0  0  0  0
 35 38  1  0  0  0  0
 35 73  1  0  0  0  0
 35 74  1  0  0  0  0
 36 75  1  0  0  0  0
 36 76  1  0  0  0  0
 36 77  1  0  0  0  0
 37 38  1  0  0  0  0
 37 78  1  0  0  0  0
 37 79  1  0  0  0  0
 38 80  1  0  0  0  0
 38 81  1  0  0  0  0
 39 82  1  0  0  0  0
 39 83  1  0  0  0  0
 40 85  1  0  0  0  0
 40 86  1  0  0  0  0
 40 87  1  0  0  0  0
 42 44  1  0  0  0  0
 42 90  1  0  0  0  0
 43 45  1  0  0  0  0
 43 91  1  0  0  0  0
 44 46  1  0  0  0  0
 44 92  1  0  0  0  0
 45 49  1  0  0  0  0
 45 93  1  0  0  0  0
 46 48  1  0  0  0  0
 46 94  1  0  0  0  0
 47 48  1  0  0  0  0
 47 52  1  0  0  0  0
 47 95  1  0  0  0  0
 48 96  1  0  0  0  0
 49 51  1  0  0  0  0
 49 97  1  0  0  0  0
 50 51  1  0  0  0  0
 50 53  1  0  0  0  0
 50 98  1  0  0  0  0
 51 99  1  0  0  0  0
 52101  1  0  0  0  0
 52102  1  0  0  0  0
 53104  1  0  0  0  0
 53105  1  0  0  0  0
 54 55  1  0  0  0  0
 54107  1  0  0  0  0
 55 56  1  0  0  0  0
 55110  1  0  0  0  0
 56 58  1  0  0  0  0
 56113  1  0  0  0  0
 57 58  1  0  0  0  0
 57 59  1  0  0  0  0
 57114  1  0  0  0  0
 58115  1  0  0  0  0
 59117  1  0  0  0  0
 59118  1  0  0  0  0
M  END
>  <PUBCHEM_COMPOUND_CID>
85229547

>  <PUBCHEM_COMPOUND_CANONICALIZED>
1

>  <PUBCHEM_CACTVS_COMPLEXITY>
1490

>  <PUBCHEM_CACTVS_HBOND_ACCEPTOR>
21

>  <PUBCHEM_CACTVS_HBOND_DONOR>
14

>  <PUBCHEM_CACTVS_ROTATABLE_BOND>
11

>  <PUBCHEM_CACTVS_SUBSKEYS>
AAADcfB8PgAAAAAAAAAAAAAAAAAAAYAAAAA0aNECBgAAAADAAAAAGgAACAAAD1SwgAMCCAAABgAIAACQCAAAAAAAAAAAAAEAAAAREBIAAAAiQAAFAAAHAAHK7PzPgAAAAAAAAADAAAYAADCAAYAADAAAAA==

>  <PUBCHEM_IUPAC_INCHI>
InChI=1S/C38H62O21/c1-35-5-3-6-36(2,34(52)59-33-28(24(47)21(44)17(11-41)57-33)58-32-26(49)23(46)20(43)16(10-40)56-32)29(35)27(50)30(51)37-8-14(38(53,13-37)7-4-18(35)37)12-54-31-25(48)22(45)19(42)15(9-39)55-31/h14-33,39-51,53H,3-13H2,1-2H3

>  <PUBCHEM_IUPAC_INCHIKEY>
KOGDNIPXKVTMKI-UHFFFAOYSA-N

>  <PUBCHEM_XLOGP3_AA>
-4.1

>  <PUBCHEM_EXACT_MASS>
854.378

>  <PUBCHEM_MOLECULAR_FORMULA>
C38H62O21

>  <PUBCHEM_MOLECULAR_WEIGHT>
854.893

>  <PUBCHEM_OPENEYE_CAN_SMILES>
CC12CCCC(C1C(C(C34C2CCC(C3)(C(C4)COC5C(C(C(C(O5)CO)O)O)O)O)O)O)(C)C(=O)OC6C(C(C(C(O6)CO)O)O)OC7C(C(C(C(O7)CO)O)O)O

>  <PUBCHEM_OPENEYE_ISO_SMILES>
CC12CCCC(C1C(C(C34C2CCC(C3)(C(C4)COC5C(C(C(C(O5)CO)O)O)O)O)O)O)(C)C(=O)OC6C(C(C(C(O6)CO)O)O)OC7C(C(C(C(O7)CO)O)O)O

>  <PUBCHEM_CACTVS_TPSA>
356

>  <PUBCHEM_MONOISOTOPIC_WEIGHT>
854.378

>  <PUBCHEM_TOTAL_CHARGE>
0

>  <PUBCHEM_HEAVY_ATOM_COUNT>
59

>  <PUBCHEM_ATOM_DEF_STEREO_COUNT>
0

>  <PUBCHEM_ATOM_UDEF_STEREO_COUNT>
24

>  <PUBCHEM_BOND_DEF_STEREO_COUNT>
0

>  <PUBCHEM_BOND_UDEF_STEREO_COUNT>
0

>  <PUBCHEM_ISOTOPIC_ATOM_COUNT>
0

>  <PUBCHEM_COMPONENT_COUNT>
1

>  <PUBCHEM_CACTVS_TAUTO_COUNT>
1

>  <PUBCHEM_COORDINATE_TYPE>
1
5
255

>  <PUBCHEM_BONDANNOTATIONS>
26  1  3
45  10  3
54  10  3
46  11  3
48  12  3
49  13  3
51  14  3
55  18  3
56  19  3
29  2  3
58  20  3
22  27  3
23  31  3
24  36  3
25  34  3
32  3  3
30  39  3
34  40  3
42  4  3
47  52  3
43  5  3
50  53  3
57  59  3
44  9  3

$$$$
