85705095
 OpenBabel06101807152D

 32 33  0  0  0  0  0  0  0  0999 V2000
    3.6244   -0.7399    0.0000 C   0  0  0  0  0  0  0  0  0  0  0  0
    3.1861    0.1589    0.0000 C   0  0  0  0  0  0  0  0  0  0  0  0
    5.3792   -0.3302    0.0000 C   0  0  0  0  0  0  0  0  0  0  0  0
    4.6005   -0.9575    0.0000 C   0  0  0  0  0  0  0  0  0  0  0  0
    3.6155    1.0620    0.0000 C   0  0  0  0  0  0  0  0  0  0  0  0
    5.3742    0.6698    0.0000 C   0  0  0  0  0  0  0  0  0  0  0  0
    4.5893    1.2894    0.0000 C   0  0  0  0  0  0  0  0  0  0  0  0
    6.3189    0.9793    0.0000 C   0  0  0  0  0  0  0  0  0  0  0  0
    2.9881    1.8408    0.0000 C   0  0  0  0  0  0  0  0  0  0  0  0
    6.3269   -0.6302    0.0000 C   0  0  0  0  0  0  0  0  0  0  0  0
    6.9065    0.1775    0.0000 C   0  0  0  0  0  0  0  0  0  0  0  0
    4.8278   -1.9313    0.0000 C   0  0  0  0  0  0  0  0  0  0  0  0
    6.6248    1.9313    0.0000 C   0  0  0  0  0  0  0  0  0  0  0  0
    2.0000    1.6868    0.0000 C   0  0  0  0  0  0  0  0  0  0  0  0
    2.6994    0.5431    0.0000 H   0  0  0  0  0  0  0  0  0  0  0  0
    2.7033   -0.2301    0.0000 H   0  0  0  0  0  0  0  0  0  0  0  0
    3.0207   -0.8809    0.0000 H   0  0  0  0  0  0  0  0  0  0  0  0
    3.6275   -1.3599    0.0000 H   0  0  0  0  0  0  0  0  0  0  0  0
    4.7242    1.8946    0.0000 H   0  0  0  0  0  0  0  0  0  0  0  0
    3.5311    2.1400    0.0000 H   0  0  0  0  0  0  0  0  0  0  0  0
    2.7877    2.4275    0.0000 H   0  0  0  0  0  0  0  0  0  0  0  0
    6.5224   -1.2185    0.0000 H   0  0  0  0  0  0  0  0  0  0  0  0
    7.5265    0.1806    0.0000 H   0  0  0  0  0  0  0  0  0  0  0  0
    4.2241   -2.0723    0.0000 H   0  0  0  0  0  0  0  0  0  0  0  0
    4.9688   -2.5351    0.0000 H   0  0  0  0  0  0  0  0  0  0  0  0
    5.4316   -1.7904    0.0000 H   0  0  0  0  0  0  0  0  0  0  0  0
    7.2151    1.7417    0.0000 H   0  0  0  0  0  0  0  0  0  0  0  0
    6.8145    2.5216    0.0000 H   0  0  0  0  0  0  0  0  0  0  0  0
    6.0345    2.1210    0.0000 H   0  0  0  0  0  0  0  0  0  0  0  0
    1.9045    2.2994    0.0000 H   0  0  0  0  0  0  0  0  0  0  0  0
    1.3874    1.5913    0.0000 H   0  0  0  0  0  0  0  0  0  0  0  0
    2.0955    1.0742    0.0000 H   0  0  0  0  0  0  0  0  0  0  0  0
  1  2  1  0  0  0  0
  1  4  1  0  0  0  0
  1 17  1  0  0  0  0
  1 18  1  0  0  0  0
  2  5  1  0  0  0  0
  2 15  1  0  0  0  0
  2 16  1  0  0  0  0
  3  4  2  0  0  0  0
  3  6  1  0  0  0  0
  3 10  1  0  0  0  0
  4 12  1  0  0  0  0
  5  7  2  0  0  0  0
  5  9  1  0  0  0  0
  6  7  1  0  0  0  0
  6  8  2  0  0  0  0
  7 19  1  0  0  0  0
  8 11  1  0  0  0  0
  8 13  1  0  0  0  0
  9 14  1  0  0  0  0
  9 20  1  0  0  0  0
  9 21  1  0  0  0  0
 10 11  2  0  0  0  0
 10 22  1  0  0  0  0
 11 23  1  0  0  0  0
 12 24  1  0  0  0  0
 12 25  1  0  0  0  0
 12 26  1  0  0  0  0
 13 27  1  0  0  0  0
 13 28  1  0  0  0  0
 13 29  1  0  0  0  0
 14 30  1  0  0  0  0
 14 31  1  0  0  0  0
 14 32  1  0  0  0  0
M  END
>  <PUBCHEM_COMPOUND_CID>
85705095

>  <PUBCHEM_COMPOUND_CANONICALIZED>
1

>  <PUBCHEM_CACTVS_COMPLEXITY>
373

>  <PUBCHEM_CACTVS_HBOND_ACCEPTOR>
0

>  <PUBCHEM_CACTVS_HBOND_DONOR>
0

>  <PUBCHEM_CACTVS_ROTATABLE_BOND>
1

>  <PUBCHEM_CACTVS_SUBSKEYS>
AAADceBwAAAAAAAAAAAAAAAAAAAAAQAAAAAAAAAABAAAAACAAAAAGAAAAAAADACAAAACAAAAAACAAiBCAAAAAAAgAAAICAAAAAgIAAIAAQAAAAAAgAAIgAMAgAAAAAAAAAAAAAAAAAAAAAAAAAAAAAAAAA==

>  <PUBCHEM_IUPAC_OPENEYE_NAME>
7-ethyl-1,4-dimethyl-5,6-dihydroazulene

>  <PUBCHEM_IUPAC_CAS_NAME>
7-ethyl-1,4-dimethyl-5,6-dihydroazulene

>  <PUBCHEM_IUPAC_NAME>
7-ethyl-1,4-dimethyl-5,6-dihydroazulene

>  <PUBCHEM_IUPAC_SYSTEMATIC_NAME>
7-ethyl-1,4-dimethyl-5,6-dihydroazulene

>  <PUBCHEM_IUPAC_TRADITIONAL_NAME>
7-ethyl-1,4-dimethyl-5,6-dihydroazulene

>  <PUBCHEM_IUPAC_INCHI>
InChI=1S/C14H18/c1-4-12-7-5-10(2)13-8-6-11(3)14(13)9-12/h6,8-9H,4-5,7H2,1-3H3

>  <PUBCHEM_IUPAC_INCHIKEY>
GMAWSFXIELFLDC-UHFFFAOYSA-N

>  <PUBCHEM_XLOGP3_AA>
2.7

>  <PUBCHEM_EXACT_MASS>
186.141

>  <PUBCHEM_MOLECULAR_FORMULA>
C14H18

>  <PUBCHEM_MOLECULAR_WEIGHT>
186.298

>  <PUBCHEM_OPENEYE_CAN_SMILES>
CCC1=CC2=C(C=CC2=C(CC1)C)C

>  <PUBCHEM_OPENEYE_ISO_SMILES>
CCC1=CC2=C(C=CC2=C(CC1)C)C

>  <PUBCHEM_CACTVS_TPSA>
0

>  <PUBCHEM_MONOISOTOPIC_WEIGHT>
186.141

>  <PUBCHEM_TOTAL_CHARGE>
0

>  <PUBCHEM_HEAVY_ATOM_COUNT>
14

>  <PUBCHEM_ATOM_DEF_STEREO_COUNT>
0

>  <PUBCHEM_ATOM_UDEF_STEREO_COUNT>
0

>  <PUBCHEM_BOND_DEF_STEREO_COUNT>
0

>  <PUBCHEM_BOND_UDEF_STEREO_COUNT>
0

>  <PUBCHEM_ISOTOPIC_ATOM_COUNT>
0

>  <PUBCHEM_COMPONENT_COUNT>
1

>  <PUBCHEM_CACTVS_TAUTO_COUNT>
1

>  <PUBCHEM_COORDINATE_TYPE>
1
5
255

$$$$
