85760249
 OpenBabel06101807152D

 22 24  0  0  0  0  0  0  0  0999 V2000
    6.1391   -0.7002    0.0000 S   0  0  0  0  0  0  0  0  0  0  0  0
    5.6151    1.6462    0.0000 O   0  0  0  0  0  0  0  0  0  0  0  0
    5.0274    0.8372    0.0000 N   0  0  0  0  0  0  0  0  0  0  0  0
    5.8311   -1.6454    0.0000 N   0  0  0  0  0  0  0  0  0  0  0  0
    3.7183   -0.1138    0.0000 C   0  0  0  0  0  0  0  0  0  0  0  0
    4.0274    0.8372    0.0000 C   0  0  0  0  0  0  0  0  0  0  0  0
    4.5274   -0.7016    0.0000 C   0  0  0  0  0  0  0  0  0  0  0  0
    5.3364   -0.1138    0.0000 C   0  0  0  0  0  0  0  0  0  0  0  0
    2.7029   -0.3461    0.0000 C   0  0  0  0  0  0  0  0  0  0  0  0
    3.3424    1.6220    0.0000 C   0  0  0  0  0  0  0  0  0  0  0  0
    4.8370   -1.6462    0.0000 C   0  0  0  0  0  0  0  0  0  0  0  0
    2.0000    0.4226    0.0000 C   0  0  0  0  0  0  0  0  0  0  0  0
    2.3219    1.4132    0.0000 C   0  0  0  0  0  0  0  0  0  0  0  0
    6.6097    1.5417    0.0000 C   0  0  0  0  0  0  0  0  0  0  0  0
    2.5182   -0.9379    0.0000 H   0  0  0  0  0  0  0  0  0  0  0  0
    3.5408    2.2094    0.0000 H   0  0  0  0  0  0  0  0  0  0  0  0
    4.4734   -2.1485    0.0000 H   0  0  0  0  0  0  0  0  0  0  0  0
    1.3940    0.2914    0.0000 H   0  0  0  0  0  0  0  0  0  0  0  0
    1.9088    1.8756    0.0000 H   0  0  0  0  0  0  0  0  0  0  0  0
    6.5449    0.9251    0.0000 H   0  0  0  0  0  0  0  0  0  0  0  0
    7.2263    1.4769    0.0000 H   0  0  0  0  0  0  0  0  0  0  0  0
    6.6745    2.1583    0.0000 H   0  0  0  0  0  0  0  0  0  0  0  0
  1  4  1  0  0  0  0
  1  8  1  0  0  0  0
  2  3  1  0  0  0  0
  2 14  1  0  0  0  0
  3  6  1  0  0  0  0
  3  8  1  0  0  0  0
  4 11  2  0  0  0  0
  5  6  1  0  0  0  0
  5  7  1  0  0  0  0
  5  9  2  0  0  0  0
  6 10  2  0  0  0  0
  7  8  2  0  0  0  0
  7 11  1  0  0  0  0
  9 12  1  0  0  0  0
  9 15  1  0  0  0  0
 10 13  1  0  0  0  0
 10 16  1  0  0  0  0
 11 17  1  0  0  0  0
 12 13  2  0  0  0  0
 12 18  1  0  0  0  0
 13 19  1  0  0  0  0
 14 20  1  0  0  0  0
 14 21  1  0  0  0  0
 14 22  1  0  0  0  0
M  END
>  <PUBCHEM_COMPOUND_CID>
85760249

>  <PUBCHEM_COMPOUND_CANONICALIZED>
1

>  <PUBCHEM_CACTVS_COMPLEXITY>
226

>  <PUBCHEM_CACTVS_HBOND_ACCEPTOR>
3

>  <PUBCHEM_CACTVS_HBOND_DONOR>
0

>  <PUBCHEM_CACTVS_ROTATABLE_BOND>
1

>  <PUBCHEM_CACTVS_SUBSKEYS>
AAADccBzIABAAAAAAAAAAAAAAAAAAWLAAAAwAAAAAAAWAFgB/gAAHgQEQAAADAjBXgY+wfIYEACkAzRnRACD0DAhAigomDAwZJgIIOLA0dGEJAxggADIyAcQgMAOgAAAAAACAAAAAAAAAAQAAAAAAAAAAA==

>  <PUBCHEM_IUPAC_OPENEYE_NAME>
4-methoxyisothiazolo[5,4-b]indole

>  <PUBCHEM_IUPAC_CAS_NAME>
4-methoxyisothiazolo[5,4-b]indole

>  <PUBCHEM_IUPAC_NAME>
4-methoxy-[1,2]thiazolo[5,4-b]indole

>  <PUBCHEM_IUPAC_SYSTEMATIC_NAME>
4-methoxy-[1,2]thiazolo[5,4-b]indole

>  <PUBCHEM_IUPAC_TRADITIONAL_NAME>
4-methoxyisothiazol[5,4-b]indole

>  <PUBCHEM_IUPAC_INCHI>
InChI=1S/C10H8N2OS/c1-13-12-9-5-3-2-4-7(9)8-6-11-14-10(8)12/h2-6H,1H3

>  <PUBCHEM_IUPAC_INCHIKEY>
MCKJZUFMGOTAKT-UHFFFAOYSA-N

>  <PUBCHEM_XLOGP3_AA>
3.1

>  <PUBCHEM_EXACT_MASS>
204.036

>  <PUBCHEM_MOLECULAR_FORMULA>
C10H8N2OS

>  <PUBCHEM_MOLECULAR_WEIGHT>
204.247

>  <PUBCHEM_OPENEYE_CAN_SMILES>
CON1C2=CC=CC=C2C3=C1SN=C3

>  <PUBCHEM_OPENEYE_ISO_SMILES>
CON1C2=CC=CC=C2C3=C1SN=C3

>  <PUBCHEM_CACTVS_TPSA>
55.3

>  <PUBCHEM_MONOISOTOPIC_WEIGHT>
204.036

>  <PUBCHEM_TOTAL_CHARGE>
0

>  <PUBCHEM_HEAVY_ATOM_COUNT>
14

>  <PUBCHEM_ATOM_DEF_STEREO_COUNT>
0

>  <PUBCHEM_ATOM_UDEF_STEREO_COUNT>
0

>  <PUBCHEM_BOND_DEF_STEREO_COUNT>
0

>  <PUBCHEM_BOND_UDEF_STEREO_COUNT>
0

>  <PUBCHEM_ISOTOPIC_ATOM_COUNT>
0

>  <PUBCHEM_COMPONENT_COUNT>
1

>  <PUBCHEM_CACTVS_TAUTO_COUNT>
1

>  <PUBCHEM_COORDINATE_TYPE>
1
5
255

>  <PUBCHEM_BONDANNOTATIONS>
1  4  8
1  8  8
10  13  8
12  13  8
3  6  8
3  8  8
4  11  8
5  6  8
5  7  8
5  9  8
6  10  8
7  11  8
7  8  8
9  12  8

$$$$
