86059964
 OpenBabel06101807152D

 34 37  0  0  0  0  0  0  0  0999 V2000
    4.6660    0.0000    0.0000 O   0  0  0  0  0  0  0  0  0  0  0  0
    9.0764    0.3047    0.0000 O   0  0  0  0  0  0  0  0  0  0  0  0
    9.0764   -1.3047    0.0000 O   0  0  0  0  0  0  0  0  0  0  0  0
    7.2641   -2.5000    0.0000 O   0  0  0  0  0  0  0  0  0  0  0  0
    4.6660    3.0000    0.0000 O   0  0  0  0  0  0  0  0  0  0  0  0
    6.3981   -0.0000    0.0000 C   0  0  0  0  0  0  0  0  0  0  0  0
    8.1301   -0.0000    0.0000 C   0  0  0  0  0  0  0  0  0  0  0  0
    8.1301   -1.0000    0.0000 C   0  0  0  0  0  0  0  0  0  0  0  0
    5.5321    0.5000    0.0000 C   0  0  0  0  0  0  0  0  0  0  0  0
    7.2641    0.5000    0.0000 C   0  0  0  0  0  0  0  0  0  0  0  0
    7.2641   -1.5000    0.0000 C   0  0  0  0  0  0  0  0  0  0  0  0
    6.3981   -1.0000    0.0000 C   0  0  0  0  0  0  0  0  0  0  0  0
    3.8000    1.5000    0.0000 C   0  0  0  0  0  0  0  0  0  0  0  0
    3.8000    0.5000    0.0000 C   0  0  0  0  0  0  0  0  0  0  0  0
    5.5321    1.5000    0.0000 C   0  0  0  0  0  0  0  0  0  0  0  0
    9.6600   -0.5000    0.0000 C   0  0  0  0  0  0  0  0  0  0  0  0
    4.6660    2.0000    0.0000 C   0  0  0  0  0  0  0  0  0  0  0  0
    2.9061    2.0347    0.0000 C   0  0  0  0  0  0  0  0  0  0  0  0
    2.9061   -0.0347    0.0000 C   0  0  0  0  0  0  0  0  0  0  0  0
    2.0000    1.5208    0.0000 C   0  0  0  0  0  0  0  0  0  0  0  0
    2.0000    0.4792    0.0000 C   0  0  0  0  0  0  0  0  0  0  0  0
    6.3981   -3.0000    0.0000 C   0  0  0  0  0  0  0  0  0  0  0  0
    7.2641    1.1200    0.0000 H   0  0  0  0  0  0  0  0  0  0  0  0
    5.8612   -1.3100    0.0000 H   0  0  0  0  0  0  0  0  0  0  0  0
    6.0690    1.8100    0.0000 H   0  0  0  0  0  0  0  0  0  0  0  0
   10.1208   -0.9147    0.0000 H   0  0  0  0  0  0  0  0  0  0  0  0
   10.1208   -0.0853    0.0000 H   0  0  0  0  0  0  0  0  0  0  0  0
    2.9132    2.6546    0.0000 H   0  0  0  0  0  0  0  0  0  0  0  0
    2.9132   -0.6546    0.0000 H   0  0  0  0  0  0  0  0  0  0  0  0
    1.4643    1.8329    0.0000 H   0  0  0  0  0  0  0  0  0  0  0  0
    1.4643    0.1671    0.0000 H   0  0  0  0  0  0  0  0  0  0  0  0
    6.0881   -2.4631    0.0000 H   0  0  0  0  0  0  0  0  0  0  0  0
    5.8612   -3.3100    0.0000 H   0  0  0  0  0  0  0  0  0  0  0  0
    6.7081   -3.5369    0.0000 H   0  0  0  0  0  0  0  0  0  0  0  0
  1  9  1  0  0  0  0
  1 14  1  0  0  0  0
  2  7  1  0  0  0  0
  2 16  1  0  0  0  0
  3  8  1  0  0  0  0
  3 16  1  0  0  0  0
  4 11  1  0  0  0  0
  4 22  1  0  0  0  0
  5 17  2  0  0  0  0
  6  9  1  0  0  0  0
  6 10  2  0  0  0  0
  6 12  1  0  0  0  0
  7  8  2  0  0  0  0
  7 10  1  0  0  0  0
  8 11  1  0  0  0  0
  9 15  2  0  0  0  0
 10 23  1  0  0  0  0
 11 12  2  0  0  0  0
 12 24  1  0  0  0  0
 13 14  1  0  0  0  0
 13 17  1  0  0  0  0
 13 18  2  0  0  0  0
 14 19  2  0  0  0  0
 15 17  1  0  0  0  0
 15 25  1  0  0  0  0
 16 26  1  0  0  0  0
 16 27  1  0  0  0  0
 18 20  1  0  0  0  0
 18 28  1  0  0  0  0
 19 21  1  0  0  0  0
 19 29  1  0  0  0  0
 20 21  2  0  0  0  0
 20 30  1  0  0  0  0
 21 31  1  0  0  0  0
 22 32  1  0  0  0  0
 22 33  1  0  0  0  0
 22 34  1  0  0  0  0
M  END
>  <PUBCHEM_COMPOUND_CID>
86059964

>  <PUBCHEM_COMPOUND_CANONICALIZED>
1

>  <PUBCHEM_CACTVS_COMPLEXITY>
474

>  <PUBCHEM_CACTVS_HBOND_ACCEPTOR>
5

>  <PUBCHEM_CACTVS_HBOND_DONOR>
0

>  <PUBCHEM_CACTVS_ROTATABLE_BOND>
2

>  <PUBCHEM_CACTVS_SUBSKEYS>
AAADccB4OAAAAAAAAAAAAAAAAAAAASAAAAAwYIAAAAAAAEiBQAAAGgAAAAAADASAmAMyDoAABACIAqBSAAACCAAkIAAIiAEGiMgdJzaENRqiOWKl4BUOqYfI6LyOIAABCAAIQABAAAIQABCAAAAAAAAAAA==

>  <PUBCHEM_IUPAC_OPENEYE_NAME>
2-(7-methoxy-1,3-benzodioxol-5-yl)chromen-4-one

>  <PUBCHEM_IUPAC_CAS_NAME>
2-(7-methoxy-1,3-benzodioxol-5-yl)-1-benzopyran-4-one

>  <PUBCHEM_IUPAC_NAME>
2-(7-methoxy-1,3-benzodioxol-5-yl)chromen-4-one

>  <PUBCHEM_IUPAC_SYSTEMATIC_NAME>
2-(7-methoxy-1,3-benzodioxol-5-yl)chromen-4-one

>  <PUBCHEM_IUPAC_TRADITIONAL_NAME>
2-(7-methoxy-1,3-benzodioxol-5-yl)chromone

>  <PUBCHEM_IUPAC_INCHI>
InChI=1S/C17H12O5/c1-19-15-6-10(7-16-17(15)21-9-20-16)14-8-12(18)11-4-2-3-5-13(11)22-14/h2-8H,9H2,1H3

>  <PUBCHEM_IUPAC_INCHIKEY>
XYMIWTLARLBFMJ-UHFFFAOYSA-N

>  <PUBCHEM_XLOGP3_AA>
3

>  <PUBCHEM_EXACT_MASS>
296.068

>  <PUBCHEM_MOLECULAR_FORMULA>
C17H12O5

>  <PUBCHEM_MOLECULAR_WEIGHT>
296.278

>  <PUBCHEM_OPENEYE_CAN_SMILES>
COC1=CC(=CC2=C1OCO2)C3=CC(=O)C4=CC=CC=C4O3

>  <PUBCHEM_OPENEYE_ISO_SMILES>
COC1=CC(=CC2=C1OCO2)C3=CC(=O)C4=CC=CC=C4O3

>  <PUBCHEM_CACTVS_TPSA>
54

>  <PUBCHEM_MONOISOTOPIC_WEIGHT>
296.068

>  <PUBCHEM_TOTAL_CHARGE>
0

>  <PUBCHEM_HEAVY_ATOM_COUNT>
22

>  <PUBCHEM_ATOM_DEF_STEREO_COUNT>
0

>  <PUBCHEM_ATOM_UDEF_STEREO_COUNT>
0

>  <PUBCHEM_BOND_DEF_STEREO_COUNT>
0

>  <PUBCHEM_BOND_UDEF_STEREO_COUNT>
0

>  <PUBCHEM_ISOTOPIC_ATOM_COUNT>
0

>  <PUBCHEM_COMPONENT_COUNT>
1

>  <PUBCHEM_CACTVS_TAUTO_COUNT>
1

>  <PUBCHEM_COORDINATE_TYPE>
1
5
255

>  <PUBCHEM_BONDANNOTATIONS>
1  14  8
1  9  8
11  12  8
13  14  8
13  17  8
13  18  8
14  19  8
15  17  8
18  20  8
19  21  8
20  21  8
6  10  8
6  12  8
7  10  8
7  8  8
8  11  8
9  15  8

$$$$
