86063753
 OpenBabel06101807152D

 19 19  0  0  0  0  0  0  0  0999 V2000
    2.9511    0.4885    0.0000 O   0  0  0  0  0  0  0  0  0  0  0  0
    7.9575    0.4885    0.0000 O   0  0  0  0  0  0  0  0  0  0  0  0
    5.4543   -0.4594    0.0000 N   0  0  0  0  0  0  0  0  0  0  0  0
    4.6453    0.1284    0.0000 C   0  0  0  0  0  0  0  0  0  0  0  0
    3.6942   -0.1807    0.0000 C   0  0  0  0  0  0  0  0  0  0  0  0
    4.9543    1.0794    0.0000 C   0  0  0  0  0  0  0  0  0  0  0  0
    6.2633    0.1284    0.0000 C   0  0  0  0  0  0  0  0  0  0  0  0
    5.9543    1.0794    0.0000 C   0  0  0  0  0  0  0  0  0  0  0  0
    7.2144   -0.1807    0.0000 C   0  0  0  0  0  0  0  0  0  0  0  0
    2.0000    0.1795    0.0000 C   0  0  0  0  0  0  0  0  0  0  0  0
    3.2056   -0.5624    0.0000 H   0  0  0  0  0  0  0  0  0  0  0  0
    3.9853   -0.7281    0.0000 H   0  0  0  0  0  0  0  0  0  0  0  0
    5.4543   -1.0794    0.0000 H   0  0  0  0  0  0  0  0  0  0  0  0
    4.5898    1.5810    0.0000 H   0  0  0  0  0  0  0  0  0  0  0  0
    6.3187    1.5810    0.0000 H   0  0  0  0  0  0  0  0  0  0  0  0
    7.3432   -0.7871    0.0000 H   0  0  0  0  0  0  0  0  0  0  0  0
    1.8084    0.7691    0.0000 H   0  0  0  0  0  0  0  0  0  0  0  0
    1.4103   -0.0121    0.0000 H   0  0  0  0  0  0  0  0  0  0  0  0
    2.1916   -0.4102    0.0000 H   0  0  0  0  0  0  0  0  0  0  0  0
  1  5  1  0  0  0  0
  1 10  1  0  0  0  0
  2  9  2  0  0  0  0
  3  4  1  0  0  0  0
  3  7  1  0  0  0  0
  3 13  1  0  0  0  0
  4  5  1  0  0  0  0
  4  6  2  0  0  0  0
  5 11  1  0  0  0  0
  5 12  1  0  0  0  0
  6  8  1  0  0  0  0
  6 14  1  0  0  0  0
  7  8  2  0  0  0  0
  7  9  1  0  0  0  0
  8 15  1  0  0  0  0
  9 16  1  0  0  0  0
 10 17  1  0  0  0  0
 10 18  1  0  0  0  0
 10 19  1  0  0  0  0
M  END
>  <PUBCHEM_COMPOUND_CID>
86063753

>  <PUBCHEM_COMPOUND_CANONICALIZED>
1

>  <PUBCHEM_CACTVS_COMPLEXITY>
116

>  <PUBCHEM_CACTVS_HBOND_ACCEPTOR>
2

>  <PUBCHEM_CACTVS_HBOND_DONOR>
1

>  <PUBCHEM_CACTVS_ROTATABLE_BOND>
3

>  <PUBCHEM_CACTVS_SUBSKEYS>
AAADccBiMAAAAAAAAAAAAAAAAAAAAWAAAAAAAAAAAAAAAAABgAAAHgAQAAAACAihlgIygJLJlACoASxyxASCgCAnAiAImSGwbNgKJvLAtbmFEQhk0AHY6YeYWQEQAAAAAAAAAAAAAAAAAAAAAAAAAAAAAA==

>  <PUBCHEM_IUPAC_OPENEYE_NAME>
5-(methoxymethyl)-1H-pyrrole-2-carbaldehyde

>  <PUBCHEM_IUPAC_CAS_NAME>
5-(methoxymethyl)-1H-pyrrole-2-carboxaldehyde

>  <PUBCHEM_IUPAC_NAME>
5-(methoxymethyl)-1H-pyrrole-2-carbaldehyde

>  <PUBCHEM_IUPAC_SYSTEMATIC_NAME>
5-(methoxymethyl)-1H-pyrrole-2-carbaldehyde

>  <PUBCHEM_IUPAC_TRADITIONAL_NAME>
5-(methoxymethyl)-1H-pyrrole-2-carbaldehyde

>  <PUBCHEM_IUPAC_INCHI>
InChI=1S/C7H9NO2/c1-10-5-7-3-2-6(4-9)8-7/h2-4,8H,5H2,1H3

>  <PUBCHEM_IUPAC_INCHIKEY>
BOXJWCCJFRQJLV-UHFFFAOYSA-N

>  <PUBCHEM_XLOGP3_AA>
0.2

>  <PUBCHEM_EXACT_MASS>
139.063

>  <PUBCHEM_MOLECULAR_FORMULA>
C7H9NO2

>  <PUBCHEM_MOLECULAR_WEIGHT>
139.154

>  <PUBCHEM_OPENEYE_CAN_SMILES>
COCC1=CC=C(N1)C=O

>  <PUBCHEM_OPENEYE_ISO_SMILES>
COCC1=CC=C(N1)C=O

>  <PUBCHEM_CACTVS_TPSA>
42.1

>  <PUBCHEM_MONOISOTOPIC_WEIGHT>
139.063

>  <PUBCHEM_TOTAL_CHARGE>
0

>  <PUBCHEM_HEAVY_ATOM_COUNT>
10

>  <PUBCHEM_ATOM_DEF_STEREO_COUNT>
0

>  <PUBCHEM_ATOM_UDEF_STEREO_COUNT>
0

>  <PUBCHEM_BOND_DEF_STEREO_COUNT>
0

>  <PUBCHEM_BOND_UDEF_STEREO_COUNT>
0

>  <PUBCHEM_ISOTOPIC_ATOM_COUNT>
0

>  <PUBCHEM_COMPONENT_COUNT>
1

>  <PUBCHEM_CACTVS_TAUTO_COUNT>
5

>  <PUBCHEM_COORDINATE_TYPE>
1
5
255

>  <PUBCHEM_BONDANNOTATIONS>
3  4  8
3  7  8
4  6  8
6  8  8
7  8  8

$$$$
