86181346
 OpenBabel06101807152D

 62 62  0  0  1  0  0  0  0  0999 V2000
    8.9282    0.7500    0.0000 O   0  0  0  0  0  0  0  0  0  0  0  0
    8.0622    2.2500    0.0000 O   0  0  0  0  0  0  0  0  0  0  0  0
    4.5981    6.2500    0.0000 O   0  0  0  0  0  0  0  0  0  0  0  0
    2.8660    5.2500    0.0000 O   0  0  0  0  0  0  0  0  0  0  0  0
    8.9282   -2.2500    0.0000 C   0  0  0  0  0  0  0  0  0  0  0  0
    8.9282   -1.2500    0.0000 C   0  0  0  0  0  0  0  0  0  0  0  0
    9.7942   -2.7500    0.0000 C   0  0  0  0  0  0  0  0  0  0  0  0
    8.0622   -0.7500    0.0000 C   0  0  0  0  0  0  0  0  0  0  0  0
    9.7942   -3.7500    0.0000 C   0  0  0  0  0  0  0  0  0  0  0  0
    8.0622    0.2500    0.0000 C   0  0  3  0  0  0  0  0  0  0  0  0
   10.6603   -4.2500    0.0000 C   0  0  0  0  0  0  0  0  0  0  0  0
    7.1962    0.7500    0.0000 C   0  0  0  0  0  0  0  0  0  0  0  0
   10.6603   -5.2500    0.0000 C   0  0  0  0  0  0  0  0  0  0  0  0
    7.1962    1.7500    0.0000 C   0  0  0  0  0  0  0  0  0  0  0  0
   11.5263   -5.7500    0.0000 C   0  0  0  0  0  0  0  0  0  0  0  0
    6.3301    2.2500    0.0000 C   0  0  0  0  0  0  0  0  0  0  0  0
    6.3301    3.2500    0.0000 C   0  0  0  0  0  0  0  0  0  0  0  0
   11.5263   -6.7500    0.0000 C   0  0  0  0  0  0  0  0  0  0  0  0
    5.4641    3.7500    0.0000 C   0  0  0  0  0  0  0  0  0  0  0  0
    5.4641    4.7500    0.0000 C   0  0  0  0  0  0  0  0  0  0  0  0
    4.5981    3.2500    0.0000 C   0  0  0  0  0  0  0  0  0  0  0  0
    4.5981    5.2500    0.0000 C   0  0  0  0  0  0  0  0  0  0  0  0
    3.7320    3.7500    0.0000 C   0  0  0  0  0  0  0  0  0  0  0  0
    3.7320    4.7500    0.0000 C   0  0  0  0  0  0  0  0  0  0  0  0
    5.4641    6.7500    0.0000 C   0  0  0  0  0  0  0  0  0  0  0  0
    2.0000    4.7500    0.0000 C   0  0  0  0  0  0  0  0  0  0  0  0
    8.3176   -2.1423    0.0000 H   0  0  0  0  0  0  0  0  0  0  0  0
    8.7162   -2.8326    0.0000 H   0  0  0  0  0  0  0  0  0  0  0  0
    9.5388   -1.3577    0.0000 H   0  0  0  0  0  0  0  0  0  0  0  0
    9.1403   -0.6674    0.0000 H   0  0  0  0  0  0  0  0  0  0  0  0
   10.4048   -2.8577    0.0000 H   0  0  0  0  0  0  0  0  0  0  0  0
   10.0063   -2.1674    0.0000 H   0  0  0  0  0  0  0  0  0  0  0  0
    7.4516   -0.6423    0.0000 H   0  0  0  0  0  0  0  0  0  0  0  0
    7.8501   -1.3326    0.0000 H   0  0  0  0  0  0  0  0  0  0  0  0
    9.1836   -3.6423    0.0000 H   0  0  0  0  0  0  0  0  0  0  0  0
    9.5822   -4.3326    0.0000 H   0  0  0  0  0  0  0  0  0  0  0  0
    8.0622    0.8700    0.0000 H   0  0  0  0  0  0  0  0  0  0  0  0
   11.2708   -4.3577    0.0000 H   0  0  0  0  0  0  0  0  0  0  0  0
   10.8723   -3.6674    0.0000 H   0  0  0  0  0  0  0  0  0  0  0  0
    6.5856    0.8577    0.0000 H   0  0  0  0  0  0  0  0  0  0  0  0
    6.9841    0.1674    0.0000 H   0  0  0  0  0  0  0  0  0  0  0  0
   10.0497   -5.1423    0.0000 H   0  0  0  0  0  0  0  0  0  0  0  0
   10.4482   -5.8326    0.0000 H   0  0  0  0  0  0  0  0  0  0  0  0
   12.1369   -5.8577    0.0000 H   0  0  0  0  0  0  0  0  0  0  0  0
   11.7383   -5.1674    0.0000 H   0  0  0  0  0  0  0  0  0  0  0  0
    5.7196    2.3577    0.0000 H   0  0  0  0  0  0  0  0  0  0  0  0
    6.1181    1.6674    0.0000 H   0  0  0  0  0  0  0  0  0  0  0  0
    6.9407    3.1423    0.0000 H   0  0  0  0  0  0  0  0  0  0  0  0
    6.5422    3.8326    0.0000 H   0  0  0  0  0  0  0  0  0  0  0  0
    9.4651    0.4400    0.0000 H   0  0  0  0  0  0  0  0  0  0  0  0
   10.9063   -6.7500    0.0000 H   0  0  0  0  0  0  0  0  0  0  0  0
   11.5263   -7.3700    0.0000 H   0  0  0  0  0  0  0  0  0  0  0  0
   12.1463   -6.7500    0.0000 H   0  0  0  0  0  0  0  0  0  0  0  0
    6.0010    5.0600    0.0000 H   0  0  0  0  0  0  0  0  0  0  0  0
    4.5981    2.6300    0.0000 H   0  0  0  0  0  0  0  0  0  0  0  0
    3.1951    3.4400    0.0000 H   0  0  0  0  0  0  0  0  0  0  0  0
    5.7741    6.2131    0.0000 H   0  0  0  0  0  0  0  0  0  0  0  0
    6.0010    7.0600    0.0000 H   0  0  0  0  0  0  0  0  0  0  0  0
    5.1541    7.2869    0.0000 H   0  0  0  0  0  0  0  0  0  0  0  0
    1.6900    5.2869    0.0000 H   0  0  0  0  0  0  0  0  0  0  0  0
    1.4631    4.4400    0.0000 H   0  0  0  0  0  0  0  0  0  0  0  0
    2.3100    4.2131    0.0000 H   0  0  0  0  0  0  0  0  0  0  0  0
  1 10  1  0  0  0  0
  1 50  1  0  0  0  0
  2 14  2  0  0  0  0
  3 22  1  0  0  0  0
  3 25  1  0  0  0  0
  4 24  1  0  0  0  0
  4 26  1  0  0  0  0
  5  6  1  0  0  0  0
  5  7  1  0  0  0  0
  5 27  1  0  0  0  0
  5 28  1  0  0  0  0
  6  8  1  0  0  0  0
  6 29  1  0  0  0  0
  6 30  1  0  0  0  0
  7  9  1  0  0  0  0
  7 31  1  0  0  0  0
  7 32  1  0  0  0  0
  8 10  1  0  0  0  0
  8 33  1  0  0  0  0
  8 34  1  0  0  0  0
  9 11  1  0  0  0  0
  9 35  1  0  0  0  0
  9 36  1  0  0  0  0
 10 12  1  0  0  0  0
 10 37  1  0  0  0  0
 11 13  1  0  0  0  0
 11 38  1  0  0  0  0
 11 39  1  0  0  0  0
 12 14  1  0  0  0  0
 12 40  1  0  0  0  0
 12 41  1  0  0  0  0
 13 15  1  0  0  0  0
 13 42  1  0  0  0  0
 13 43  1  0  0  0  0
 14 16  1  0  0  0  0
 15 18  1  0  0  0  0
 15 44  1  0  0  0  0
 15 45  1  0  0  0  0
 16 17  1  0  0  0  0
 16 46  1  0  0  0  0
 16 47  1  0  0  0  0
 17 19  1  0  0  0  0
 17 48  1  0  0  0  0
 17 49  1  0  0  0  0
 18 51  1  0  0  0  0
 18 52  1  0  0  0  0
 18 53  1  0  0  0  0
 19 20  2  0  0  0  0
 19 21  1  0  0  0  0
 20 22  1  0  0  0  0
 20 54  1  0  0  0  0
 21 23  2  0  0  0  0
 21 55  1  0  0  0  0
 22 24  2  0  0  0  0
 23 24  1  0  0  0  0
 23 56  1  0  0  0  0
 25 57  1  0  0  0  0
 25 58  1  0  0  0  0
 25 59  1  0  0  0  0
 26 60  1  0  0  0  0
 26 61  1  0  0  0  0
 26 62  1  0  0  0  0
M  END
>  <PUBCHEM_COMPOUND_CID>
86181346

>  <PUBCHEM_COMPOUND_CANONICALIZED>
1

>  <PUBCHEM_CACTVS_COMPLEXITY>
358

>  <PUBCHEM_CACTVS_HBOND_ACCEPTOR>
4

>  <PUBCHEM_CACTVS_HBOND_DONOR>
1

>  <PUBCHEM_CACTVS_ROTATABLE_BOND>
15

>  <PUBCHEM_CACTVS_SUBSKEYS>
AAADcfB4OAAAAAAAAAAAAAAAAAAAAAAAAAAwAAAAAAAAAAABAAAAGgAACAAADBSgmAIyBoAABgCIAqBSAAACCAAgIAAIiAEGiIgNNjaEMRqAcCIk4BEKqAeIyPCOIAABAAAAQABAAAIAAACAAAAAAAAAAA==

>  <PUBCHEM_IUPAC_OPENEYE_NAME>
1-(3,4-dimethoxyphenyl)-5-hydroxy-tetradecan-3-one

>  <PUBCHEM_IUPAC_CAS_NAME>
1-(3,4-dimethoxyphenyl)-5-hydroxy-3-tetradecanone

>  <PUBCHEM_IUPAC_NAME>
1-(3,4-dimethoxyphenyl)-5-hydroxytetradecan-3-one

>  <PUBCHEM_IUPAC_SYSTEMATIC_NAME>
1-(3,4-dimethoxyphenyl)-5-oxidanyl-tetradecan-3-one

>  <PUBCHEM_IUPAC_TRADITIONAL_NAME>
1-(3,4-dimethoxyphenyl)-5-hydroxy-tetradecan-3-one

>  <PUBCHEM_IUPAC_INCHI>
InChI=1S/C22H36O4/c1-4-5-6-7-8-9-10-11-19(23)17-20(24)14-12-18-13-15-21(25-2)22(16-18)26-3/h13,15-16,19,23H,4-12,14,17H2,1-3H3

>  <PUBCHEM_IUPAC_INCHIKEY>
YCMYNWSNMYONMK-UHFFFAOYSA-N

>  <PUBCHEM_XLOGP3_AA>
5.6

>  <PUBCHEM_EXACT_MASS>
364.261

>  <PUBCHEM_MOLECULAR_FORMULA>
C22H36O4

>  <PUBCHEM_MOLECULAR_WEIGHT>
364.526

>  <PUBCHEM_OPENEYE_CAN_SMILES>
CCCCCCCCCC(CC(=O)CCC1=CC(=C(C=C1)OC)OC)O

>  <PUBCHEM_OPENEYE_ISO_SMILES>
CCCCCCCCCC(CC(=O)CCC1=CC(=C(C=C1)OC)OC)O

>  <PUBCHEM_CACTVS_TPSA>
55.8

>  <PUBCHEM_MONOISOTOPIC_WEIGHT>
364.261

>  <PUBCHEM_TOTAL_CHARGE>
0

>  <PUBCHEM_HEAVY_ATOM_COUNT>
26

>  <PUBCHEM_ATOM_DEF_STEREO_COUNT>
0

>  <PUBCHEM_ATOM_UDEF_STEREO_COUNT>
1

>  <PUBCHEM_BOND_DEF_STEREO_COUNT>
0

>  <PUBCHEM_BOND_UDEF_STEREO_COUNT>
0

>  <PUBCHEM_ISOTOPIC_ATOM_COUNT>
0

>  <PUBCHEM_COMPONENT_COUNT>
1

>  <PUBCHEM_CACTVS_TAUTO_COUNT>
3

>  <PUBCHEM_COORDINATE_TYPE>
1
5
255

>  <PUBCHEM_BONDANNOTATIONS>
10  1  3
19  20  8
19  21  8
20  22  8
21  23  8
22  24  8
23  24  8

$$$$
