86242003
 OpenBabel06101807152D

 45 48  0  0  0  0  0  0  0  0999 V2000
    9.3140   -0.0841    0.0000 O   0  0  0  0  0  0  0  0  0  0  0  0
    3.7288   -1.6023    0.0000 O   0  0  0  0  0  0  0  0  0  0  0  0
    2.9788    1.8463    0.0000 O   0  0  0  0  0  0  0  0  0  0  0  0
    5.8389   -1.0007    0.0000 N   0  0  0  0  0  0  0  0  0  0  0  0
    6.6446   -0.4185    0.0000 C   0  0  0  0  0  0  0  0  0  0  0  0
    7.6228   -0.6264    0.0000 C   0  0  0  0  0  0  0  0  0  0  0  0
    9.6435   -1.0722    0.0000 C   0  0  0  0  0  0  0  0  0  0  0  0
    6.3356    0.5326    0.0000 C   0  0  0  0  0  0  0  0  0  0  0  0
    8.2919    0.1168    0.0000 C   0  0  0  0  0  0  0  0  0  0  0  0
    5.3416    0.5300    0.0000 C   0  0  0  0  0  0  0  0  0  0  0  0
    5.0352   -0.4157    0.0000 C   0  0  0  0  0  0  0  0  0  0  0  0
    7.9829    1.0678    0.0000 C   0  0  0  0  0  0  0  0  0  0  0  0
    7.0048    1.2757    0.0000 C   0  0  0  0  0  0  0  0  0  0  0  0
    7.9294   -1.6219    0.0000 C   0  0  0  0  0  0  0  0  0  0  0  0
    8.9465   -1.8463    0.0000 C   0  0  0  0  0  0  0  0  0  0  0  0
   10.3892   -1.7385    0.0000 C   0  0  0  0  0  0  0  0  0  0  0  0
   10.5934   -0.7595    0.0000 C   0  0  0  0  0  0  0  0  0  0  0  0
    4.6600    1.3095    0.0000 C   0  0  0  0  0  0  0  0  0  0  0  0
    4.0260   -0.6474    0.0000 C   0  0  0  0  0  0  0  0  0  0  0  0
    8.6520    1.8110    0.0000 C   0  0  0  0  0  0  0  0  0  0  0  0
    3.6457    1.1012    0.0000 C   0  0  0  0  0  0  0  0  0  0  0  0
    3.3266    0.1161    0.0000 C   0  0  0  0  0  0  0  0  0  0  0  0
    2.7533   -1.8223    0.0000 C   0  0  0  0  0  0  0  0  0  0  0  0
    2.0000    1.6413    0.0000 C   0  0  0  0  0  0  0  0  0  0  0  0
    5.8378   -1.6207    0.0000 H   0  0  0  0  0  0  0  0  0  0  0  0
    6.8132    1.8654    0.0000 H   0  0  0  0  0  0  0  0  0  0  0  0
    7.5092   -2.0778    0.0000 H   0  0  0  0  0  0  0  0  0  0  0  0
    9.1358   -2.4367    0.0000 H   0  0  0  0  0  0  0  0  0  0  0  0
    9.9762   -2.2008    0.0000 H   0  0  0  0  0  0  0  0  0  0  0  0
   10.8516   -2.1516    0.0000 H   0  0  0  0  0  0  0  0  0  0  0  0
   10.8023   -1.2761    0.0000 H   0  0  0  0  0  0  0  0  0  0  0  0
   10.7872   -1.3484    0.0000 H   0  0  0  0  0  0  0  0  0  0  0  0
   11.1823   -0.5657    0.0000 H   0  0  0  0  0  0  0  0  0  0  0  0
   10.3995   -0.1706    0.0000 H   0  0  0  0  0  0  0  0  0  0  0  0
    4.8578    1.8971    0.0000 H   0  0  0  0  0  0  0  0  0  0  0  0
    9.1128    1.3961    0.0000 H   0  0  0  0  0  0  0  0  0  0  0  0
    9.0669    2.2717    0.0000 H   0  0  0  0  0  0  0  0  0  0  0  0
    8.1913    2.2258    0.0000 H   0  0  0  0  0  0  0  0  0  0  0  0
    2.7207   -0.0157    0.0000 H   0  0  0  0  0  0  0  0  0  0  0  0
    2.6169   -1.2175    0.0000 H   0  0  0  0  0  0  0  0  0  0  0  0
    2.1485   -1.9588    0.0000 H   0  0  0  0  0  0  0  0  0  0  0  0
    2.8898   -2.4271    0.0000 H   0  0  0  0  0  0  0  0  0  0  0  0
    1.8729    2.2481    0.0000 H   0  0  0  0  0  0  0  0  0  0  0  0
    1.3932    1.5142    0.0000 H   0  0  0  0  0  0  0  0  0  0  0  0
    2.1271    1.0345    0.0000 H   0  0  0  0  0  0  0  0  0  0  0  0
  1  7  1  0  0  0  0
  1  9  1  0  0  0  0
  2 19  1  0  0  0  0
  2 23  1  0  0  0  0
  3 21  1  0  0  0  0
  3 24  1  0  0  0  0
  4  5  1  0  0  0  0
  4 11  1  0  0  0  0
  4 25  1  0  0  0  0
  5  6  1  0  0  0  0
  5  8  2  0  0  0  0
  6  9  2  0  0  0  0
  6 14  1  0  0  0  0
  7 15  1  0  0  0  0
  7 16  1  0  0  0  0
  7 17  1  0  0  0  0
  8 10  1  0  0  0  0
  8 13  1  0  0  0  0
  9 12  1  0  0  0  0
 10 11  2  0  0  0  0
 10 18  1  0  0  0  0
 11 19  1  0  0  0  0
 12 13  2  0  0  0  0
 12 20  1  0  0  0  0
 13 26  1  0  0  0  0
 14 15  2  0  0  0  0
 14 27  1  0  0  0  0
 15 28  1  0  0  0  0
 16 29  1  0  0  0  0
 16 30  1  0  0  0  0
 16 31  1  0  0  0  0
 17 32  1  0  0  0  0
 17 33  1  0  0  0  0
 17 34  1  0  0  0  0
 18 21  2  0  0  0  0
 18 35  1  0  0  0  0
 19 22  2  0  0  0  0
 20 36  1  0  0  0  0
 20 37  1  0  0  0  0
 20 38  1  0  0  0  0
 21 22  1  0  0  0  0
 22 39  1  0  0  0  0
 23 40  1  0  0  0  0
 23 41  1  0  0  0  0
 23 42  1  0  0  0  0
 24 43  1  0  0  0  0
 24 44  1  0  0  0  0
 24 45  1  0  0  0  0
M  END
>  <PUBCHEM_COMPOUND_CID>
86242003

>  <PUBCHEM_COMPOUND_CANONICALIZED>
1

>  <PUBCHEM_CACTVS_COMPLEXITY>
505

>  <PUBCHEM_CACTVS_HBOND_ACCEPTOR>
3

>  <PUBCHEM_CACTVS_HBOND_DONOR>
1

>  <PUBCHEM_CACTVS_ROTATABLE_BOND>
2

>  <PUBCHEM_CACTVS_SUBSKEYS>
AAADceB6MAAAAAAAAAAAAAAAAAAAAWAAAAAwYIAAAAAAAFiB/AAAHgAQAAAADEyBngIyxvLJlACgAyRiRASCiCAhYCAImSAnTJgOJ+LEsZuHOCjnwB3Y6Aew8P8OqEADCgAKEABQgAYUABQgAAAAAAAAAA==

>  <PUBCHEM_IUPAC_OPENEYE_NAME>
8,10-dimethoxy-3,3,5-trimethyl-11H-pyrano[3,2-a]carbazole

>  <PUBCHEM_IUPAC_CAS_NAME>
8,10-dimethoxy-3,3,5-trimethyl-11H-pyrano[3,2-a]carbazole

>  <PUBCHEM_IUPAC_NAME>
8,10-dimethoxy-3,3,5-trimethyl-11H-pyrano[3,2-a]carbazole

>  <PUBCHEM_IUPAC_SYSTEMATIC_NAME>
8,10-dimethoxy-3,3,5-trimethyl-11H-pyrano[3,2-a]carbazole

>  <PUBCHEM_IUPAC_TRADITIONAL_NAME>
8,10-dimethoxy-3,3,5-trimethyl-11H-pyrano[3,2-a]carbazole

>  <PUBCHEM_IUPAC_INCHI>
InChI=1S/C20H21NO3/c1-11-8-14-15-9-12(22-4)10-16(23-5)18(15)21-17(14)13-6-7-20(2,3)24-19(11)13/h6-10,21H,1-5H3

>  <PUBCHEM_IUPAC_INCHIKEY>
APZRRMFSHXMDTQ-UHFFFAOYSA-N

>  <PUBCHEM_XLOGP3_AA>
4.6

>  <PUBCHEM_EXACT_MASS>
323.152

>  <PUBCHEM_MOLECULAR_FORMULA>
C20H21NO3

>  <PUBCHEM_MOLECULAR_WEIGHT>
323.392

>  <PUBCHEM_OPENEYE_CAN_SMILES>
CC1=C2C(=C3C(=C1)C4=CC(=CC(=C4N3)OC)OC)C=CC(O2)(C)C

>  <PUBCHEM_OPENEYE_ISO_SMILES>
CC1=C2C(=C3C(=C1)C4=CC(=CC(=C4N3)OC)OC)C=CC(O2)(C)C

>  <PUBCHEM_CACTVS_TPSA>
43.5

>  <PUBCHEM_MONOISOTOPIC_WEIGHT>
323.152

>  <PUBCHEM_TOTAL_CHARGE>
0

>  <PUBCHEM_HEAVY_ATOM_COUNT>
24

>  <PUBCHEM_ATOM_DEF_STEREO_COUNT>
0

>  <PUBCHEM_ATOM_UDEF_STEREO_COUNT>
0

>  <PUBCHEM_BOND_DEF_STEREO_COUNT>
0

>  <PUBCHEM_BOND_UDEF_STEREO_COUNT>
0

>  <PUBCHEM_ISOTOPIC_ATOM_COUNT>
0

>  <PUBCHEM_COMPONENT_COUNT>
1

>  <PUBCHEM_CACTVS_TAUTO_COUNT>
1

>  <PUBCHEM_COORDINATE_TYPE>
1
5
255

>  <PUBCHEM_BONDANNOTATIONS>
10  11  8
10  18  8
11  19  8
12  13  8
18  21  8
19  22  8
21  22  8
4  11  8
4  5  8
5  6  8
5  8  8
6  9  8
8  10  8
8  13  8
9  12  8

$$$$
