87113437
 OpenBabel06101807152D

 67 67  0  0  1  0  0  0  0  0999 V2000
    7.4651    2.6200    0.0000 S   0  0  3  0  0  0  0  0  0  0  0  0
    7.7590    6.2384    0.0000 S   0  0  0  0  0  0  0  0  0  0  0  0
    7.4651    3.6200    0.0000 O   0  0  0  0  0  0  0  0  0  0  0  0
   12.7415    2.4247    0.0000 O   0  0  0  0  0  0  0  0  0  0  0  0
   12.7415    0.8153    0.0000 O   0  0  0  0  0  0  0  0  0  0  0  0
    8.6250    7.7384    0.0000 O   0  0  0  0  0  0  0  0  0  0  0  0
    7.7590    9.2384    0.0000 O   0  0  0  0  0  0  0  0  0  0  0  0
    6.0270    8.2384    0.0000 N   0  0  0  0  0  0  0  0  0  0  0  0
    4.8671    2.1200    0.0000 C   0  0  0  0  0  0  0  0  0  0  0  0
    5.7331    2.6200    0.0000 C   0  0  0  0  0  0  0  0  0  0  0  0
    8.3312    2.1200    0.0000 C   0  0  3  0  0  0  0  0  0  0  0  0
    4.0010    2.6200    0.0000 C   0  0  0  0  0  0  0  0  0  0  0  0
    6.5991    2.1200    0.0000 C   0  0  0  0  0  0  0  0  0  0  0  0
    3.1350    2.1200    0.0000 C   0  0  0  0  0  0  0  0  0  0  0  0
    9.1972    2.6200    0.0000 C   0  0  0  0  0  0  0  0  0  0  0  0
    2.2690    2.6200    0.0000 C   0  0  0  0  0  0  0  0  0  0  0  0
    8.3312    1.1200    0.0000 C   0  0  0  0  0  0  0  0  0  0  0  0
   10.0632    2.1200    0.0000 C   0  0  0  0  0  0  0  0  0  0  0  0
    1.4030    2.1200    0.0000 C   0  0  0  0  0  0  0  0  0  0  0  0
   10.9292    2.6200    0.0000 C   0  0  0  0  0  0  0  0  0  0  0  0
   10.0632    1.1200    0.0000 C   0  0  0  0  0  0  0  0  0  0  0  0
   11.7953    2.1200    0.0000 C   0  0  0  0  0  0  0  0  0  0  0  0
    0.5369    2.6200    0.0000 C   0  0  0  0  0  0  0  0  0  0  0  0
   11.7953    1.1200    0.0000 C   0  0  0  0  0  0  0  0  0  0  0  0
   10.9292    0.6200    0.0000 C   0  0  0  0  0  0  0  0  0  0  0  0
   13.3251    1.6200    0.0000 C   0  0  0  0  0  0  0  0  0  0  0  0
    6.8930    7.7384    0.0000 C   0  0  3  0  0  0  0  0  0  0  0  0
    6.8930    6.7384    0.0000 C   0  0  0  0  0  0  0  0  0  0  0  0
    7.7590    8.2384    0.0000 C   0  0  0  0  0  0  0  0  0  0  0  0
    5.1609    7.7384    0.0000 C   0  0  0  0  0  0  0  0  0  0  0  0
    4.4685    1.6450    0.0000 H   0  0  0  0  0  0  0  0  0  0  0  0
    5.2656    1.6450    0.0000 H   0  0  0  0  0  0  0  0  0  0  0  0
    6.1316    3.0950    0.0000 H   0  0  0  0  0  0  0  0  0  0  0  0
    5.3346    3.0950    0.0000 H   0  0  0  0  0  0  0  0  0  0  0  0
    7.7942    1.8100    0.0000 H   0  0  0  0  0  0  0  0  0  0  0  0
    4.3996    3.0950    0.0000 H   0  0  0  0  0  0  0  0  0  0  0  0
    3.6025    3.0950    0.0000 H   0  0  0  0  0  0  0  0  0  0  0  0
    6.2006    1.6450    0.0000 H   0  0  0  0  0  0  0  0  0  0  0  0
    6.9976    1.6450    0.0000 H   0  0  0  0  0  0  0  0  0  0  0  0
    2.7365    1.6450    0.0000 H   0  0  0  0  0  0  0  0  0  0  0  0
    3.5335    1.6450    0.0000 H   0  0  0  0  0  0  0  0  0  0  0  0
    9.5957    3.0950    0.0000 H   0  0  0  0  0  0  0  0  0  0  0  0
    8.7987    3.0950    0.0000 H   0  0  0  0  0  0  0  0  0  0  0  0
    2.6675    3.0950    0.0000 H   0  0  0  0  0  0  0  0  0  0  0  0
    1.8705    3.0950    0.0000 H   0  0  0  0  0  0  0  0  0  0  0  0
    7.7112    1.1200    0.0000 H   0  0  0  0  0  0  0  0  0  0  0  0
    8.3312    0.5000    0.0000 H   0  0  0  0  0  0  0  0  0  0  0  0
    8.9512    1.1200    0.0000 H   0  0  0  0  0  0  0  0  0  0  0  0
    1.0044    1.6450    0.0000 H   0  0  0  0  0  0  0  0  0  0  0  0
    1.8015    1.6450    0.0000 H   0  0  0  0  0  0  0  0  0  0  0  0
   10.9292    3.2400    0.0000 H   0  0  0  0  0  0  0  0  0  0  0  0
    9.5263    0.8100    0.0000 H   0  0  0  0  0  0  0  0  0  0  0  0
    0.8469    3.1569    0.0000 H   0  0  0  0  0  0  0  0  0  0  0  0
    0.0000    2.9300    0.0000 H   0  0  0  0  0  0  0  0  0  0  0  0
    0.2269    2.0831    0.0000 H   0  0  0  0  0  0  0  0  0  0  0  0
   10.9292    0.0000    0.0000 H   0  0  0  0  0  0  0  0  0  0  0  0
   13.7860    1.2053    0.0000 H   0  0  0  0  0  0  0  0  0  0  0  0
   13.7860    2.0347    0.0000 H   0  0  0  0  0  0  0  0  0  0  0  0
    6.8930    8.3584    0.0000 H   0  0  0  0  0  0  0  0  0  0  0  0
    6.2824    6.8461    0.0000 H   0  0  0  0  0  0  0  0  0  0  0  0
    6.6809    6.1558    0.0000 H   0  0  0  0  0  0  0  0  0  0  0  0
    6.0270    8.8584    0.0000 H   0  0  0  0  0  0  0  0  0  0  0  0
    4.8509    8.2754    0.0000 H   0  0  0  0  0  0  0  0  0  0  0  0
    4.6240    7.4284    0.0000 H   0  0  0  0  0  0  0  0  0  0  0  0
    5.4709    7.2015    0.0000 H   0  0  0  0  0  0  0  0  0  0  0  0
    7.7590    5.6184    0.0000 H   0  0  0  0  0  0  0  0  0  0  0  0
    9.1620    8.0484    0.0000 H   0  0  0  0  0  0  0  0  0  0  0  0
  1  3  2  0  0  0  0
  1 11  1  0  0  0  0
  1 13  1  0  0  0  0
  2 28  1  0  0  0  0
  2 66  1  0  0  0  0
  4 22  1  0  0  0  0
  4 26  1  0  0  0  0
  5 24  1  0  0  0  0
  5 26  1  0  0  0  0
  6 29  1  0  0  0  0
  6 67  1  0  0  0  0
  7 29  2  0  0  0  0
  8 27  1  0  0  0  0
  8 30  1  0  0  0  0
  8 62  1  0  0  0  0
  9 10  1  0  0  0  0
  9 12  1  0  0  0  0
  9 31  1  0  0  0  0
  9 32  1  0  0  0  0
 10 13  1  0  0  0  0
 10 33  1  0  0  0  0
 10 34  1  0  0  0  0
 11 15  1  0  0  0  0
 11 17  1  0  0  0  0
 11 35  1  0  0  0  0
 12 14  1  0  0  0  0
 12 36  1  0  0  0  0
 12 37  1  0  0  0  0
 13 38  1  0  0  0  0
 13 39  1  0  0  0  0
 14 16  1  0  0  0  0
 14 40  1  0  0  0  0
 14 41  1  0  0  0  0
 15 18  1  0  0  0  0
 15 42  1  0  0  0  0
 15 43  1  0  0  0  0
 16 19  1  0  0  0  0
 16 44  1  0  0  0  0
 16 45  1  0  0  0  0
 17 46  1  0  0  0  0
 17 47  1  0  0  0  0
 17 48  1  0  0  0  0
 18 20  2  0  0  0  0
 18 21  1  0  0  0  0
 19 23  1  0  0  0  0
 19 49  1  0  0  0  0
 19 50  1  0  0  0  0
 20 22  1  0  0  0  0
 20 51  1  0  0  0  0
 21 25  2  0  0  0  0
 21 52  1  0  0  0  0
 22 24  2  0  0  0  0
 23 53  1  0  0  0  0
 23 54  1  0  0  0  0
 23 55  1  0  0  0  0
 24 25  1  0  0  0  0
 25 56  1  0  0  0  0
 26 57  1  0  0  0  0
 26 58  1  0  0  0  0
 27 28  1  0  0  0  0
 27 29  1  0  0  0  0
 27 59  1  0  0  0  0
 28 60  1  0  0  0  0
 28 61  1  0  0  0  0
 30 63  1  0  0  0  0
 30 64  1  0  0  0  0
 30 65  1  0  0  0  0
M  END
>  <PUBCHEM_COMPOUND_CID>
87113437

>  <PUBCHEM_COMPOUND_CANONICALIZED>
1

>  <PUBCHEM_CACTVS_COMPLEXITY>
420

>  <PUBCHEM_CACTVS_HBOND_ACCEPTOR>
8

>  <PUBCHEM_CACTVS_HBOND_DONOR>
3

>  <PUBCHEM_CACTVS_ROTATABLE_BOND>
13

>  <PUBCHEM_CACTVS_SUBSKEYS>
AAADcfB6OABgAAAAAAAAAAAAAAAAASAAAAAwAAAAAAAAAEgBAAAAHgQQCAAADCzF2AeyDoLABg6IAiDSCEBCCAAgIBAIiIGOiIgfJiKkMTqgcCIk0BE+qAeAwLAOIAABAAAAQABAAAIAAACAAAAAAAAAAA==

>  <PUBCHEM_IUPAC_OPENEYE_NAME>
2-(methylamino)-3-sulfanyl-propanoic acid;5-(2-octylsulfinylpropyl)-1,3-benzodioxole

>  <PUBCHEM_IUPAC_CAS_NAME>
3-mercapto-2-(methylamino)propanoic acid;5-(2-octylsulfinylpropyl)-1,3-benzodioxole

>  <PUBCHEM_IUPAC_NAME>
2-(methylamino)-3-sulfanylpropanoic acid;5-(2-octylsulfinylpropyl)-1,3-benzodioxole

>  <PUBCHEM_IUPAC_SYSTEMATIC_NAME>
2-(methylamino)-3-sulfanyl-propanoic acid;5-(2-octylsulfinylpropyl)-1,3-benzodioxole

>  <PUBCHEM_IUPAC_TRADITIONAL_NAME>
3-mercapto-2-(methylamino)propionic acid;5-(2-octylsulfinylpropyl)-1,3-benzodioxole

>  <PUBCHEM_IUPAC_INCHI>
InChI=1S/C18H28O3S.C4H9NO2S/c1-3-4-5-6-7-8-11-22(19)15(2)12-16-9-10-17-18(13-16)21-14-20-17;1-5-3(2-8)4(6)7/h9-10,13,15H,3-8,11-12,14H2,1-2H3;3,5,8H,2H2,1H3,(H,6,7)

>  <PUBCHEM_IUPAC_INCHIKEY>
NLJMYOADVICNFV-UHFFFAOYSA-N

>  <PUBCHEM_EXACT_MASS>
459.211

>  <PUBCHEM_MOLECULAR_FORMULA>
C22H37NO5S2

>  <PUBCHEM_MOLECULAR_WEIGHT>
459.66

>  <PUBCHEM_OPENEYE_CAN_SMILES>
CCCCCCCCS(=O)C(C)CC1=CC2=C(C=C1)OCO2.CNC(CS)C(=O)O

>  <PUBCHEM_OPENEYE_ISO_SMILES>
CCCCCCCCS(=O)C(C)CC1=CC2=C(C=C1)OCO2.CNC(CS)C(=O)O

>  <PUBCHEM_CACTVS_TPSA>
105

>  <PUBCHEM_MONOISOTOPIC_WEIGHT>
459.211

>  <PUBCHEM_TOTAL_CHARGE>
0

>  <PUBCHEM_HEAVY_ATOM_COUNT>
30

>  <PUBCHEM_ATOM_DEF_STEREO_COUNT>
0

>  <PUBCHEM_ATOM_UDEF_STEREO_COUNT>
3

>  <PUBCHEM_BOND_DEF_STEREO_COUNT>
0

>  <PUBCHEM_BOND_UDEF_STEREO_COUNT>
0

>  <PUBCHEM_ISOTOPIC_ATOM_COUNT>
0

>  <PUBCHEM_COMPONENT_COUNT>
2

>  <PUBCHEM_CACTVS_TAUTO_COUNT>
1

>  <PUBCHEM_COORDINATE_TYPE>
1
5
255

>  <PUBCHEM_BONDANNOTATIONS>
1  13  3
11  17  3
18  20  8
18  21  8
20  22  8
21  25  8
22  24  8
24  25  8
27  28  3

$$$$
