87309
 OpenBabel06101807152D

 24 23  0  0  1  0  0  0  0  0999 V2000
    6.0010   -0.0950    0.0000 S   0  0  3  0  0  0  0  0  0  0  0  0
    6.0010   -1.0950    0.0000 O   0  0  0  0  0  0  0  0  0  0  0  0
    2.5369   -0.0950    0.0000 O   0  0  0  0  0  0  0  0  0  0  0  0
    3.4030    1.4050    0.0000 O   0  0  0  0  0  0  0  0  0  0  0  0
    4.2690   -1.0950    0.0000 N   0  0  0  0  0  0  0  0  0  0  0  0
    5.1350    0.4050    0.0000 C   0  0  0  0  0  0  0  0  0  0  0  0
    4.2690   -0.0950    0.0000 C   0  0  1  0  0  0  0  0  0  0  0  0
    6.8671    0.4050    0.0000 C   0  0  0  0  0  0  0  0  0  0  0  0
    7.7331   -0.0950    0.0000 C   0  0  0  0  0  0  0  0  0  0  0  0
    8.5991    0.4050    0.0000 C   0  0  0  0  0  0  0  0  0  0  0  0
    3.4030    0.4050    0.0000 C   0  0  0  0  0  0  0  0  0  0  0  0
    5.5335    0.8799    0.0000 H   0  0  0  0  0  0  0  0  0  0  0  0
    4.7365    0.8799    0.0000 H   0  0  0  0  0  0  0  0  0  0  0  0
    4.8059   -0.4050    0.0000 H   0  0  0  0  0  0  0  0  0  0  0  0
    7.2656    0.8799    0.0000 H   0  0  0  0  0  0  0  0  0  0  0  0
    6.4685    0.8799    0.0000 H   0  0  0  0  0  0  0  0  0  0  0  0
    7.3346   -0.5699    0.0000 H   0  0  0  0  0  0  0  0  0  0  0  0
    8.1316   -0.5699    0.0000 H   0  0  0  0  0  0  0  0  0  0  0  0
    8.9091   -0.1319    0.0000 H   0  0  0  0  0  0  0  0  0  0  0  0
    9.1360    0.7150    0.0000 H   0  0  0  0  0  0  0  0  0  0  0  0
    8.2891    0.9419    0.0000 H   0  0  0  0  0  0  0  0  0  0  0  0
    4.8059   -1.4050    0.0000 H   0  0  0  0  0  0  0  0  0  0  0  0
    3.7320   -1.4050    0.0000 H   0  0  0  0  0  0  0  0  0  0  0  0
    2.0000    0.2150    0.0000 H   0  0  0  0  0  0  0  0  0  0  0  0
  1  2  2  0  0  0  0
  1  6  1  0  0  0  0
  1  8  1  0  0  0  0
  3 11  1  0  0  0  0
  3 24  1  0  0  0  0
  4 11  2  0  0  0  0
  5 22  1  0  0  0  0
  5 23  1  0  0  0  0
  6  7  1  0  0  0  0
  6 12  1  0  0  0  0
  6 13  1  0  0  0  0
  7  5  1  0  0  0  0
  7 11  1  0  0  0  0
  7 14  1  1  0  0  0
  8  9  1  0  0  0  0
  8 15  1  0  0  0  0
  8 16  1  0  0  0  0
  9 10  1  0  0  0  0
  9 17  1  0  0  0  0
  9 18  1  0  0  0  0
 10 19  1  0  0  0  0
 10 20  1  0  0  0  0
 10 21  1  0  0  0  0
M  END
>  <PUBCHEM_COMPOUND_CID>
87309

>  <PUBCHEM_COMPOUND_CANONICALIZED>
1

>  <PUBCHEM_CACTVS_COMPLEXITY>
160

>  <PUBCHEM_CACTVS_HBOND_ACCEPTOR>
5

>  <PUBCHEM_CACTVS_HBOND_DONOR>
2

>  <PUBCHEM_CACTVS_ROTATABLE_BOND>
5

>  <PUBCHEM_CACTVS_SUBSKEYS>
AAADccBiMABAAAAAAAAAAAAAAAAAAAAAAAAAAAAAAAAAAAAAAAAAHgQQCAAACCjFwASCCABAAgoIAACQCEBAAAAAABAAAIGAAAACAAAgAAAAQAAAEAAgAAAAAAAAAAAAAAAAAAAAAAAAAAAAAAAAAAAAAA==

>  <PUBCHEM_IUPAC_OPENEYE_NAME>
(2R)-2-amino-3-propylsulfinyl-propanoic acid

>  <PUBCHEM_IUPAC_CAS_NAME>
(2R)-2-amino-3-propylsulfinylpropanoic acid

>  <PUBCHEM_IUPAC_NAME>
(2R)-2-amino-3-propylsulfinylpropanoic acid

>  <PUBCHEM_IUPAC_SYSTEMATIC_NAME>
(2R)-2-azanyl-3-propylsulfinyl-propanoic acid

>  <PUBCHEM_IUPAC_TRADITIONAL_NAME>
(2R)-2-amino-3-propylsulfinyl-propionic acid

>  <PUBCHEM_IUPAC_INCHI>
InChI=1S/C6H13NO3S/c1-2-3-11(10)4-5(7)6(8)9/h5H,2-4,7H2,1H3,(H,8,9)/t5-,11?/m0/s1

>  <PUBCHEM_IUPAC_INCHIKEY>
JZKMSAGUCSIIAH-ITZCMCNPSA-N

>  <PUBCHEM_XLOGP3_AA>
-3.4

>  <PUBCHEM_EXACT_MASS>
179.062

>  <PUBCHEM_MOLECULAR_FORMULA>
C6H13NO3S

>  <PUBCHEM_MOLECULAR_WEIGHT>
179.234

>  <PUBCHEM_OPENEYE_CAN_SMILES>
CCCS(=O)CC(C(=O)O)N

>  <PUBCHEM_OPENEYE_ISO_SMILES>
CCCS(=O)C[C@@H](C(=O)O)N

>  <PUBCHEM_CACTVS_TPSA>
99.6

>  <PUBCHEM_MONOISOTOPIC_WEIGHT>
179.062

>  <PUBCHEM_TOTAL_CHARGE>
0

>  <PUBCHEM_HEAVY_ATOM_COUNT>
11

>  <PUBCHEM_ATOM_DEF_STEREO_COUNT>
1

>  <PUBCHEM_ATOM_UDEF_STEREO_COUNT>
1

>  <PUBCHEM_BOND_DEF_STEREO_COUNT>
0

>  <PUBCHEM_BOND_UDEF_STEREO_COUNT>
0

>  <PUBCHEM_ISOTOPIC_ATOM_COUNT>
0

>  <PUBCHEM_COMPONENT_COUNT>
1

>  <PUBCHEM_CACTVS_TAUTO_COUNT>
1

>  <PUBCHEM_COORDINATE_TYPE>
1
5
255

>  <PUBCHEM_BONDANNOTATIONS>
1  8  3
7  5  6

$$$$
