88662
 OpenBabel06101807152D

 33 32  0  0  0  0  0  0  0  0999 V2000
    4.2690    0.2315    0.0000 S   0  0  0  0  0  0  0  0  0  0  0  0
    3.4030   -0.2685    0.0000 P   0  0  0  0  0  0  0  0  0  0  0  0
    2.5369   -0.7685    0.0000 O   0  0  0  0  0  0  0  0  0  0  0  0
    2.9030    0.5976    0.0000 O   0  0  0  0  0  0  0  0  0  0  0  0
    3.9030   -1.1345    0.0000 O   0  0  0  0  0  0  0  0  0  0  0  0
    7.7331    0.2315    0.0000 N   0  0  0  0  0  0  0  0  0  0  0  0
   12.0632   -0.2685    0.0000 N   0  0  0  0  0  0  0  0  0  0  0  0
    9.4651    0.2315    0.0000 C   0  0  0  0  0  0  0  0  0  0  0  0
    8.5991   -0.2685    0.0000 C   0  0  0  0  0  0  0  0  0  0  0  0
    6.8671   -0.2685    0.0000 C   0  0  0  0  0  0  0  0  0  0  0  0
   10.3312   -0.2685    0.0000 C   0  0  0  0  0  0  0  0  0  0  0  0
    6.0010    0.2315    0.0000 C   0  0  0  0  0  0  0  0  0  0  0  0
   11.1972    0.2315    0.0000 C   0  0  0  0  0  0  0  0  0  0  0  0
    5.1350   -0.2685    0.0000 C   0  0  0  0  0  0  0  0  0  0  0  0
    9.8637    0.7065    0.0000 H   0  0  0  0  0  0  0  0  0  0  0  0
    9.0666    0.7065    0.0000 H   0  0  0  0  0  0  0  0  0  0  0  0
    8.2006   -0.7434    0.0000 H   0  0  0  0  0  0  0  0  0  0  0  0
    8.9976   -0.7434    0.0000 H   0  0  0  0  0  0  0  0  0  0  0  0
    6.4685   -0.7434    0.0000 H   0  0  0  0  0  0  0  0  0  0  0  0
    7.2656   -0.7434    0.0000 H   0  0  0  0  0  0  0  0  0  0  0  0
    9.9326   -0.7434    0.0000 H   0  0  0  0  0  0  0  0  0  0  0  0
   10.7297   -0.7434    0.0000 H   0  0  0  0  0  0  0  0  0  0  0  0
    6.3996    0.7065    0.0000 H   0  0  0  0  0  0  0  0  0  0  0  0
    5.6025    0.7065    0.0000 H   0  0  0  0  0  0  0  0  0  0  0  0
    7.7331    0.8515    0.0000 H   0  0  0  0  0  0  0  0  0  0  0  0
    4.7365   -0.7434    0.0000 H   0  0  0  0  0  0  0  0  0  0  0  0
    5.5335   -0.7434    0.0000 H   0  0  0  0  0  0  0  0  0  0  0  0
   11.5957    0.7065    0.0000 H   0  0  0  0  0  0  0  0  0  0  0  0
   10.7987    0.7065    0.0000 H   0  0  0  0  0  0  0  0  0  0  0  0
   12.6002    0.0415    0.0000 H   0  0  0  0  0  0  0  0  0  0  0  0
   12.0632   -0.8885    0.0000 H   0  0  0  0  0  0  0  0  0  0  0  0
    2.0000   -0.4585    0.0000 H   0  0  0  0  0  0  0  0  0  0  0  0
    3.2130    1.1345    0.0000 H   0  0  0  0  0  0  0  0  0  0  0  0
  1  2  1  0  0  0  0
  1 14  1  0  0  0  0
  2  3  1  0  0  0  0
  2  4  1  0  0  0  0
  2  5  2  0  0  0  0
  3 32  1  0  0  0  0
  4 33  1  0  0  0  0
  6  9  1  0  0  0  0
  6 10  1  0  0  0  0
  6 25  1  0  0  0  0
  7 13  1  0  0  0  0
  7 30  1  0  0  0  0
  7 31  1  0  0  0  0
  8  9  1  0  0  0  0
  8 11  1  0  0  0  0
  8 15  1  0  0  0  0
  8 16  1  0  0  0  0
  9 17  1  0  0  0  0
  9 18  1  0  0  0  0
 10 12  1  0  0  0  0
 10 19  1  0  0  0  0
 10 20  1  0  0  0  0
 11 13  1  0  0  0  0
 11 21  1  0  0  0  0
 11 22  1  0  0  0  0
 12 14  1  0  0  0  0
 12 23  1  0  0  0  0
 12 24  1  0  0  0  0
 13 28  1  0  0  0  0
 13 29  1  0  0  0  0
 14 26  1  0  0  0  0
 14 27  1  0  0  0  0
M  END
>  <PUBCHEM_COMPOUND_CID>
88662

>  <PUBCHEM_COMPOUND_CANONICALIZED>
1

>  <PUBCHEM_CACTVS_COMPLEXITY>
176

>  <PUBCHEM_CACTVS_HBOND_ACCEPTOR>
6

>  <PUBCHEM_CACTVS_HBOND_DONOR>
4

>  <PUBCHEM_CACTVS_ROTATABLE_BOND>
9

>  <PUBCHEM_CACTVS_SUBSKEYS>
AAADceBjMAJAAAAAAAAAAAAAAAAAAAAAAAAAAAAAAAAAAAAAAAAAHAQQCCAACADFQASAAALAABAAQAAAAIAAAAAAAAAAAIAIAAAAAAAAgAAEAAAAEACAAAAAAAAAAAAAAAAAAAAAAAAAAAAAAAAAAAAAAA==

>  <PUBCHEM_IUPAC_OPENEYE_NAME>
3-(4-aminobutylamino)propylsulfanylphosphonic acid

>  <PUBCHEM_IUPAC_CAS_NAME>
[3-(4-aminobutylamino)propylthio]phosphonic acid

>  <PUBCHEM_IUPAC_NAME>
3-(4-aminobutylamino)propylsulfanylphosphonic acid

>  <PUBCHEM_IUPAC_SYSTEMATIC_NAME>
3-(4-azanylbutylamino)propylsulfanylphosphonic acid

>  <PUBCHEM_IUPAC_TRADITIONAL_NAME>
[3-(4-aminobutylamino)propylthio]phosphonic acid

>  <PUBCHEM_IUPAC_INCHI>
InChI=1S/C7H19N2O3PS/c8-4-1-2-5-9-6-3-7-14-13(10,11)12/h9H,1-8H2,(H2,10,11,12)

>  <PUBCHEM_IUPAC_INCHIKEY>
CQERETBAVFSZEJ-UHFFFAOYSA-N

>  <PUBCHEM_XLOGP3_AA>
-3.7

>  <PUBCHEM_EXACT_MASS>
242.085

>  <PUBCHEM_MOLECULAR_FORMULA>
C7H19N2O3PS

>  <PUBCHEM_MOLECULAR_WEIGHT>
242.274

>  <PUBCHEM_OPENEYE_CAN_SMILES>
C(CCNCCCSP(=O)(O)O)CN

>  <PUBCHEM_OPENEYE_ISO_SMILES>
C(CCNCCCSP(=O)(O)O)CN

>  <PUBCHEM_CACTVS_TPSA>
121

>  <PUBCHEM_MONOISOTOPIC_WEIGHT>
242.085

>  <PUBCHEM_TOTAL_CHARGE>
0

>  <PUBCHEM_HEAVY_ATOM_COUNT>
14

>  <PUBCHEM_ATOM_DEF_STEREO_COUNT>
0

>  <PUBCHEM_ATOM_UDEF_STEREO_COUNT>
0

>  <PUBCHEM_BOND_DEF_STEREO_COUNT>
0

>  <PUBCHEM_BOND_UDEF_STEREO_COUNT>
0

>  <PUBCHEM_ISOTOPIC_ATOM_COUNT>
0

>  <PUBCHEM_COMPONENT_COUNT>
1

>  <PUBCHEM_CACTVS_TAUTO_COUNT>
1

>  <PUBCHEM_COORDINATE_TYPE>
1
5
255

$$$$
