90470732
 OpenBabel06101807152D

 76 80  0  0  1  0  0  0  0  0999 V2000
    7.7331    0.0725    0.0000 O   0  0  0  0  0  0  0  0  0  0  0  0
    6.0010   -0.9276    0.0000 O   0  0  0  0  0  0  0  0  0  0  0  0
    4.2690   -0.9276    0.0000 O   0  0  0  0  0  0  0  0  0  0  0  0
    6.0010    2.0724    0.0000 O   0  0  0  0  0  0  0  0  0  0  0  0
    7.7331    3.0724    0.0000 O   0  0  0  0  0  0  0  0  0  0  0  0
    9.4651    0.0725    0.0000 O   0  0  0  0  0  0  0  0  0  0  0  0
    9.4651    2.0724    0.0000 O   0  0  0  0  0  0  0  0  0  0  0  0
    6.0010   -2.9276    0.0000 O   0  0  0  0  0  0  0  0  0  0  0  0
    4.2690   -3.9276    0.0000 O   0  0  0  0  0  0  0  0  0  0  0  0
    2.5369   -2.9276    0.0000 O   0  0  0  0  0  0  0  0  0  0  0  0
   12.0632    0.5724    0.0000 O   0  3  0  0  0  0  0  0  0  0  0  0
   10.3094    3.6039    0.0000 O   0  0  0  0  0  0  0  0  0  0  0  0
   13.8492    3.6176    0.0000 O   0  0  0  0  0  0  0  0  0  0  0  0
    9.4651   -2.9276    0.0000 O   0  0  0  0  0  0  0  0  0  0  0  0
   11.1972   -3.9276    0.0000 O   0  0  0  0  0  0  0  0  0  0  0  0
    6.8671    0.5724    0.0000 C   0  0  1  0  0  0  0  0  0  0  0  0
    6.8671    1.5724    0.0000 C   0  0  2  0  0  0  0  0  0  0  0  0
    7.7331    2.0724    0.0000 C   0  0  1  0  0  0  0  0  0  0  0  0
    8.5991    1.5724    0.0000 C   0  0  2  0  0  0  0  0  0  0  0  0
    5.1350   -2.4276    0.0000 C   0  0  1  0  0  0  0  0  0  0  0  0
    5.1350   -1.4276    0.0000 C   0  0  2  0  0  0  0  0  0  0  0  0
    4.2690   -2.9276    0.0000 C   0  0  1  0  0  0  0  0  0  0  0  0
    3.4030   -2.4276    0.0000 C   0  0  2  0  0  0  0  0  0  0  0  0
    8.5991    0.5724    0.0000 C   0  0  1  0  0  0  0  0  0  0  0  0
    6.0010    0.0725    0.0000 C   0  0  0  0  0  0  0  0  0  0  0  0
    3.4030   -1.4276    0.0000 C   0  0  2  0  0  0  0  0  0  0  0  0
    2.5369   -0.9276    0.0000 C   0  0  0  0  0  0  0  0  0  0  0  0
   10.3312    0.5724    0.0000 C   0  0  0  0  0  0  0  0  0  0  0  0
   11.1972    0.0725    0.0000 C   0  0  0  0  0  0  0  0  0  0  0  0
   10.3312    1.5724    0.0000 C   0  0  0  0  0  0  0  0  0  0  0  0
   11.1972    2.0724    0.0000 C   0  0  0  0  0  0  0  0  0  0  0  0
   11.1972   -0.9276    0.0000 C   0  0  0  0  0  0  0  0  0  0  0  0
   12.0632    1.5724    0.0000 C   0  0  0  0  0  0  0  0  0  0  0  0
   11.1811    3.1140    0.0000 C   0  0  0  0  0  0  0  0  0  0  0  0
   12.9732    2.0793    0.0000 C   0  0  0  0  0  0  0  0  0  0  0  0
   10.3312   -1.4276    0.0000 C   0  0  0  0  0  0  0  0  0  0  0  0
   12.0632   -1.4276    0.0000 C   0  0  0  0  0  0  0  0  0  0  0  0
   12.0792    3.6417    0.0000 C   0  0  0  0  0  0  0  0  0  0  0  0
   12.9812    3.1209    0.0000 C   0  0  0  0  0  0  0  0  0  0  0  0
   10.3312   -2.4276    0.0000 C   0  0  0  0  0  0  0  0  0  0  0  0
   12.0632   -2.4276    0.0000 C   0  0  0  0  0  0  0  0  0  0  0  0
   11.1972   -2.9276    0.0000 C   0  0  0  0  0  0  0  0  0  0  0  0
    9.4651   -3.9276    0.0000 C   0  0  0  0  0  0  0  0  0  0  0  0
    6.8671   -0.0475    0.0000 H   0  0  0  0  0  0  0  0  0  0  0  0
    6.3301    1.2624    0.0000 H   0  0  0  0  0  0  0  0  0  0  0  0
    7.1962    2.3824    0.0000 H   0  0  0  0  0  0  0  0  0  0  0  0
    8.5991    2.1924    0.0000 H   0  0  0  0  0  0  0  0  0  0  0  0
    5.1350   -3.0476    0.0000 H   0  0  0  0  0  0  0  0  0  0  0  0
    5.6720   -1.7376    0.0000 H   0  0  0  0  0  0  0  0  0  0  0  0
    3.7320   -3.2376    0.0000 H   0  0  0  0  0  0  0  0  0  0  0  0
    2.8660   -2.1176    0.0000 H   0  0  0  0  0  0  0  0  0  0  0  0
    8.5991   -0.0475    0.0000 H   0  0  0  0  0  0  0  0  0  0  0  0
    5.7890    0.6551    0.0000 H   0  0  0  0  0  0  0  0  0  0  0  0
    5.3905   -0.0352    0.0000 H   0  0  0  0  0  0  0  0  0  0  0  0
    3.4030   -0.8076    0.0000 H   0  0  0  0  0  0  0  0  0  0  0  0
    2.8469   -0.3906    0.0000 H   0  0  0  0  0  0  0  0  0  0  0  0
    2.0000   -0.6176    0.0000 H   0  0  0  0  0  0  0  0  0  0  0  0
    2.2269   -1.4645    0.0000 H   0  0  0  0  0  0  0  0  0  0  0  0
    5.4641    1.7624    0.0000 H   0  0  0  0  0  0  0  0  0  0  0  0
    7.1962    3.3824    0.0000 H   0  0  0  0  0  0  0  0  0  0  0  0
    9.4651    2.6924    0.0000 H   0  0  0  0  0  0  0  0  0  0  0  0
    6.5380   -2.6176    0.0000 H   0  0  0  0  0  0  0  0  0  0  0  0
    3.7320   -4.2376    0.0000 H   0  0  0  0  0  0  0  0  0  0  0  0
    2.0000   -2.6176    0.0000 H   0  0  0  0  0  0  0  0  0  0  0  0
    9.7942    1.8824    0.0000 H   0  0  0  0  0  0  0  0  0  0  0  0
   13.5065    1.7631    0.0000 H   0  0  0  0  0  0  0  0  0  0  0  0
    9.7942   -1.1176    0.0000 H   0  0  0  0  0  0  0  0  0  0  0  0
   12.6002   -1.1176    0.0000 H   0  0  0  0  0  0  0  0  0  0  0  0
   12.0768    4.2617    0.0000 H   0  0  0  0  0  0  0  0  0  0  0  0
   12.6002   -2.7376    0.0000 H   0  0  0  0  0  0  0  0  0  0  0  0
   10.3022    4.2239    0.0000 H   0  0  0  0  0  0  0  0  0  0  0  0
   13.8516    4.2376    0.0000 H   0  0  0  0  0  0  0  0  0  0  0  0
   11.7341   -4.2376    0.0000 H   0  0  0  0  0  0  0  0  0  0  0  0
    8.8451   -3.9276    0.0000 H   0  0  0  0  0  0  0  0  0  0  0  0
    9.4651   -4.5476    0.0000 H   0  0  0  0  0  0  0  0  0  0  0  0
   10.0851   -3.9276    0.0000 H   0  0  0  0  0  0  0  0  0  0  0  0
  1 16  1  0  0  0  0
  1 24  1  0  0  0  0
  2 25  1  0  0  0  0
  3 21  1  0  0  0  0
  3 26  1  0  0  0  0
  4 59  1  0  0  0  0
  5 60  1  0  0  0  0
  6 28  1  0  0  0  0
  7 61  1  0  0  0  0
  8 62  1  0  0  0  0
  9 63  1  0  0  0  0
 10 64  1  0  0  0  0
 11 29  2  0  0  0  0
 11 33  1  0  0  0  0
 12 34  1  0  0  0  0
 12 71  1  0  0  0  0
 13 39  1  0  0  0  0
 13 72  1  0  0  0  0
 14 40  1  0  0  0  0
 14 43  1  0  0  0  0
 15 42  1  0  0  0  0
 15 73  1  0  0  0  0
 16 17  1  1  0  0  0
 16 25  1  0  0  0  0
 16 44  1  0  0  0  0
 17  4  1  0  0  0  0
 17 18  1  6  0  0  0
 17 45  1  0  0  0  0
 18  5  1  0  0  0  0
 18 19  1  1  0  0  0
 18 46  1  0  0  0  0
 19  7  1  0  0  0  0
 19 24  1  6  0  0  0
 19 47  1  0  0  0  0
 20  8  1  0  0  0  0
 20 21  1  1  0  0  0
 20 48  1  0  0  0  0
 21  2  1  0  0  0  0
 21 49  1  6  0  0  0
 22  9  1  0  0  0  0
 22 20  1  1  0  0  0
 22 50  1  0  0  0  0
 23 10  1  0  0  0  0
 23 22  1  6  0  0  0
 23 51  1  0  0  0  0
 24  6  1  0  0  0  0
 24 52  1  1  0  0  0
 25 53  1  0  0  0  0
 25 54  1  0  0  0  0
 26 23  1  1  0  0  0
 26 27  1  0  0  0  0
 26 55  1  0  0  0  0
 27 56  1  0  0  0  0
 27 57  1  0  0  0  0
 27 58  1  0  0  0  0
 28 29  1  0  0  0  0
 28 30  2  0  0  0  0
 29 32  1  0  0  0  0
 30 31  1  0  0  0  0
 30 65  1  0  0  0  0
 31 33  1  0  0  0  0
 31 34  2  0  0  0  0
 32 36  2  0  0  0  0
 32 37  1  0  0  0  0
 33 35  2  0  0  0  0
 34 38  1  0  0  0  0
 35 39  1  0  0  0  0
 35 66  1  0  0  0  0
 36 40  1  0  0  0  0
 36 67  1  0  0  0  0
 37 41  2  0  0  0  0
 37 68  1  0  0  0  0
 38 39  2  0  0  0  0
 38 69  1  0  0  0  0
 40 42  2  0  0  0  0
 41 42  1  0  0  0  0
 41 70  1  0  0  0  0
 43 74  1  0  0  0  0
 43 75  1  0  0  0  0
 43 76  1  0  0  0  0
M  CHG  1  11   1
M  END
>  <PUBCHEM_COMPOUND_CID>
90470732

>  <PUBCHEM_COMPOUND_CANONICALIZED>
1

>  <PUBCHEM_CACTVS_COMPLEXITY>
898

>  <PUBCHEM_CACTVS_HBOND_ACCEPTOR>
14

>  <PUBCHEM_CACTVS_HBOND_DONOR>
9

>  <PUBCHEM_CACTVS_ROTATABLE_BOND>
7

>  <PUBCHEM_CACTVS_SUBSKEYS>
AAADcfB4PAAAAAAAAAAAAAAAAAAAAAAAAAA0aJECAAAAAACR9AAAGgAACAAADBSwmAMyDsAABkCIAqBSAAICCAAkIAAIiAFGiMgdNzaGNR6ieWOl4BUPuYfK7PzOIAABCAAIQABAAAIQABCAAAAAAAAAAA==

>  <PUBCHEM_IUPAC_OPENEYE_NAME>
(2R,3R,4R,5R,6S)-2-[[(2R,3S,4S,5R,6S)-6-[5,7-dihydroxy-2-(4-hydroxy-3-methoxy-phenyl)chromenylium-3-yl]oxy-3,4,5-trihydroxy-tetrahydropyran-2-yl]methoxy]-6-methyl-tetrahydropyran-3,4,5-triol

>  <PUBCHEM_IUPAC_CAS_NAME>
(2R,3R,4R,5R,6S)-2-[[(2R,3S,4S,5R,6S)-6-[[5,7-dihydroxy-2-(4-hydroxy-3-methoxyphenyl)-1-benzopyrylium-3-yl]oxy]-3,4,5-trihydroxy-2-oxanyl]methoxy]-6-methyloxane-3,4,5-triol

>  <PUBCHEM_IUPAC_NAME>
(2R,3R,4R,5R,6S)-2-[[(2R,3S,4S,5R,6S)-6-[5,7-dihydroxy-2-(4-hydroxy-3-methoxyphenyl)chromenylium-3-yl]oxy-3,4,5-trihydroxyoxan-2-yl]methoxy]-6-methyloxane-3,4,5-triol

>  <PUBCHEM_IUPAC_SYSTEMATIC_NAME>
(2R,3R,4R,5R,6S)-2-[[(2R,3S,4S,5R,6S)-6-[2-(3-methoxy-4-oxidanyl-phenyl)-5,7-bis(oxidanyl)chromenylium-3-yl]oxy-3,4,5-tris(oxidanyl)oxan-2-yl]methoxy]-6-methyl-oxane-3,4,5-triol

>  <PUBCHEM_IUPAC_TRADITIONAL_NAME>
(2R,3R,4R,5R,6S)-2-[[(2R,3S,4S,5R,6S)-6-[[5,7-dihydroxy-2-(4-hydroxy-3-methoxy-phenyl)-1-benzopyrylium-3-yl]oxy]-3,4,5-trihydroxy-tetrahydropyran-2-yl]methoxy]-6-methyl-tetrahydropyran-3,4,5-triol

>  <PUBCHEM_IUPAC_INCHI>
InChI=1S/C28H32O15/c1-10-20(32)22(34)24(36)27(40-10)39-9-19-21(33)23(35)25(37)28(43-19)42-18-8-13-15(31)6-12(29)7-16(13)41-26(18)11-3-4-14(30)17(5-11)38-2/h3-8,10,19-25,27-28,32-37H,9H2,1-2H3,(H2-,29,30,31)/p+1/t10-,19+,20-,21+,22+,23-,24+,25+,27+,28+/m0/s1

>  <PUBCHEM_IUPAC_INCHIKEY>
ONQVTPMFYSRRLL-HUJUZFAXSA-O

>  <PUBCHEM_EXACT_MASS>
609.182

>  <PUBCHEM_MOLECULAR_FORMULA>
C28H33O15+

>  <PUBCHEM_MOLECULAR_WEIGHT>
609.557

>  <PUBCHEM_OPENEYE_CAN_SMILES>
CC1C(C(C(C(O1)OCC2C(C(C(C(O2)OC3=C([O+]=C4C=C(C=C(C4=C3)O)O)C5=CC(=C(C=C5)O)OC)O)O)O)O)O)O

>  <PUBCHEM_OPENEYE_ISO_SMILES>
C[C@H]1[C@@H]([C@H]([C@H]([C@@H](O1)OC[C@@H]2[C@H]([C@@H]([C@H]([C@@H](O2)OC3=C([O+]=C4C=C(C=C(C4=C3)O)O)C5=CC(=C(C=C5)O)OC)O)O)O)O)O)O

>  <PUBCHEM_CACTVS_TPSA>
229

>  <PUBCHEM_MONOISOTOPIC_WEIGHT>
609.182

>  <PUBCHEM_TOTAL_CHARGE>
1

>  <PUBCHEM_HEAVY_ATOM_COUNT>
43

>  <PUBCHEM_ATOM_DEF_STEREO_COUNT>
10

>  <PUBCHEM_ATOM_UDEF_STEREO_COUNT>
0

>  <PUBCHEM_BOND_DEF_STEREO_COUNT>
0

>  <PUBCHEM_BOND_UDEF_STEREO_COUNT>
0

>  <PUBCHEM_ISOTOPIC_ATOM_COUNT>
0

>  <PUBCHEM_COMPONENT_COUNT>
1

>  <PUBCHEM_CACTVS_TAUTO_COUNT>
65

>  <PUBCHEM_COORDINATE_TYPE>
1
5
255

>  <PUBCHEM_BONDANNOTATIONS>
23  10  5
11  29  8
11  33  8
16  25  6
21  2  5
26  27  6
28  29  8
28  30  8
30  31  8
31  33  8
31  34  8
32  36  8
32  37  8
33  35  8
34  38  8
35  39  8
36  40  8
37  41  8
38  39  8
17  4  5
40  42  8
41  42  8
18  5  6
24  6  6
19  7  5
20  8  6
22  9  6

$$$$
