90475437
 OpenBabel06101807152D

 32 34  0  0  0  0  0  0  0  0999 V2000
    2.7493   -1.0043    0.0000 O   0  0  0  0  0  0  0  0  0  0  0  0
    2.0000    2.4554    0.0000 O   0  0  0  0  0  0  0  0  0  0  0  0
    4.8717   -3.4052    0.0000 O   0  0  0  0  0  0  0  0  0  0  0  0
    4.8717   -0.4052    0.0000 C   0  0  3  0  0  0  0  0  0  0  0  0
    5.6808    0.1826    0.0000 C   0  0  0  0  0  0  0  0  0  0  0  0
    4.0627    0.1826    0.0000 C   0  0  0  0  0  0  0  0  0  0  0  0
    5.3717    1.1336    0.0000 C   0  0  0  0  0  0  0  0  0  0  0  0
    4.3717    1.1336    0.0000 C   0  0  0  0  0  0  0  0  0  0  0  0
    5.7378   -0.9052    0.0000 C   0  0  0  0  0  0  0  0  0  0  0  0
    4.0057   -0.9052    0.0000 C   0  0  0  0  0  0  0  0  0  0  0  0
    3.0473   -0.0497    0.0000 C   0  0  0  0  0  0  0  0  0  0  0  0
    3.6868    1.9184    0.0000 C   0  0  0  0  0  0  0  0  0  0  0  0
    4.0057   -1.9052    0.0000 C   0  0  0  0  0  0  0  0  0  0  0  0
    5.7378   -1.9052    0.0000 C   0  0  0  0  0  0  0  0  0  0  0  0
    2.3444    0.7190    0.0000 C   0  0  0  0  0  0  0  0  0  0  0  0
    2.6663    1.7096    0.0000 C   0  0  0  0  0  0  0  0  0  0  0  0
    4.8717   -2.4052    0.0000 C   0  0  0  0  0  0  0  0  0  0  0  0
    2.3127    3.4052    0.0000 C   0  0  0  0  0  0  0  0  0  0  0  0
    5.9908   -0.3544    0.0000 H   0  0  0  0  0  0  0  0  0  0  0  0
    6.2472    0.4347    0.0000 H   0  0  0  0  0  0  0  0  0  0  0  0
    5.9782    1.2625    0.0000 H   0  0  0  0  0  0  0  0  0  0  0  0
    5.3069    1.7502    0.0000 H   0  0  0  0  0  0  0  0  0  0  0  0
    6.2747   -0.5952    0.0000 H   0  0  0  0  0  0  0  0  0  0  0  0
    3.4688   -0.5952    0.0000 H   0  0  0  0  0  0  0  0  0  0  0  0
    3.8852    2.5058    0.0000 H   0  0  0  0  0  0  0  0  0  0  0  0
    6.2747   -2.2152    0.0000 H   0  0  0  0  0  0  0  0  0  0  0  0
    3.4688   -2.2152    0.0000 H   0  0  0  0  0  0  0  0  0  0  0  0
    1.7384    0.5878    0.0000 H   0  0  0  0  0  0  0  0  0  0  0  0
    2.1444   -1.1402    0.0000 H   0  0  0  0  0  0  0  0  0  0  0  0
    2.9016    3.2114    0.0000 H   0  0  0  0  0  0  0  0  0  0  0  0
    2.5065    3.9941    0.0000 H   0  0  0  0  0  0  0  0  0  0  0  0
    1.7238    3.5991    0.0000 H   0  0  0  0  0  0  0  0  0  0  0  0
  1 11  1  0  0  0  0
  1 29  1  0  0  0  0
  2 16  1  0  0  0  0
  2 18  1  0  0  0  0
  3 17  2  0  0  0  0
  4  5  1  0  0  0  0
  4  6  1  0  0  0  0
  4  9  1  0  0  0  0
  4 10  1  0  0  0  0
  5  7  1  0  0  0  0
  5 19  1  0  0  0  0
  5 20  1  0  0  0  0
  6  8  2  0  0  0  0
  6 11  1  0  0  0  0
  7  8  1  0  0  0  0
  7 21  1  0  0  0  0
  7 22  1  0  0  0  0
  8 12  1  0  0  0  0
  9 14  2  0  0  0  0
  9 23  1  0  0  0  0
 10 13  2  0  0  0  0
 10 24  1  0  0  0  0
 11 15  2  0  0  0  0
 12 16  2  0  0  0  0
 12 25  1  0  0  0  0
 13 17  1  0  0  0  0
 13 27  1  0  0  0  0
 14 17  1  0  0  0  0
 14 26  1  0  0  0  0
 15 16  1  0  0  0  0
 15 28  1  0  0  0  0
 18 30  1  0  0  0  0
 18 31  1  0  0  0  0
 18 32  1  0  0  0  0
M  END
>  <PUBCHEM_COMPOUND_CID>
90475437

>  <PUBCHEM_COMPOUND_CANONICALIZED>
1

>  <PUBCHEM_CACTVS_COMPLEXITY>
394

>  <PUBCHEM_CACTVS_HBOND_ACCEPTOR>
3

>  <PUBCHEM_CACTVS_HBOND_DONOR>
1

>  <PUBCHEM_CACTVS_ROTATABLE_BOND>
1

>  <PUBCHEM_CACTVS_SUBSKEYS>
AAADccBwMAAAAAAAAAAAAAAAAAAAAYAAAAAwQAAAAAAAAGABAAAAGgAACAAADgSAmAIyBoAABgCIAqBSAAACCAAgIAAIiAAGCMgMJyKGMRqAcCAlwBUIuYeA4PwPoAABCAAYAABAAAIQADAAAQAACAAAAA==

>  <PUBCHEM_IUPAC_OPENEYE_NAME>
7'-hydroxy-5'-methoxy-spiro[cyclohexa-2,5-diene-4,1'-indane]-1-one

>  <PUBCHEM_IUPAC_CAS_NAME>
4-hydroxy-6-methoxy-1'-spiro[1,2-dihydroindene-3,4'-cyclohexa-2,5-diene]one

>  <PUBCHEM_IUPAC_NAME>
4-hydroxy-6-methoxyspiro[1,2-dihydroindene-3,4'-cyclohexa-2,5-diene]-1'-one

>  <PUBCHEM_IUPAC_SYSTEMATIC_NAME>
6-methoxy-4-oxidanyl-spiro[1,2-dihydroindene-3,4'-cyclohexa-2,5-diene]-1'-one

>  <PUBCHEM_IUPAC_TRADITIONAL_NAME>
7'-hydroxy-5'-methoxy-spiro[cyclohexa-2,5-diene-4,1'-indane]-1-one

>  <PUBCHEM_IUPAC_INCHI>
InChI=1S/C15H14O3/c1-18-12-8-10-2-5-15(14(10)13(17)9-12)6-3-11(16)4-7-15/h3-4,6-9,17H,2,5H2,1H3

>  <PUBCHEM_IUPAC_INCHIKEY>
LYSXDJPKAGMDNO-UHFFFAOYSA-N

>  <PUBCHEM_XLOGP3_AA>
2.8

>  <PUBCHEM_EXACT_MASS>
242.094

>  <PUBCHEM_MOLECULAR_FORMULA>
C15H14O3

>  <PUBCHEM_MOLECULAR_WEIGHT>
242.274

>  <PUBCHEM_OPENEYE_CAN_SMILES>
COC1=CC(=C2C(=C1)CCC23C=CC(=O)C=C3)O

>  <PUBCHEM_OPENEYE_ISO_SMILES>
COC1=CC(=C2C(=C1)CCC23C=CC(=O)C=C3)O

>  <PUBCHEM_CACTVS_TPSA>
46.5

>  <PUBCHEM_MONOISOTOPIC_WEIGHT>
242.094

>  <PUBCHEM_TOTAL_CHARGE>
0

>  <PUBCHEM_HEAVY_ATOM_COUNT>
18

>  <PUBCHEM_ATOM_DEF_STEREO_COUNT>
0

>  <PUBCHEM_ATOM_UDEF_STEREO_COUNT>
0

>  <PUBCHEM_BOND_DEF_STEREO_COUNT>
0

>  <PUBCHEM_BOND_UDEF_STEREO_COUNT>
0

>  <PUBCHEM_ISOTOPIC_ATOM_COUNT>
0

>  <PUBCHEM_COMPONENT_COUNT>
1

>  <PUBCHEM_CACTVS_TAUTO_COUNT>
9

>  <PUBCHEM_COORDINATE_TYPE>
1
5
255

>  <PUBCHEM_BONDANNOTATIONS>
11  15  8
12  16  8
15  16  8
6  11  8
6  8  8
8  12  8

$$$$
