91989949
 OpenBabel06101807152D

 74 77  0  0  1  0  0  0  0  0999 V2000
    9.4282    3.8226    0.0000 O   0  0  0  0  0  0  0  0  0  0  0  0
   10.6883    2.5625    0.0000 O   0  0  0  0  0  0  0  0  0  0  0  0
    5.4641   -0.7162    0.0000 O   0  0  0  0  0  0  0  0  0  0  0  0
    7.1962   -1.7162    0.0000 O   0  0  0  0  0  0  0  0  0  0  0  0
    6.0977    5.8571    0.0000 O   0  0  0  0  0  0  0  0  0  0  0  0
    4.1956    5.2391    0.0000 O   0  0  0  0  0  0  0  0  0  0  0  0
    3.7320   -1.7162    0.0000 O   0  0  0  0  0  0  0  0  0  0  0  0
    6.3301   -3.2162    0.0000 O   0  0  0  0  0  0  0  0  0  0  0  0
    2.8660   -5.2162    0.0000 O   0  0  0  0  0  0  0  0  0  0  0  0
    4.5981   -6.2162    0.0000 O   0  0  0  0  0  0  0  0  0  0  0  0
    8.1192    2.8716    0.0000 C   0  0  3  0  0  0  0  0  0  0  0  0
    8.9282    2.2838    0.0000 C   0  0  3  0  0  0  0  0  0  0  0  0
    8.4282    3.8226    0.0000 C   0  0  0  0  0  0  0  0  0  0  0  0
    7.1681    2.5625    0.0000 C   0  0  0  0  0  0  0  0  0  0  0  0
    8.9282    1.2838    0.0000 C   0  0  0  0  0  0  0  0  0  0  0  0
    9.7372    2.8716    0.0000 C   0  0  0  0  0  0  0  0  0  0  0  0
    8.0622    0.7838    0.0000 C   0  0  0  0  0  0  0  0  0  0  0  0
    6.4250    3.2317    0.0000 C   0  0  0  0  0  0  0  0  0  0  0  0
    8.0622   -0.2162    0.0000 C   0  0  0  0  0  0  0  0  0  0  0  0
    7.1962    1.2838    0.0000 C   0  0  0  0  0  0  0  0  0  0  0  0
    6.6329    4.2098    0.0000 C   0  0  0  0  0  0  0  0  0  0  0  0
    5.4739    2.9226    0.0000 C   0  0  0  0  0  0  0  0  0  0  0  0
    7.1962   -0.7162    0.0000 C   0  0  0  0  0  0  0  0  0  0  0  0
    6.3301    0.7838    0.0000 C   0  0  0  0  0  0  0  0  0  0  0  0
    6.3301   -0.2162    0.0000 C   0  0  0  0  0  0  0  0  0  0  0  0
    5.8898    4.8790    0.0000 C   0  0  0  0  0  0  0  0  0  0  0  0
    4.7308    3.5918    0.0000 C   0  0  0  0  0  0  0  0  0  0  0  0
    5.4641   -1.7162    0.0000 C   0  0  3  0  0  0  0  0  0  0  0  0
    4.9387    4.5699    0.0000 C   0  0  0  0  0  0  0  0  0  0  0  0
    4.5981   -2.2162    0.0000 C   0  0  3  0  0  0  0  0  0  0  0  0
    6.3301   -2.2162    0.0000 C   0  0  0  0  0  0  0  0  0  0  0  0
    4.5981   -3.2162    0.0000 C   0  0  0  0  0  0  0  0  0  0  0  0
    3.7320   -3.7162    0.0000 C   0  0  0  0  0  0  0  0  0  0  0  0
    5.4641   -3.7162    0.0000 C   0  0  0  0  0  0  0  0  0  0  0  0
    8.0622   -2.2162    0.0000 C   0  0  0  0  0  0  0  0  0  0  0  0
    5.3545    6.5262    0.0000 C   0  0  0  0  0  0  0  0  0  0  0  0
    3.7320   -4.7162    0.0000 C   0  0  0  0  0  0  0  0  0  0  0  0
    5.4641   -4.7162    0.0000 C   0  0  0  0  0  0  0  0  0  0  0  0
    4.5981   -5.2162    0.0000 C   0  0  0  0  0  0  0  0  0  0  0  0
    2.0000   -4.7162    0.0000 C   0  0  0  0  0  0  0  0  0  0  0  0
    7.6808    3.3100    0.0000 H   0  0  0  0  0  0  0  0  0  0  0  0
    9.4806    2.0023    0.0000 H   0  0  0  0  0  0  0  0  0  0  0  0
    8.4930    4.4392    0.0000 H   0  0  0  0  0  0  0  0  0  0  0  0
    7.8218    3.9515    0.0000 H   0  0  0  0  0  0  0  0  0  0  0  0
    6.6796    2.1808    0.0000 H   0  0  0  0  0  0  0  0  0  0  0  0
    7.4592    2.0151    0.0000 H   0  0  0  0  0  0  0  0  0  0  0  0
    9.1403    0.7012    0.0000 H   0  0  0  0  0  0  0  0  0  0  0  0
    9.5388    1.3914    0.0000 H   0  0  0  0  0  0  0  0  0  0  0  0
    8.5991   -0.5262    0.0000 H   0  0  0  0  0  0  0  0  0  0  0  0
    7.1962    1.9038    0.0000 H   0  0  0  0  0  0  0  0  0  0  0  0
    7.2226    4.4014    0.0000 H   0  0  0  0  0  0  0  0  0  0  0  0
    5.3450    2.3162    0.0000 H   0  0  0  0  0  0  0  0  0  0  0  0
    5.7932    1.0938    0.0000 H   0  0  0  0  0  0  0  0  0  0  0  0
    4.1411    3.4002    0.0000 H   0  0  0  0  0  0  0  0  0  0  0  0
    6.0010   -1.4062    0.0000 H   0  0  0  0  0  0  0  0  0  0  0  0
    4.5981   -1.5962    0.0000 H   0  0  0  0  0  0  0  0  0  0  0  0
    6.9407   -2.3239    0.0000 H   0  0  0  0  0  0  0  0  0  0  0  0
    6.5422   -1.6336    0.0000 H   0  0  0  0  0  0  0  0  0  0  0  0
    3.6059    5.0475    0.0000 H   0  0  0  0  0  0  0  0  0  0  0  0
    3.1951   -3.4062    0.0000 H   0  0  0  0  0  0  0  0  0  0  0  0
    6.0010   -3.4062    0.0000 H   0  0  0  0  0  0  0  0  0  0  0  0
    7.7522   -2.7532    0.0000 H   0  0  0  0  0  0  0  0  0  0  0  0
    8.5991   -2.5262    0.0000 H   0  0  0  0  0  0  0  0  0  0  0  0
    8.3722   -1.6793    0.0000 H   0  0  0  0  0  0  0  0  0  0  0  0
    3.7320   -1.0962    0.0000 H   0  0  0  0  0  0  0  0  0  0  0  0
    5.7694    6.9870    0.0000 H   0  0  0  0  0  0  0  0  0  0  0  0
    4.8938    6.9411    0.0000 H   0  0  0  0  0  0  0  0  0  0  0  0
    4.9397    6.0655    0.0000 H   0  0  0  0  0  0  0  0  0  0  0  0
    6.8671   -3.5262    0.0000 H   0  0  0  0  0  0  0  0  0  0  0  0
    6.0010   -5.0262    0.0000 H   0  0  0  0  0  0  0  0  0  0  0  0
    5.1350   -6.5262    0.0000 H   0  0  0  0  0  0  0  0  0  0  0  0
    2.3100   -4.1793    0.0000 H   0  0  0  0  0  0  0  0  0  0  0  0
    1.4631   -4.4062    0.0000 H   0  0  0  0  0  0  0  0  0  0  0  0
    1.6900   -5.2532    0.0000 H   0  0  0  0  0  0  0  0  0  0  0  0
  1 13  1  0  0  0  0
  1 16  1  0  0  0  0
  2 16  2  0  0  0  0
  3 25  1  0  0  0  0
  3 28  1  0  0  0  0
  4 23  1  0  0  0  0
  4 35  1  0  0  0  0
  5 26  1  0  0  0  0
  5 36  1  0  0  0  0
  6 29  1  0  0  0  0
  6 59  1  0  0  0  0
  7 30  1  0  0  0  0
  7 65  1  0  0  0  0
  8 31  1  0  0  0  0
  8 69  1  0  0  0  0
  9 37  1  0  0  0  0
  9 40  1  0  0  0  0
 10 39  1  0  0  0  0
 10 71  1  0  0  0  0
 11 12  1  0  0  0  0
 11 13  1  0  0  0  0
 11 14  1  0  0  0  0
 11 41  1  0  0  0  0
 12 15  1  0  0  0  0
 12 16  1  0  0  0  0
 12 42  1  0  0  0  0
 13 43  1  0  0  0  0
 13 44  1  0  0  0  0
 14 18  1  0  0  0  0
 14 45  1  0  0  0  0
 14 46  1  0  0  0  0
 15 17  1  0  0  0  0
 15 47  1  0  0  0  0
 15 48  1  0  0  0  0
 17 19  2  0  0  0  0
 17 20  1  0  0  0  0
 18 21  2  0  0  0  0
 18 22  1  0  0  0  0
 19 23  1  0  0  0  0
 19 49  1  0  0  0  0
 20 24  2  0  0  0  0
 20 50  1  0  0  0  0
 21 26  1  0  0  0  0
 21 51  1  0  0  0  0
 22 27  2  0  0  0  0
 22 52  1  0  0  0  0
 23 25  2  0  0  0  0
 24 25  1  0  0  0  0
 24 53  1  0  0  0  0
 26 29  2  0  0  0  0
 27 29  1  0  0  0  0
 27 54  1  0  0  0  0
 28 30  1  0  0  0  0
 28 31  1  0  0  0  0
 28 55  1  0  0  0  0
 30 32  1  0  0  0  0
 30 56  1  0  0  0  0
 31 57  1  0  0  0  0
 31 58  1  0  0  0  0
 32 33  2  0  0  0  0
 32 34  1  0  0  0  0
 33 37  1  0  0  0  0
 33 60  1  0  0  0  0
 34 38  2  0  0  0  0
 34 61  1  0  0  0  0
 35 62  1  0  0  0  0
 35 63  1  0  0  0  0
 35 64  1  0  0  0  0
 36 66  1  0  0  0  0
 36 67  1  0  0  0  0
 36 68  1  0  0  0  0
 37 39  2  0  0  0  0
 38 39  1  0  0  0  0
 38 70  1  0  0  0  0
 40 72  1  0  0  0  0
 40 73  1  0  0  0  0
 40 74  1  0  0  0  0
M  END
>  <PUBCHEM_COMPOUND_CID>
91989949

>  <PUBCHEM_COMPOUND_CANONICALIZED>
1

>  <PUBCHEM_CACTVS_COMPLEXITY>
782

>  <PUBCHEM_CACTVS_HBOND_ACCEPTOR>
10

>  <PUBCHEM_CACTVS_HBOND_DONOR>
4

>  <PUBCHEM_CACTVS_ROTATABLE_BOND>
12

>  <PUBCHEM_CACTVS_SUBSKEYS>
AAADcfB4PAAAAAAAAAAAAAAAAAAAASAAAAAwYMAAAAAAAAABUAAAGgAACAAADRSgmAIyDoAABgCIAiDSCAACCAAgIAAIiAEGiIgNNjKGMRqCeCOlwBELuAfK6PyOoAABAAAAQABAAAIAAACAAAAAAAAAAA==

>  <PUBCHEM_IUPAC_OPENEYE_NAME>
3-[[4-[2-hydroxy-2-(4-hydroxy-3-methoxy-phenyl)-1-(hydroxymethyl)ethoxy]-3-methoxy-phenyl]methyl]-4-[(4-hydroxy-3-methoxy-phenyl)methyl]tetrahydrofuran-2-one

>  <PUBCHEM_IUPAC_CAS_NAME>
3-[[4-[1,3-dihydroxy-1-(4-hydroxy-3-methoxyphenyl)propan-2-yl]oxy-3-methoxyphenyl]methyl]-4-[(4-hydroxy-3-methoxyphenyl)methyl]-2-oxolanone

>  <PUBCHEM_IUPAC_NAME>
3-[[4-[1,3-dihydroxy-1-(4-hydroxy-3-methoxyphenyl)propan-2-yl]oxy-3-methoxyphenyl]methyl]-4-[(4-hydroxy-3-methoxyphenyl)methyl]oxolan-2-one

>  <PUBCHEM_IUPAC_SYSTEMATIC_NAME>
3-[[3-methoxy-4-[1-(3-methoxy-4-oxidanyl-phenyl)-1,3-bis(oxidanyl)propan-2-yl]oxy-phenyl]methyl]-4-[(3-methoxy-4-oxidanyl-phenyl)methyl]oxolan-2-one

>  <PUBCHEM_IUPAC_TRADITIONAL_NAME>
3-[4-[2-hydroxy-2-(4-hydroxy-3-methoxy-phenyl)-1-methylol-ethoxy]-3-methoxy-benzyl]-4-vanillyl-tetrahydrofuran-2-one

>  <PUBCHEM_IUPAC_INCHI>
InChI=1S/C30H34O10/c1-36-25-12-17(4-7-22(25)32)10-20-16-39-30(35)21(20)11-18-5-9-24(27(13-18)38-3)40-28(15-31)29(34)19-6-8-23(33)26(14-19)37-2/h4-9,12-14,20-21,28-29,31-34H,10-11,15-16H2,1-3H3

>  <PUBCHEM_IUPAC_INCHIKEY>
OPORLFDQDFWPDD-UHFFFAOYSA-N

>  <PUBCHEM_XLOGP3_AA>
3.4

>  <PUBCHEM_EXACT_MASS>
554.215

>  <PUBCHEM_MOLECULAR_FORMULA>
C30H34O10

>  <PUBCHEM_MOLECULAR_WEIGHT>
554.592

>  <PUBCHEM_OPENEYE_CAN_SMILES>
COC1=C(C=CC(=C1)CC2COC(=O)C2CC3=CC(=C(C=C3)OC(CO)C(C4=CC(=C(C=C4)O)OC)O)OC)O

>  <PUBCHEM_OPENEYE_ISO_SMILES>
COC1=C(C=CC(=C1)CC2COC(=O)C2CC3=CC(=C(C=C3)OC(CO)C(C4=CC(=C(C=C4)O)OC)O)OC)O

>  <PUBCHEM_CACTVS_TPSA>
144

>  <PUBCHEM_MONOISOTOPIC_WEIGHT>
554.215

>  <PUBCHEM_TOTAL_CHARGE>
0

>  <PUBCHEM_HEAVY_ATOM_COUNT>
40

>  <PUBCHEM_ATOM_DEF_STEREO_COUNT>
0

>  <PUBCHEM_ATOM_UDEF_STEREO_COUNT>
4

>  <PUBCHEM_BOND_DEF_STEREO_COUNT>
0

>  <PUBCHEM_BOND_UDEF_STEREO_COUNT>
0

>  <PUBCHEM_ISOTOPIC_ATOM_COUNT>
0

>  <PUBCHEM_COMPONENT_COUNT>
1

>  <PUBCHEM_CACTVS_TAUTO_COUNT>
332

>  <PUBCHEM_COORDINATE_TYPE>
1
5
255

>  <PUBCHEM_BONDANNOTATIONS>
11  14  3
12  15  3
17  19  8
17  20  8
18  21  8
18  22  8
19  23  8
20  24  8
21  26  8
22  27  8
23  25  8
24  25  8
26  29  8
27  29  8
28  31  3
32  33  8
32  34  8
33  37  8
34  38  8
37  39  8
38  39  8
30  7  3

$$$$
