94266
 OpenBabel06101807152D

 32 33  0  0  1  0  0  0  0  0999 V2000
    3.5000   -0.1200    0.0000 O   0  0  0  0  0  0  0  0  0  0  0  0
    3.5000   -1.8520    0.0000 O   0  0  0  0  0  0  0  0  0  0  0  0
    6.0388    0.3800    0.0000 C   0  0  3  0  0  0  0  0  0  0  0  0
    6.0388   -0.6200    0.0000 C   0  0  3  0  0  0  0  0  0  0  0  0
    6.9054   -0.1200    0.0000 C   0  0  0  0  0  0  0  0  0  0  0  0
    5.0878    0.6891    0.0000 C   0  0  0  0  0  0  0  0  0  0  0  0
    6.0388    1.3800    0.0000 C   0  0  0  0  0  0  0  0  0  0  0  0
    5.0878   -0.9290    0.0000 C   0  0  0  0  0  0  0  0  0  0  0  0
    4.5000   -0.1200    0.0000 C   0  0  3  0  0  0  0  0  0  0  0  0
    6.9049    1.8800    0.0000 C   0  0  0  0  0  0  0  0  0  0  0  0
    5.1728    1.8800    0.0000 C   0  0  0  0  0  0  0  0  0  0  0  0
    4.7788   -1.8800    0.0000 C   0  0  0  0  0  0  0  0  0  0  0  0
    3.0000   -0.9860    0.0000 C   0  0  0  0  0  0  0  0  0  0  0  0
    2.0000   -0.9860    0.0000 C   0  0  0  0  0  0  0  0  0  0  0  0
    6.2909   -1.1864    0.0000 H   0  0  0  0  0  0  0  0  0  0  0  0
    7.3039   -0.5949    0.0000 H   0  0  0  0  0  0  0  0  0  0  0  0
    7.3039    0.3550    0.0000 H   0  0  0  0  0  0  0  0  0  0  0  0
    5.3400    1.2554    0.0000 H   0  0  0  0  0  0  0  0  0  0  0  0
    4.5508    0.9991    0.0000 H   0  0  0  0  0  0  0  0  0  0  0  0
    6.0388    2.0000    0.0000 H   0  0  0  0  0  0  0  0  0  0  0  0
    4.2185    0.4325    0.0000 H   0  0  0  0  0  0  0  0  0  0  0  0
    5.4828    2.4170    0.0000 H   0  0  0  0  0  0  0  0  0  0  0  0
    4.6359    2.1900    0.0000 H   0  0  0  0  0  0  0  0  0  0  0  0
    4.8628    1.3431    0.0000 H   0  0  0  0  0  0  0  0  0  0  0  0
    7.2149    1.3431    0.0000 H   0  0  0  0  0  0  0  0  0  0  0  0
    7.4418    2.1900    0.0000 H   0  0  0  0  0  0  0  0  0  0  0  0
    6.5949    2.4170    0.0000 H   0  0  0  0  0  0  0  0  0  0  0  0
    4.1723   -2.0089    0.0000 H   0  0  0  0  0  0  0  0  0  0  0  0
    5.1936   -2.3408    0.0000 H   0  0  0  0  0  0  0  0  0  0  0  0
    2.0000   -0.3660    0.0000 H   0  0  0  0  0  0  0  0  0  0  0  0
    1.3800   -0.9860    0.0000 H   0  0  0  0  0  0  0  0  0  0  0  0
    2.0000   -1.6060    0.0000 H   0  0  0  0  0  0  0  0  0  0  0  0
  1  9  1  0  0  0  0
  1 13  1  0  0  0  0
  2 13  2  0  0  0  0
  3  4  1  0  0  0  0
  3  5  1  0  0  0  0
  3  6  1  0  0  0  0
  3  7  1  0  0  0  0
  4  5  1  0  0  0  0
  4  8  1  0  0  0  0
  4 15  1  0  0  0  0
  5 16  1  0  0  0  0
  5 17  1  0  0  0  0
  6  9  1  0  0  0  0
  6 18  1  0  0  0  0
  6 19  1  0  0  0  0
  7 10  1  0  0  0  0
  7 11  1  0  0  0  0
  7 20  1  0  0  0  0
  8  9  1  0  0  0  0
  8 12  2  0  0  0  0
  9 21  1  0  0  0  0
 10 25  1  0  0  0  0
 10 26  1  0  0  0  0
 10 27  1  0  0  0  0
 11 22  1  0  0  0  0
 11 23  1  0  0  0  0
 11 24  1  0  0  0  0
 12 28  1  0  0  0  0
 12 29  1  0  0  0  0
 13 14  1  0  0  0  0
 14 30  1  0  0  0  0
 14 31  1  0  0  0  0
 14 32  1  0  0  0  0
M  END
>  <PUBCHEM_COMPOUND_CID>
94266

>  <PUBCHEM_COMPOUND_CANONICALIZED>
1

>  <PUBCHEM_CACTVS_COMPLEXITY>
293

>  <PUBCHEM_CACTVS_HBOND_ACCEPTOR>
2

>  <PUBCHEM_CACTVS_HBOND_DONOR>
0

>  <PUBCHEM_CACTVS_ROTATABLE_BOND>
3

>  <PUBCHEM_CACTVS_SUBSKEYS>
AAADceBwMAAAAAAAAAAAAAAAGAAAAYAAAAAwAAAAAAAAAAAAAAAAGgAAAAAADxSggAICCAAABACIAgDSCAAAAAAgAAAAAAAAAAgABAIAIQACAAAEgAAAIAGAwPAPgAAAAAAAAAAAAAIAAAAAAIAACAAAAA==

>  <PUBCHEM_IUPAC_OPENEYE_NAME>
(1-isopropyl-4-methylene-3-bicyclo[3.1.0]hexanyl) acetate

>  <PUBCHEM_IUPAC_CAS_NAME>
acetic acid (4-methylene-1-propan-2-yl-3-bicyclo[3.1.0]hexanyl) ester

>  <PUBCHEM_IUPAC_NAME>
(4-methylidene-1-propan-2-yl-3-bicyclo[3.1.0]hexanyl) acetate

>  <PUBCHEM_IUPAC_SYSTEMATIC_NAME>
(4-methylidene-1-propan-2-yl-3-bicyclo[3.1.0]hexanyl) ethanoate

>  <PUBCHEM_IUPAC_TRADITIONAL_NAME>
acetic acid (1-isopropyl-4-methylene-3-bicyclo[3.1.0]hexanyl) ester

>  <PUBCHEM_IUPAC_INCHI>
InChI=1S/C12H18O2/c1-7(2)12-5-10(12)8(3)11(6-12)14-9(4)13/h7,10-11H,3,5-6H2,1-2,4H3

>  <PUBCHEM_IUPAC_INCHIKEY>
PBWRFXQNNGSAQG-UHFFFAOYSA-N

>  <PUBCHEM_XLOGP3_AA>
2.4

>  <PUBCHEM_EXACT_MASS>
194.131

>  <PUBCHEM_MOLECULAR_FORMULA>
C12H18O2

>  <PUBCHEM_MOLECULAR_WEIGHT>
194.274

>  <PUBCHEM_OPENEYE_CAN_SMILES>
CC(C)C12CC1C(=C)C(C2)OC(=O)C

>  <PUBCHEM_OPENEYE_ISO_SMILES>
CC(C)C12CC1C(=C)C(C2)OC(=O)C

>  <PUBCHEM_CACTVS_TPSA>
26.3

>  <PUBCHEM_MONOISOTOPIC_WEIGHT>
194.131

>  <PUBCHEM_TOTAL_CHARGE>
0

>  <PUBCHEM_HEAVY_ATOM_COUNT>
14

>  <PUBCHEM_ATOM_DEF_STEREO_COUNT>
0

>  <PUBCHEM_ATOM_UDEF_STEREO_COUNT>
3

>  <PUBCHEM_BOND_DEF_STEREO_COUNT>
0

>  <PUBCHEM_BOND_UDEF_STEREO_COUNT>
0

>  <PUBCHEM_ISOTOPIC_ATOM_COUNT>
0

>  <PUBCHEM_COMPONENT_COUNT>
1

>  <PUBCHEM_CACTVS_TAUTO_COUNT>
1

>  <PUBCHEM_COORDINATE_TYPE>
1
5
255

>  <PUBCHEM_BONDANNOTATIONS>
9  1  3
3  7  3
4  5  3

$$$$
