94304
 OpenBabel06101807152D

 30 32  0  0  0  0  0  0  0  0999 V2000
    6.3617   -0.2429    0.0000 O   0  0  0  0  0  0  0  0  0  0  0  0
    2.9042    1.7519    0.0000 O   0  0  0  0  0  0  0  0  0  0  0  0
    4.6362    2.7519    0.0000 O   0  0  0  0  0  0  0  0  0  0  0  0
    4.6362   -0.2481    0.0000 C   0  0  0  0  0  0  0  0  0  0  0  0
    3.7702    0.2519    0.0000 C   0  0  0  0  0  0  0  0  0  0  0  0
    4.6523   -1.2896    0.0000 C   0  0  0  0  0  0  0  0  0  0  0  0
    5.5022    0.2519    0.0000 C   0  0  0  0  0  0  0  0  0  0  0  0
    2.8602   -0.2550    0.0000 C   0  0  0  0  0  0  0  0  0  0  0  0
    5.5022    1.2519    0.0000 C   0  0  0  0  0  0  0  0  0  0  0  0
    5.5294   -1.7524    0.0000 C   0  0  0  0  0  0  0  0  0  0  0  0
    3.7702    1.2519    0.0000 C   0  0  0  0  0  0  0  0  0  0  0  0
    3.7542   -1.8174    0.0000 C   0  0  0  0  0  0  0  0  0  0  0  0
    2.8522   -1.2966    0.0000 C   0  0  0  0  0  0  0  0  0  0  0  0
    4.6362    1.7519    0.0000 C   0  0  0  0  0  0  0  0  0  0  0  0
    6.3751   -1.2345    0.0000 C   0  0  0  0  0  0  0  0  0  0  0  0
    2.0000    0.2550    0.0000 C   0  0  0  0  0  0  0  0  0  0  0  0
    6.3683    1.7519    0.0000 C   0  0  0  0  0  0  0  0  0  0  0  0
    5.5614   -2.7519    0.0000 C   0  0  0  0  0  0  0  0  0  0  0  0
    3.7566   -2.4374    0.0000 H   0  0  0  0  0  0  0  0  0  0  0  0
    2.3140   -1.6045    0.0000 H   0  0  0  0  0  0  0  0  0  0  0  0
    6.9181   -1.5339    0.0000 H   0  0  0  0  0  0  0  0  0  0  0  0
    2.3162    0.7883    0.0000 H   0  0  0  0  0  0  0  0  0  0  0  0
    1.4667    0.5712    0.0000 H   0  0  0  0  0  0  0  0  0  0  0  0
    1.6838   -0.2783    0.0000 H   0  0  0  0  0  0  0  0  0  0  0  0
    6.6783    1.2149    0.0000 H   0  0  0  0  0  0  0  0  0  0  0  0
    6.9052    2.0619    0.0000 H   0  0  0  0  0  0  0  0  0  0  0  0
    6.0583    2.2888    0.0000 H   0  0  0  0  0  0  0  0  0  0  0  0
    4.9417   -2.7717    0.0000 H   0  0  0  0  0  0  0  0  0  0  0  0
    5.5812   -3.3716    0.0000 H   0  0  0  0  0  0  0  0  0  0  0  0
    6.1810   -2.7320    0.0000 H   0  0  0  0  0  0  0  0  0  0  0  0
  1  7  1  0  0  0  0
  1 15  1  0  0  0  0
  2 11  2  0  0  0  0
  3 14  2  0  0  0  0
  4  5  1  0  0  0  0
  4  6  2  0  0  0  0
  4  7  1  0  0  0  0
  5  8  2  0  0  0  0
  5 11  1  0  0  0  0
  6 10  1  0  0  0  0
  6 12  1  0  0  0  0
  7  9  2  0  0  0  0
  8 13  1  0  0  0  0
  8 16  1  0  0  0  0
  9 14  1  0  0  0  0
  9 17  1  0  0  0  0
 10 15  2  0  0  0  0
 10 18  1  0  0  0  0
 11 14  1  0  0  0  0
 12 13  2  0  0  0  0
 12 19  1  0  0  0  0
 13 20  1  0  0  0  0
 15 21  1  0  0  0  0
 16 22  1  0  0  0  0
 16 23  1  0  0  0  0
 16 24  1  0  0  0  0
 17 25  1  0  0  0  0
 17 26  1  0  0  0  0
 17 27  1  0  0  0  0
 18 28  1  0  0  0  0
 18 29  1  0  0  0  0
 18 30  1  0  0  0  0
M  END
>  <PUBCHEM_COMPOUND_CID>
94304

>  <PUBCHEM_COMPOUND_CANONICALIZED>
1

>  <PUBCHEM_CACTVS_COMPLEXITY>
498

>  <PUBCHEM_CACTVS_HBOND_ACCEPTOR>
3

>  <PUBCHEM_CACTVS_HBOND_DONOR>
0

>  <PUBCHEM_CACTVS_ROTATABLE_BOND>
0

>  <PUBCHEM_CACTVS_SUBSKEYS>
AAADccBwMAAAAAAAAAAAAAAAAAAAAAAAAAAwQIAAAAAAAACBAAAAGgAAAAAADASgmAIyAIAABACIAqBSAAACCAAkIAAIiAEACMgIJjKANRiAMQAkwAEIqQeKzOCOwAACAAAQAACAAAQAACAAAAAAAAAAAA==

>  <PUBCHEM_IUPAC_INCHI>
InChI=1S/C15H12O3/c1-7-4-5-10-8(2)6-18-15-9(3)13(16)14(17)11(7)12(10)15/h4-6H,1-3H3

>  <PUBCHEM_IUPAC_INCHIKEY>
WSRLWSPFIOAYST-UHFFFAOYSA-N

>  <PUBCHEM_XLOGP3_AA>
2

>  <PUBCHEM_EXACT_MASS>
240.079

>  <PUBCHEM_MOLECULAR_FORMULA>
C15H12O3

>  <PUBCHEM_MOLECULAR_WEIGHT>
240.258

>  <PUBCHEM_OPENEYE_CAN_SMILES>
CC1=C2C3=C(C=C1)C(=COC3=C(C(=O)C2=O)C)C

>  <PUBCHEM_OPENEYE_ISO_SMILES>
CC1=C2C3=C(C=C1)C(=COC3=C(C(=O)C2=O)C)C

>  <PUBCHEM_CACTVS_TPSA>
43.4

>  <PUBCHEM_MONOISOTOPIC_WEIGHT>
240.079

>  <PUBCHEM_TOTAL_CHARGE>
0

>  <PUBCHEM_HEAVY_ATOM_COUNT>
18

>  <PUBCHEM_ATOM_DEF_STEREO_COUNT>
0

>  <PUBCHEM_ATOM_UDEF_STEREO_COUNT>
0

>  <PUBCHEM_BOND_DEF_STEREO_COUNT>
0

>  <PUBCHEM_BOND_UDEF_STEREO_COUNT>
0

>  <PUBCHEM_ISOTOPIC_ATOM_COUNT>
0

>  <PUBCHEM_COMPONENT_COUNT>
1

>  <PUBCHEM_CACTVS_TAUTO_COUNT>
13

>  <PUBCHEM_COORDINATE_TYPE>
1
5
255

>  <PUBCHEM_BONDANNOTATIONS>
12  13  8
4  5  8
4  6  8
5  8  8
6  12  8
8  13  8

$$$$
