94395
 OpenBabel06101807152D

 12 12  0  0  0  0  0  0  0  0999 V2000
    2.8090   -0.4594    0.0000 N   0  0  0  0  0  0  0  0  0  0  0  0
    3.6180    0.1284    0.0000 C   0  0  0  0  0  0  0  0  0  0  0  0
    3.3090    1.0794    0.0000 C   0  0  0  0  0  0  0  0  0  0  0  0
    2.3090    1.0794    0.0000 C   0  0  0  0  0  0  0  0  0  0  0  0
    2.0000    0.1284    0.0000 C   0  0  0  0  0  0  0  0  0  0  0  0
    3.9280   -0.4086    0.0000 H   0  0  0  0  0  0  0  0  0  0  0  0
    4.1844    0.3805    0.0000 H   0  0  0  0  0  0  0  0  0  0  0  0
    3.9155    1.2083    0.0000 H   0  0  0  0  0  0  0  0  0  0  0  0
    3.2442    1.6960    0.0000 H   0  0  0  0  0  0  0  0  0  0  0  0
    2.8090   -1.0794    0.0000 H   0  0  0  0  0  0  0  0  0  0  0  0
    1.9446    1.5810    0.0000 H   0  0  0  0  0  0  0  0  0  0  0  0
    1.4103   -0.0632    0.0000 H   0  0  0  0  0  0  0  0  0  0  0  0
  1  2  1  0  0  0  0
  1  5  1  0  0  0  0
  1 10  1  0  0  0  0
  2  3  1  0  0  0  0
  2  6  1  0  0  0  0
  2  7  1  0  0  0  0
  3  4  1  0  0  0  0
  3  8  1  0  0  0  0
  3  9  1  0  0  0  0
  4  5  2  0  0  0  0
  4 11  1  0  0  0  0
  5 12  1  0  0  0  0
M  END
>  <PUBCHEM_COMPOUND_CID>
94395

>  <PUBCHEM_COMPOUND_CANONICALIZED>
1

>  <PUBCHEM_CACTVS_COMPLEXITY>
47.6

>  <PUBCHEM_CACTVS_HBOND_ACCEPTOR>
1

>  <PUBCHEM_CACTVS_HBOND_DONOR>
1

>  <PUBCHEM_CACTVS_ROTATABLE_BOND>
0

>  <PUBCHEM_CACTVS_SUBSKEYS>
AAADcYBiAAAAAAAAAAAAAAAAAAAAAQAAAAAAAAAAAAAAAAAAAAAAHAAQAAAACADBAAQAAALAAACAACBGQAAAAAAgAgAIAIAIAAgAAAAAAQAEAAAAEAAAAAAAAAAAAAAAAAAAAAAAAAAAAAAAAAAAAAAAAA==

>  <PUBCHEM_IUPAC_OPENEYE_NAME>
2,3-dihydro-1H-pyrrole

>  <PUBCHEM_IUPAC_CAS_NAME>
2,3-dihydro-1H-pyrrole

>  <PUBCHEM_IUPAC_NAME>
2,3-dihydro-1H-pyrrole

>  <PUBCHEM_IUPAC_SYSTEMATIC_NAME>
2,3-dihydro-1H-pyrrole

>  <PUBCHEM_IUPAC_TRADITIONAL_NAME>
2-pyrroline

>  <PUBCHEM_IUPAC_INCHI>
InChI=1S/C4H7N/c1-2-4-5-3-1/h1,3,5H,2,4H2

>  <PUBCHEM_IUPAC_INCHIKEY>
RSEBUVRVKCANEP-UHFFFAOYSA-N

>  <PUBCHEM_XLOGP3_AA>
0.8

>  <PUBCHEM_EXACT_MASS>
69.058

>  <PUBCHEM_MOLECULAR_FORMULA>
C4H7N

>  <PUBCHEM_MOLECULAR_WEIGHT>
69.107

>  <PUBCHEM_OPENEYE_CAN_SMILES>
C1CNC=C1

>  <PUBCHEM_OPENEYE_ISO_SMILES>
C1CNC=C1

>  <PUBCHEM_CACTVS_TPSA>
12

>  <PUBCHEM_MONOISOTOPIC_WEIGHT>
69.058

>  <PUBCHEM_TOTAL_CHARGE>
0

>  <PUBCHEM_HEAVY_ATOM_COUNT>
5

>  <PUBCHEM_ATOM_DEF_STEREO_COUNT>
0

>  <PUBCHEM_ATOM_UDEF_STEREO_COUNT>
0

>  <PUBCHEM_BOND_DEF_STEREO_COUNT>
0

>  <PUBCHEM_BOND_UDEF_STEREO_COUNT>
0

>  <PUBCHEM_ISOTOPIC_ATOM_COUNT>
0

>  <PUBCHEM_COMPONENT_COUNT>
1

>  <PUBCHEM_CACTVS_TAUTO_COUNT>
1

>  <PUBCHEM_COORDINATE_TYPE>
1
5
255

$$$$
