9576416
 OpenBabel06101807152D

 53 55  0  0  1  0  0  0  0  0999 V2000
    6.0010   -1.2209    0.0000 S   0  0  0  0  0  0  0  0  0  0  0  0
    8.5991    0.2791    0.0000 S   0  0  0  0  0  0  0  0  0  0  0  0
    4.2690   -1.2209    0.0000 O   0  0  0  0  0  0  0  0  0  0  0  0
    4.2690   -4.2209    0.0000 O   0  0  0  0  0  0  0  0  0  0  0  0
    2.5369   -3.2209    0.0000 O   0  0  0  0  0  0  0  0  0  0  0  0
    6.0010   -3.2209    0.0000 O   0  0  0  0  0  0  0  0  0  0  0  0
    2.5369   -0.2209    0.0000 O   0  0  0  0  0  0  0  0  0  0  0  0
    6.2256    3.6159    0.0000 O   0  0  0  0  0  0  0  0  0  0  0  0
    7.7331   -0.2209    0.0000 O   0  0  0  0  0  0  0  0  0  0  0  0
    8.0991    1.1451    0.0000 O   0  0  0  0  0  0  0  0  0  0  0  0
    9.4651    0.7791    0.0000 O   0  0  0  0  0  0  0  0  0  0  0  0
    9.0991   -0.5869    0.0000 O   0  0  0  0  0  0  0  0  0  0  0  0
    5.6350    2.8090    0.0000 N   0  0  0  0  0  0  0  0  0  0  0  0
    6.8671    0.2791    0.0000 N   0  0  0  0  0  0  0  0  0  0  0  0
    4.2690   -3.2209    0.0000 C   0  0  1  0  0  0  0  0  0  0  0  0
    3.4030   -2.7209    0.0000 C   0  0  1  0  0  0  0  0  0  0  0  0
    5.1350   -2.7209    0.0000 C   0  0  2  0  0  0  0  0  0  0  0  0
    3.4030   -1.7209    0.0000 C   0  0  1  0  0  0  0  0  0  0  0  0
    5.1350   -1.7209    0.0000 C   0  0  2  0  0  0  0  0  0  0  0  0
    2.5369   -1.2209    0.0000 C   0  0  0  0  0  0  0  0  0  0  0  0
    6.0010   -0.2209    0.0000 C   0  0  0  0  0  0  0  0  0  0  0  0
    5.1350    0.2791    0.0000 C   0  0  0  0  0  0  0  0  0  0  0  0
    5.1350    1.2791    0.0000 C   0  0  0  0  0  0  0  0  0  0  0  0
    4.3303    1.8627    0.0000 C   0  0  0  0  0  0  0  0  0  0  0  0
    4.6409    2.8132    0.0000 C   0  0  0  0  0  0  0  0  0  0  0  0
    5.9397    1.8627    0.0000 C   0  0  0  0  0  0  0  0  0  0  0  0
    3.3518    1.6565    0.0000 C   0  0  0  0  0  0  0  0  0  0  0  0
    3.9731    3.5576    0.0000 C   0  0  0  0  0  0  0  0  0  0  0  0
    2.6839    2.4008    0.0000 C   0  0  0  0  0  0  0  0  0  0  0  0
    2.9946    3.3513    0.0000 C   0  0  0  0  0  0  0  0  0  0  0  0
    5.8220    4.5309    0.0000 C   0  0  0  0  0  0  0  0  0  0  0  0
    4.8059   -3.5309    0.0000 H   0  0  0  0  0  0  0  0  0  0  0  0
    3.4030   -3.3409    0.0000 H   0  0  0  0  0  0  0  0  0  0  0  0
    5.6720   -2.4109    0.0000 H   0  0  0  0  0  0  0  0  0  0  0  0
    3.4030   -1.1009    0.0000 H   0  0  0  0  0  0  0  0  0  0  0  0
    5.1350   -1.1009    0.0000 H   0  0  0  0  0  0  0  0  0  0  0  0
    1.9264   -1.1132    0.0000 H   0  0  0  0  0  0  0  0  0  0  0  0
    2.3249   -1.8035    0.0000 H   0  0  0  0  0  0  0  0  0  0  0  0
    3.7320   -4.5309    0.0000 H   0  0  0  0  0  0  0  0  0  0  0  0
    2.0000   -2.9109    0.0000 H   0  0  0  0  0  0  0  0  0  0  0  0
    6.5380   -2.9109    0.0000 H   0  0  0  0  0  0  0  0  0  0  0  0
    4.5244    0.3868    0.0000 H   0  0  0  0  0  0  0  0  0  0  0  0
    4.9230   -0.3035    0.0000 H   0  0  0  0  0  0  0  0  0  0  0  0
    2.0000    0.0891    0.0000 H   0  0  0  0  0  0  0  0  0  0  0  0
    6.5291    1.6701    0.0000 H   0  0  0  0  0  0  0  0  0  0  0  0
    3.1592    1.0672    0.0000 H   0  0  0  0  0  0  0  0  0  0  0  0
    4.1657    4.1469    0.0000 H   0  0  0  0  0  0  0  0  0  0  0  0
    2.0773    2.2730    0.0000 H   0  0  0  0  0  0  0  0  0  0  0  0
    2.5805    3.8128    0.0000 H   0  0  0  0  0  0  0  0  0  0  0  0
    6.3893    4.7811    0.0000 H   0  0  0  0  0  0  0  0  0  0  0  0
    5.5718    5.0981    0.0000 H   0  0  0  0  0  0  0  0  0  0  0  0
    5.2547    4.2807    0.0000 H   0  0  0  0  0  0  0  0  0  0  0  0
    8.4091    1.6821    0.0000 H   0  0  0  0  0  0  0  0  0  0  0  0
  1 21  1  0  0  0  0
  2  9  1  0  0  0  0
  2 10  1  0  0  0  0
  2 11  2  0  0  0  0
  2 12  2  0  0  0  0
  3 18  1  0  0  0  0
  3 19  1  0  0  0  0
  4 39  1  0  0  0  0
  5 40  1  0  0  0  0
  6 41  1  0  0  0  0
  7 20  1  0  0  0  0
  7 44  1  0  0  0  0
  8 13  1  0  0  0  0
  8 31  1  0  0  0  0
  9 14  1  0  0  0  0
 10 53  1  0  0  0  0
 13 25  1  0  0  0  0
 13 26  1  0  0  0  0
 14 21  2  0  0  0  0
 15  4  1  0  0  0  0
 15 16  1  6  0  0  0
 15 32  1  0  0  0  0
 16  5  1  0  0  0  0
 16 18  1  1  0  0  0
 16 33  1  0  0  0  0
 17  6  1  0  0  0  0
 17 15  1  1  0  0  0
 17 34  1  0  0  0  0
 18 20  1  0  0  0  0
 18 35  1  6  0  0  0
 19  1  1  0  0  0  0
 19 17  1  6  0  0  0
 19 36  1  0  0  0  0
 20 37  1  0  0  0  0
 20 38  1  0  0  0  0
 21 22  1  0  0  0  0
 22 23  1  0  0  0  0
 22 42  1  0  0  0  0
 22 43  1  0  0  0  0
 23 24  1  0  0  0  0
 23 26  2  0  0  0  0
 24 25  1  0  0  0  0
 24 27  2  0  0  0  0
 25 28  2  0  0  0  0
 26 45  1  0  0  0  0
 27 29  1  0  0  0  0
 27 46  1  0  0  0  0
 28 30  1  0  0  0  0
 28 47  1  0  0  0  0
 29 30  2  0  0  0  0
 29 48  1  0  0  0  0
 30 49  1  0  0  0  0
 31 50  1  0  0  0  0
 31 51  1  0  0  0  0
 31 52  1  0  0  0  0
M  END
>  <PUBCHEM_COMPOUND_CID>
9576416

>  <PUBCHEM_COMPOUND_CANONICALIZED>
1

>  <PUBCHEM_CACTVS_COMPLEXITY>
733

>  <PUBCHEM_CACTVS_HBOND_ACCEPTOR>
12

>  <PUBCHEM_CACTVS_HBOND_DONOR>
5

>  <PUBCHEM_CACTVS_ROTATABLE_BOND>
8

>  <PUBCHEM_CACTVS_SUBSKEYS>
AAADceB7PABgAAAAAAAAAAAAAAAAAWAAAAA0QAAAAAAAAFgB8AAAHgQECAAADBzl3ga+wPIYFoigAzRnRDCCgCAxAjAo2CA4ZJgJMOLgkZGGYAhlgADryAfQ4MQOgAAAAAACAAAAAAAAAAQAAAAAAAAAAA==

>  <PUBCHEM_IUPAC_OPENEYE_NAME>
[(2S,3R,4S,5S,6R)-3,4,5-trihydroxy-6-(hydroxymethyl)tetrahydropyran-2-yl] (1Z)-2-(1-methoxyindol-3-yl)-N-sulfooxy-ethanimidothioate

>  <PUBCHEM_IUPAC_CAS_NAME>
(1Z)-2-(1-methoxy-3-indolyl)-N-sulfooxyethanimidothioic acid [(2S,3R,4S,5S,6R)-3,4,5-trihydroxy-6-(hydroxymethyl)-2-oxanyl] ester

>  <PUBCHEM_IUPAC_NAME>
[(2S,3R,4S,5S,6R)-3,4,5-trihydroxy-6-(hydroxymethyl)oxan-2-yl] (1Z)-2-(1-methoxyindol-3-yl)-N-sulfooxyethanimidothioate

>  <PUBCHEM_IUPAC_SYSTEMATIC_NAME>
[(2S,3R,4S,5S,6R)-6-(hydroxymethyl)-3,4,5-tris(oxidanyl)oxan-2-yl] (1Z)-2-(1-methoxyindol-3-yl)-N-sulfooxy-ethanimidothioate

>  <PUBCHEM_IUPAC_TRADITIONAL_NAME>
(1Z)-2-(1-methoxyindol-3-yl)-N-sulfoxy-thioacetimidic acid [(2S,3R,4S,5S,6R)-3,4,5-trihydroxy-6-methylol-tetrahydropyran-2-yl] ester

>  <PUBCHEM_IUPAC_INCHI>
InChI=1S/C17H22N2O10S2/c1-27-19-7-9(10-4-2-3-5-11(10)19)6-13(18-29-31(24,25)26)30-17-16(23)15(22)14(21)12(8-20)28-17/h2-5,7,12,14-17,20-23H,6,8H2,1H3,(H,24,25,26)/b18-13-/t12-,14-,15+,16-,17+/m1/s1

>  <PUBCHEM_IUPAC_INCHIKEY>
PKKMITFKYRCCOL-JMZFCNQTSA-N

>  <PUBCHEM_XLOGP3_AA>
0.3

>  <PUBCHEM_EXACT_MASS>
478.072

>  <PUBCHEM_MOLECULAR_FORMULA>
C17H22N2O10S2

>  <PUBCHEM_MOLECULAR_WEIGHT>
478.487

>  <PUBCHEM_OPENEYE_CAN_SMILES>
CON1C=C(C2=CC=CC=C21)CC(=NOS(=O)(=O)O)SC3C(C(C(C(O3)CO)O)O)O

>  <PUBCHEM_OPENEYE_ISO_SMILES>
CON1C=C(C2=CC=CC=C21)C/C(=N/OS(=O)(=O)O)/S[C@H]3[C@@H]([C@H]([C@@H]([C@H](O3)CO)O)O)O

>  <PUBCHEM_CACTVS_TPSA>
214

>  <PUBCHEM_MONOISOTOPIC_WEIGHT>
478.072

>  <PUBCHEM_TOTAL_CHARGE>
0

>  <PUBCHEM_HEAVY_ATOM_COUNT>
31

>  <PUBCHEM_ATOM_DEF_STEREO_COUNT>
5

>  <PUBCHEM_ATOM_UDEF_STEREO_COUNT>
0

>  <PUBCHEM_BOND_DEF_STEREO_COUNT>
1

>  <PUBCHEM_BOND_UDEF_STEREO_COUNT>
0

>  <PUBCHEM_ISOTOPIC_ATOM_COUNT>
0

>  <PUBCHEM_COMPONENT_COUNT>
1

>  <PUBCHEM_CACTVS_TAUTO_COUNT>
2

>  <PUBCHEM_COORDINATE_TYPE>
1
5
255

>  <PUBCHEM_BONDANNOTATIONS>
19  1  5
13  25  8
13  26  8
18  20  5
23  24  8
23  26  8
24  25  8
24  27  8
25  28  8
27  29  8
28  30  8
29  30  8
15  4  5
16  5  6
17  6  6

$$$$
