95924
 OpenBabel06101807152D

 27 26  0  0  0  0  0  0  0  0999 V2000
    3.7320   -0.3660    0.0000 P   0  0  0  0  0  0  0  0  0  0  0  0
    6.3301    0.1340    0.0000 O   0  0  0  0  0  0  0  0  0  0  0  0
    2.8660   -0.8660    0.0000 O   0  0  0  0  0  0  0  0  0  0  0  0
    3.2320    0.5000    0.0000 O   0  0  0  0  0  0  0  0  0  0  0  0
    4.2320   -1.2320    0.0000 O   0  0  0  0  0  0  0  0  0  0  0  0
    5.4641   -1.3660    0.0000 O   0  0  0  0  0  0  0  0  0  0  0  0
    4.5981    0.1340    0.0000 N   0  0  0  0  0  0  0  0  0  0  0  0
    7.1962   -0.3660    0.0000 C   0  0  0  0  0  0  0  0  0  0  0  0
    8.0622    0.1340    0.0000 C   0  0  0  0  0  0  0  0  0  0  0  0
    7.1962   -1.3660    0.0000 C   0  0  0  0  0  0  0  0  0  0  0  0
    5.4641   -0.3660    0.0000 C   0  0  0  0  0  0  0  0  0  0  0  0
    2.0000   -0.3660    0.0000 C   0  0  0  0  0  0  0  0  0  0  0  0
    3.7320    1.3660    0.0000 C   0  0  0  0  0  0  0  0  0  0  0  0
    6.6592   -0.6760    0.0000 H   0  0  0  0  0  0  0  0  0  0  0  0
    8.3722   -0.4030    0.0000 H   0  0  0  0  0  0  0  0  0  0  0  0
    8.5991    0.4440    0.0000 H   0  0  0  0  0  0  0  0  0  0  0  0
    7.7522    0.6709    0.0000 H   0  0  0  0  0  0  0  0  0  0  0  0
    6.5762   -1.3660    0.0000 H   0  0  0  0  0  0  0  0  0  0  0  0
    7.1962   -1.9860    0.0000 H   0  0  0  0  0  0  0  0  0  0  0  0
    7.8162   -1.3660    0.0000 H   0  0  0  0  0  0  0  0  0  0  0  0
    4.5981    0.7540    0.0000 H   0  0  0  0  0  0  0  0  0  0  0  0
    2.3100    0.1709    0.0000 H   0  0  0  0  0  0  0  0  0  0  0  0
    1.4631   -0.0560    0.0000 H   0  0  0  0  0  0  0  0  0  0  0  0
    1.6900   -0.9030    0.0000 H   0  0  0  0  0  0  0  0  0  0  0  0
    4.2690    1.0560    0.0000 H   0  0  0  0  0  0  0  0  0  0  0  0
    4.0420    1.9030    0.0000 H   0  0  0  0  0  0  0  0  0  0  0  0
    3.1951    1.6760    0.0000 H   0  0  0  0  0  0  0  0  0  0  0  0
  1  3  1  0  0  0  0
  1  4  1  0  0  0  0
  1  5  2  0  0  0  0
  1  7  1  0  0  0  0
  2  8  1  0  0  0  0
  2 11  1  0  0  0  0
  3 12  1  0  0  0  0
  4 13  1  0  0  0  0
  6 11  2  0  0  0  0
  7 11  1  0  0  0  0
  7 21  1  0  0  0  0
  8  9  1  0  0  0  0
  8 10  1  0  0  0  0
  8 14  1  0  0  0  0
  9 15  1  0  0  0  0
  9 16  1  0  0  0  0
  9 17  1  0  0  0  0
 10 18  1  0  0  0  0
 10 19  1  0  0  0  0
 10 20  1  0  0  0  0
 12 22  1  0  0  0  0
 12 23  1  0  0  0  0
 12 24  1  0  0  0  0
 13 25  1  0  0  0  0
 13 26  1  0  0  0  0
 13 27  1  0  0  0  0
M  END
>  <PUBCHEM_COMPOUND_CID>
95924

>  <PUBCHEM_COMPOUND_CANONICALIZED>
1

>  <PUBCHEM_CACTVS_COMPLEXITY>
209

>  <PUBCHEM_CACTVS_HBOND_ACCEPTOR>
5

>  <PUBCHEM_CACTVS_HBOND_DONOR>
1

>  <PUBCHEM_CACTVS_ROTATABLE_BOND>
5

>  <PUBCHEM_CACTVS_SUBSKEYS>
AAADccBiOAIAAAAAAAAAAAAAAAAAAAAAAAAAAAAAAAAAAAAAAAAAHgAQgCAACBSggAICCABABRAIQAAAGIAAAAAAAAAAAAAAAAEAAAAAAAAIAAAAAAAAAAAAAAAAAAAAAAAAAAAAAAAAAAAAAAAAAAAAAA==

>  <PUBCHEM_IUPAC_OPENEYE_NAME>
isopropyl N-dimethoxyphosphorylcarbamate

>  <PUBCHEM_IUPAC_CAS_NAME>
N-dimethoxyphosphorylcarbamic acid propan-2-yl ester

>  <PUBCHEM_IUPAC_NAME>
propan-2-yl N-dimethoxyphosphorylcarbamate

>  <PUBCHEM_IUPAC_SYSTEMATIC_NAME>
propan-2-yl N-dimethoxyphosphorylcarbamate

>  <PUBCHEM_IUPAC_TRADITIONAL_NAME>
N-dimethoxyphosphorylcarbamic acid isopropyl ester

>  <PUBCHEM_IUPAC_INCHI>
InChI=1S/C6H14NO5P/c1-5(2)12-6(8)7-13(9,10-3)11-4/h5H,1-4H3,(H,7,8,9)

>  <PUBCHEM_IUPAC_INCHIKEY>
XXRYFVCIMARHRS-UHFFFAOYSA-N

>  <PUBCHEM_XLOGP3_AA>
0.2

>  <PUBCHEM_EXACT_MASS>
211.061

>  <PUBCHEM_MOLECULAR_FORMULA>
C6H14NO5P

>  <PUBCHEM_MOLECULAR_WEIGHT>
211.154

>  <PUBCHEM_OPENEYE_CAN_SMILES>
CC(C)OC(=O)NP(=O)(OC)OC

>  <PUBCHEM_OPENEYE_ISO_SMILES>
CC(C)OC(=O)NP(=O)(OC)OC

>  <PUBCHEM_CACTVS_TPSA>
73.9

>  <PUBCHEM_MONOISOTOPIC_WEIGHT>
211.061

>  <PUBCHEM_TOTAL_CHARGE>
0

>  <PUBCHEM_HEAVY_ATOM_COUNT>
13

>  <PUBCHEM_ATOM_DEF_STEREO_COUNT>
0

>  <PUBCHEM_ATOM_UDEF_STEREO_COUNT>
0

>  <PUBCHEM_BOND_DEF_STEREO_COUNT>
0

>  <PUBCHEM_BOND_UDEF_STEREO_COUNT>
0

>  <PUBCHEM_ISOTOPIC_ATOM_COUNT>
0

>  <PUBCHEM_COMPONENT_COUNT>
1

>  <PUBCHEM_CACTVS_TAUTO_COUNT>
3

>  <PUBCHEM_COORDINATE_TYPE>
1
5
255

$$$$
