9799500
 OpenBabel06101807152D

 45 50  0  0  1  0  0  0  0  0999 V2000
    8.5149    1.3412    0.0000 O   0  0  0  0  0  0  0  0  0  0  0  0
    6.2344   -0.7122    0.0000 O   0  0  0  0  0  0  0  0  0  0  0  0
    8.6194   -1.6534    0.0000 O   0  0  0  0  0  0  0  0  0  0  0  0
   12.1637    0.1514    0.0000 O   0  0  0  0  0  0  0  0  0  0  0  0
    2.5850    0.4655    0.0000 O   0  0  0  0  0  0  0  0  0  0  0  0
   12.1637   -1.4581    0.0000 O   0  0  0  0  0  0  0  0  0  0  0  0
    2.5822    2.0750    0.0000 O   0  0  0  0  0  0  0  0  0  0  0  0
    7.7058   -0.0601    0.0000 C   0  0  3  0  0  0  0  0  0  0  0  0
    7.0367    0.6830    0.0000 C   0  0  3  0  0  0  0  0  0  0  0  0
    8.6194    0.3466    0.0000 C   0  0  3  0  0  0  0  0  0  0  0  0
    6.1296    0.2764    0.0000 C   0  0  3  0  0  0  0  0  0  0  0  0
    7.5367    1.5491    0.0000 C   0  0  0  0  0  0  0  0  0  0  0  0
    7.2066   -0.9197    0.0000 C   0  0  0  0  0  0  0  0  0  0  0  0
    9.4854   -0.1534    0.0000 C   0  0  0  0  0  0  0  0  0  0  0  0
    5.2627    0.7749    0.0000 C   0  0  0  0  0  0  0  0  0  0  0  0
    9.4854   -1.1534    0.0000 C   0  0  0  0  0  0  0  0  0  0  0  0
   10.3514    0.3466    0.0000 C   0  0  0  0  0  0  0  0  0  0  0  0
    4.3976    0.2734    0.0000 C   0  0  0  0  0  0  0  0  0  0  0  0
    5.2610    1.7749    0.0000 C   0  0  0  0  0  0  0  0  0  0  0  0
   11.2175   -0.1534    0.0000 C   0  0  0  0  0  0  0  0  0  0  0  0
    3.5307    0.7719    0.0000 C   0  0  0  0  0  0  0  0  0  0  0  0
   10.3514   -1.6534    0.0000 C   0  0  0  0  0  0  0  0  0  0  0  0
    4.3941    2.2734    0.0000 C   0  0  0  0  0  0  0  0  0  0  0  0
   11.2175   -1.1534    0.0000 C   0  0  0  0  0  0  0  0  0  0  0  0
    3.5290    1.7719    0.0000 C   0  0  0  0  0  0  0  0  0  0  0  0
   12.7473   -0.6534    0.0000 C   0  0  0  0  0  0  0  0  0  0  0  0
    2.0000    1.2692    0.0000 C   0  0  0  0  0  0  0  0  0  0  0  0
    8.1201   -0.5214    0.0000 H   0  0  0  0  0  0  0  0  0  0  0  0
    6.6212    1.1433    0.0000 H   0  0  0  0  0  0  0  0  0  0  0  0
    9.1394    0.6843    0.0000 H   0  0  0  0  0  0  0  0  0  0  0  0
    5.6101   -0.0620    0.0000 H   0  0  0  0  0  0  0  0  0  0  0  0
    7.7283    2.1387    0.0000 H   0  0  0  0  0  0  0  0  0  0  0  0
    6.9703    1.8012    0.0000 H   0  0  0  0  0  0  0  0  0  0  0  0
    7.0141   -1.5091    0.0000 H   0  0  0  0  0  0  0  0  0  0  0  0
    7.7725   -1.1730    0.0000 H   0  0  0  0  0  0  0  0  0  0  0  0
   10.3514    0.9666    0.0000 H   0  0  0  0  0  0  0  0  0  0  0  0
    4.3986   -0.3466    0.0000 H   0  0  0  0  0  0  0  0  0  0  0  0
    5.7974    2.0858    0.0000 H   0  0  0  0  0  0  0  0  0  0  0  0
   10.3514   -2.2734    0.0000 H   0  0  0  0  0  0  0  0  0  0  0  0
    4.3930    2.8934    0.0000 H   0  0  0  0  0  0  0  0  0  0  0  0
    8.6194   -2.2734    0.0000 H   0  0  0  0  0  0  0  0  0  0  0  0
   13.2082   -1.0681    0.0000 H   0  0  0  0  0  0  0  0  0  0  0  0
   13.2082   -0.2386    0.0000 H   0  0  0  0  0  0  0  0  0  0  0  0
    1.5384    1.6832    0.0000 H   0  0  0  0  0  0  0  0  0  0  0  0
    1.5398    0.8537    0.0000 H   0  0  0  0  0  0  0  0  0  0  0  0
  1 10  1  0  0  0  0
  1 12  1  0  0  0  0
  2 11  1  0  0  0  0
  2 13  1  0  0  0  0
  3 16  1  0  0  0  0
  3 41  1  0  0  0  0
  4 20  1  0  0  0  0
  4 26  1  0  0  0  0
  5 21  1  0  0  0  0
  5 27  1  0  0  0  0
  6 24  1  0  0  0  0
  6 26  1  0  0  0  0
  7 25  1  0  0  0  0
  7 27  1  0  0  0  0
  8  9  1  0  0  0  0
  8 10  1  0  0  0  0
  8 13  1  0  0  0  0
  8 28  1  0  0  0  0
  9 11  1  0  0  0  0
  9 12  1  0  0  0  0
  9 29  1  0  0  0  0
 10 14  1  0  0  0  0
 10 30  1  0  0  0  0
 11 15  1  0  0  0  0
 11 31  1  0  0  0  0
 12 32  1  0  0  0  0
 12 33  1  0  0  0  0
 13 34  1  0  0  0  0
 13 35  1  0  0  0  0
 14 16  1  0  0  0  0
 14 17  2  0  0  0  0
 15 18  2  0  0  0  0
 15 19  1  0  0  0  0
 16 22  2  0  0  0  0
 17 20  1  0  0  0  0
 17 36  1  0  0  0  0
 18 21  1  0  0  0  0
 18 37  1  0  0  0  0
 19 23  2  0  0  0  0
 19 38  1  0  0  0  0
 20 24  2  0  0  0  0
 21 25  2  0  0  0  0
 22 24  1  0  0  0  0
 22 39  1  0  0  0  0
 23 25  1  0  0  0  0
 23 40  1  0  0  0  0
 26 42  1  0  0  0  0
 26 43  1  0  0  0  0
 27 44  1  0  0  0  0
 27 45  1  0  0  0  0
M  END
>  <PUBCHEM_COMPOUND_CID>
9799500

>  <PUBCHEM_COMPOUND_CANONICALIZED>
1

>  <PUBCHEM_CACTVS_COMPLEXITY>
558

>  <PUBCHEM_CACTVS_HBOND_ACCEPTOR>
7

>  <PUBCHEM_CACTVS_HBOND_DONOR>
1

>  <PUBCHEM_CACTVS_ROTATABLE_BOND>
2

>  <PUBCHEM_CACTVS_SUBSKEYS>
AAADceB4OAAAAAAAAAAAAAAAAAAAASJEiQAwYAAAAAASAEgBQAAAGgAACAAADRSgmAMwDoAABgCAAiBCAAACCAAgIAAIiAAGiIgdJyKGMRqicCIlwBUOuAfA4PwOoQABCAAIQABCAAIQABCAAAAAAAAAAA==

>  <PUBCHEM_IUPAC_OPENEYE_NAME>
6-[3-(1,3-benzodioxol-5-yl)-1,3,3a,4,6,6a-hexahydrofuro[3,4-c]furan-6-yl]-1,3-benzodioxol-5-ol

>  <PUBCHEM_IUPAC_CAS_NAME>
6-[3-(1,3-benzodioxol-5-yl)-1,3,3a,4,6,6a-hexahydrofuro[3,4-c]furan-6-yl]-1,3-benzodioxol-5-ol

>  <PUBCHEM_IUPAC_NAME>
6-[3-(1,3-benzodioxol-5-yl)-1,3,3a,4,6,6a-hexahydrofuro[3,4-c]furan-6-yl]-1,3-benzodioxol-5-ol

>  <PUBCHEM_IUPAC_SYSTEMATIC_NAME>
6-[3-(1,3-benzodioxol-5-yl)-1,3,3a,4,6,6a-hexahydrofuro[3,4-c]furan-6-yl]-1,3-benzodioxol-5-ol

>  <PUBCHEM_IUPAC_TRADITIONAL_NAME>
6-[3-(1,3-benzodioxol-5-yl)-1,3,3a,4,6,6a-hexahydrofuro[3,4-c]furan-6-yl]sesamol

>  <PUBCHEM_IUPAC_INCHI>
InChI=1S/C20H18O7/c21-14-5-18-17(26-9-27-18)4-11(14)20-13-7-22-19(12(13)6-23-20)10-1-2-15-16(3-10)25-8-24-15/h1-5,12-13,19-21H,6-9H2

>  <PUBCHEM_IUPAC_INCHIKEY>
KQRXQIPRDKVZPW-UHFFFAOYSA-N

>  <PUBCHEM_XLOGP3_AA>
2.3

>  <PUBCHEM_EXACT_MASS>
370.105

>  <PUBCHEM_MOLECULAR_FORMULA>
C20H18O7

>  <PUBCHEM_MOLECULAR_WEIGHT>
370.357

>  <PUBCHEM_OPENEYE_CAN_SMILES>
C1C2C(COC2C3=CC4=C(C=C3O)OCO4)C(O1)C5=CC6=C(C=C5)OCO6

>  <PUBCHEM_OPENEYE_ISO_SMILES>
C1C2C(COC2C3=CC4=C(C=C3O)OCO4)C(O1)C5=CC6=C(C=C5)OCO6

>  <PUBCHEM_CACTVS_TPSA>
75.6

>  <PUBCHEM_MONOISOTOPIC_WEIGHT>
370.105

>  <PUBCHEM_TOTAL_CHARGE>
0

>  <PUBCHEM_HEAVY_ATOM_COUNT>
27

>  <PUBCHEM_ATOM_DEF_STEREO_COUNT>
0

>  <PUBCHEM_ATOM_UDEF_STEREO_COUNT>
4

>  <PUBCHEM_BOND_DEF_STEREO_COUNT>
0

>  <PUBCHEM_BOND_UDEF_STEREO_COUNT>
0

>  <PUBCHEM_ISOTOPIC_ATOM_COUNT>
0

>  <PUBCHEM_COMPONENT_COUNT>
1

>  <PUBCHEM_CACTVS_TAUTO_COUNT>
3

>  <PUBCHEM_COORDINATE_TYPE>
1
5
255

>  <PUBCHEM_BONDANNOTATIONS>
10  14  3
11  15  3
14  16  8
14  17  8
15  18  8
15  19  8
16  22  8
17  20  8
18  21  8
19  23  8
20  24  8
21  25  8
22  24  8
23  25  8
8  13  3
9  12  3

$$$$
