98037
 OpenBabel06101807152D

 52 51  0  0  1  0  0  0  0  0999 V2000
    4.2690   -0.5950    0.0000 O   0  0  0  0  0  0  0  0  0  0  0  0
    2.5369    0.4050    0.0000 O   0  0  0  0  0  0  0  0  0  0  0  0
    9.4651    0.4050    0.0000 C   0  0  0  0  0  0  0  0  0  0  0  0
   10.3312    0.9050    0.0000 C   0  0  0  0  0  0  0  0  0  0  0  0
    8.5991    0.9050    0.0000 C   0  0  0  0  0  0  0  0  0  0  0  0
   11.1972    0.4050    0.0000 C   0  0  0  0  0  0  0  0  0  0  0  0
    7.7331    0.4050    0.0000 C   0  0  0  0  0  0  0  0  0  0  0  0
   12.0632    0.9050    0.0000 C   0  0  0  0  0  0  0  0  0  0  0  0
    6.8671    0.9050    0.0000 C   0  0  0  0  0  0  0  0  0  0  0  0
   12.9292    0.4050    0.0000 C   0  0  0  0  0  0  0  0  0  0  0  0
    6.0010    0.4050    0.0000 C   0  0  0  0  0  0  0  0  0  0  0  0
   13.7953    0.9050    0.0000 C   0  0  0  0  0  0  0  0  0  0  0  0
    5.1350    0.9050    0.0000 C   0  0  0  0  0  0  0  0  0  0  0  0
   14.6613    0.4050    0.0000 C   0  0  0  0  0  0  0  0  0  0  0  0
    4.2690    0.4050    0.0000 C   0  0  3  0  0  0  0  0  0  0  0  0
   15.5273    0.9050    0.0000 C   0  0  0  0  0  0  0  0  0  0  0  0
    3.4030    0.9050    0.0000 C   0  0  0  0  0  0  0  0  0  0  0  0
   16.3933    0.4050    0.0000 C   0  0  0  0  0  0  0  0  0  0  0  0
    9.0666   -0.0699    0.0000 H   0  0  0  0  0  0  0  0  0  0  0  0
    9.8637   -0.0699    0.0000 H   0  0  0  0  0  0  0  0  0  0  0  0
   10.7297    1.3800    0.0000 H   0  0  0  0  0  0  0  0  0  0  0  0
    9.9326    1.3800    0.0000 H   0  0  0  0  0  0  0  0  0  0  0  0
    8.9976    1.3800    0.0000 H   0  0  0  0  0  0  0  0  0  0  0  0
    8.2006    1.3800    0.0000 H   0  0  0  0  0  0  0  0  0  0  0  0
   10.7987   -0.0699    0.0000 H   0  0  0  0  0  0  0  0  0  0  0  0
   11.5957   -0.0699    0.0000 H   0  0  0  0  0  0  0  0  0  0  0  0
    7.3346   -0.0699    0.0000 H   0  0  0  0  0  0  0  0  0  0  0  0
    8.1316   -0.0699    0.0000 H   0  0  0  0  0  0  0  0  0  0  0  0
   12.4617    1.3800    0.0000 H   0  0  0  0  0  0  0  0  0  0  0  0
   11.6647    1.3800    0.0000 H   0  0  0  0  0  0  0  0  0  0  0  0
    7.2656    1.3800    0.0000 H   0  0  0  0  0  0  0  0  0  0  0  0
    6.4685    1.3800    0.0000 H   0  0  0  0  0  0  0  0  0  0  0  0
   12.5307   -0.0699    0.0000 H   0  0  0  0  0  0  0  0  0  0  0  0
   13.3278   -0.0699    0.0000 H   0  0  0  0  0  0  0  0  0  0  0  0
    5.6025   -0.0699    0.0000 H   0  0  0  0  0  0  0  0  0  0  0  0
    6.3996   -0.0699    0.0000 H   0  0  0  0  0  0  0  0  0  0  0  0
   14.1938    1.3800    0.0000 H   0  0  0  0  0  0  0  0  0  0  0  0
   13.3967    1.3800    0.0000 H   0  0  0  0  0  0  0  0  0  0  0  0
    5.5335    1.3800    0.0000 H   0  0  0  0  0  0  0  0  0  0  0  0
    4.7365    1.3800    0.0000 H   0  0  0  0  0  0  0  0  0  0  0  0
   14.2628   -0.0699    0.0000 H   0  0  0  0  0  0  0  0  0  0  0  0
   15.0598   -0.0699    0.0000 H   0  0  0  0  0  0  0  0  0  0  0  0
    5.0051   -0.0200    0.0000 H   0  0  0  0  0  0  0  0  0  0  0  0
   15.9258    1.3800    0.0000 H   0  0  0  0  0  0  0  0  0  0  0  0
   15.1288    1.3800    0.0000 H   0  0  0  0  0  0  0  0  0  0  0  0
    3.8015    1.3800    0.0000 H   0  0  0  0  0  0  0  0  0  0  0  0
    3.0044    1.3800    0.0000 H   0  0  0  0  0  0  0  0  0  0  0  0
   16.0833   -0.1319    0.0000 H   0  0  0  0  0  0  0  0  0  0  0  0
   16.9303    0.0950    0.0000 H   0  0  0  0  0  0  0  0  0  0  0  0
   16.7033    0.9419    0.0000 H   0  0  0  0  0  0  0  0  0  0  0  0
    3.7320   -0.9050    0.0000 H   0  0  0  0  0  0  0  0  0  0  0  0
    2.0000    0.7150    0.0000 H   0  0  0  0  0  0  0  0  0  0  0  0
  1 15  1  0  0  0  0
  1 51  1  0  0  0  0
  2 17  1  0  0  0  0
  2 52  1  0  0  0  0
  3  4  1  0  0  0  0
  3  5  1  0  0  0  0
  3 19  1  0  0  0  0
  3 20  1  0  0  0  0
  4  6  1  0  0  0  0
  4 21  1  0  0  0  0
  4 22  1  0  0  0  0
  5  7  1  0  0  0  0
  5 23  1  0  0  0  0
  5 24  1  0  0  0  0
  6  8  1  0  0  0  0
  6 25  1  0  0  0  0
  6 26  1  0  0  0  0
  7  9  1  0  0  0  0
  7 27  1  0  0  0  0
  7 28  1  0  0  0  0
  8 10  1  0  0  0  0
  8 29  1  0  0  0  0
  8 30  1  0  0  0  0
  9 11  1  0  0  0  0
  9 31  1  0  0  0  0
  9 32  1  0  0  0  0
 10 12  1  0  0  0  0
 10 33  1  0  0  0  0
 10 34  1  0  0  0  0
 11 13  1  0  0  0  0
 11 35  1  0  0  0  0
 11 36  1  0  0  0  0
 12 14  1  0  0  0  0
 12 37  1  0  0  0  0
 12 38  1  0  0  0  0
 13 15  1  0  0  0  0
 13 39  1  0  0  0  0
 13 40  1  0  0  0  0
 14 16  1  0  0  0  0
 14 41  1  0  0  0  0
 14 42  1  0  0  0  0
 15 17  1  0  0  0  0
 15 43  1  0  0  0  0
 16 18  1  0  0  0  0
 16 44  1  0  0  0  0
 16 45  1  0  0  0  0
 17 46  1  0  0  0  0
 17 47  1  0  0  0  0
 18 48  1  0  0  0  0
 18 49  1  0  0  0  0
 18 50  1  0  0  0  0
M  END
>  <PUBCHEM_COMPOUND_CID>
98037

>  <PUBCHEM_COMPOUND_CANONICALIZED>
1

>  <PUBCHEM_CACTVS_COMPLEXITY>
148

>  <PUBCHEM_CACTVS_HBOND_ACCEPTOR>
2

>  <PUBCHEM_CACTVS_HBOND_DONOR>
2

>  <PUBCHEM_CACTVS_ROTATABLE_BOND>
14

>  <PUBCHEM_CACTVS_SUBSKEYS>
AAADcfB4MAAAAAAAAAAAAAAAAAAAAAAAAAAAAAAAAAAAAAAAAAAAGgAACAAACBSggAICAAAAAgAAAAAAAAAAAAAAAAAAAAAAAAABEAIAAAAAQAAEAAABAAGAwKAAAAAAAAAAAAAAAAAAAAAAAAAAAAAAAA==

>  <PUBCHEM_IUPAC_OPENEYE_NAME>
hexadecane-1,2-diol

>  <PUBCHEM_IUPAC_CAS_NAME>
hexadecane-1,2-diol

>  <PUBCHEM_IUPAC_NAME>
hexadecane-1,2-diol

>  <PUBCHEM_IUPAC_SYSTEMATIC_NAME>
hexadecane-1,2-diol

>  <PUBCHEM_IUPAC_TRADITIONAL_NAME>
hexadecane-1,2-diol

>  <PUBCHEM_IUPAC_INCHI>
InChI=1S/C16H34O2/c1-2-3-4-5-6-7-8-9-10-11-12-13-14-16(18)15-17/h16-18H,2-15H2,1H3

>  <PUBCHEM_IUPAC_INCHIKEY>
BTOOAFQCTJZDRC-UHFFFAOYSA-N

>  <PUBCHEM_XLOGP3_AA>
6.1

>  <PUBCHEM_EXACT_MASS>
258.256

>  <PUBCHEM_MOLECULAR_FORMULA>
C16H34O2

>  <PUBCHEM_MOLECULAR_WEIGHT>
258.446

>  <PUBCHEM_OPENEYE_CAN_SMILES>
CCCCCCCCCCCCCCC(CO)O

>  <PUBCHEM_OPENEYE_ISO_SMILES>
CCCCCCCCCCCCCCC(CO)O

>  <PUBCHEM_CACTVS_TPSA>
40.5

>  <PUBCHEM_MONOISOTOPIC_WEIGHT>
258.256

>  <PUBCHEM_TOTAL_CHARGE>
0

>  <PUBCHEM_HEAVY_ATOM_COUNT>
18

>  <PUBCHEM_ATOM_DEF_STEREO_COUNT>
0

>  <PUBCHEM_ATOM_UDEF_STEREO_COUNT>
1

>  <PUBCHEM_BOND_DEF_STEREO_COUNT>
0

>  <PUBCHEM_BOND_UDEF_STEREO_COUNT>
0

>  <PUBCHEM_ISOTOPIC_ATOM_COUNT>
0

>  <PUBCHEM_COMPONENT_COUNT>
1

>  <PUBCHEM_CACTVS_TAUTO_COUNT>
1

>  <PUBCHEM_COORDINATE_TYPE>
1
5
255

>  <PUBCHEM_BONDANNOTATIONS>
15  43  3

$$$$
