9828626
 OpenBabel06101807152D

 96 97  0  0  0  0  0  0  0  0999 V2000
    3.0000   -1.5000    0.0000 C   0  0  0  0  0  0  0  0  0  0  0  0
   19.4545    2.0000    0.0000 C   0  0  0  0  0  0  0  0  0  0  0  0
    3.0000   -2.5000    0.0000 C   0  0  0  0  0  0  0  0  0  0  0  0
   20.3205    1.5000    0.0000 C   0  0  0  0  0  0  0  0  0  0  0  0
    3.8660   -3.0000    0.0000 C   0  0  0  0  0  0  0  0  0  0  0  0
   20.3205    0.5000    0.0000 C   0  0  0  0  0  0  0  0  0  0  0  0
    3.8660   -1.0000    0.0000 C   0  0  0  0  0  0  0  0  0  0  0  0
   18.5885    1.5000    0.0000 C   0  0  0  0  0  0  0  0  0  0  0  0
    4.7320   -2.5000    0.0000 C   0  0  0  0  0  0  0  0  0  0  0  0
   19.4545    0.0000    0.0000 C   0  0  0  0  0  0  0  0  0  0  0  0
    4.7320   -1.5000    0.0000 C   0  0  0  0  0  0  0  0  0  0  0  0
   18.5885    0.5000    0.0000 C   0  0  0  0  0  0  0  0  0  0  0  0
    2.0000   -1.5000    0.0000 C   0  0  0  0  0  0  0  0  0  0  0  0
    2.5000   -0.6340    0.0000 C   0  0  0  0  0  0  0  0  0  0  0  0
   19.9545    2.8660    0.0000 C   0  0  0  0  0  0  0  0  0  0  0  0
   18.9545    2.8660    0.0000 C   0  0  0  0  0  0  0  0  0  0  0  0
    3.8660    0.0000    0.0000 C   0  0  0  0  0  0  0  0  0  0  0  0
   17.7224    2.0000    0.0000 C   0  0  0  0  0  0  0  0  0  0  0  0
    5.5981   -1.0000    0.0000 C   0  0  0  0  0  0  0  0  0  0  0  0
   17.7224    0.0000    0.0000 C   0  0  0  0  0  0  0  0  0  0  0  0
    4.7320    0.5000    0.0000 C   0  0  0  0  0  0  0  0  0  0  0  0
   16.8564    1.5000    0.0000 C   0  0  0  0  0  0  0  0  0  0  0  0
    4.7320    1.5000    0.0000 C   0  0  0  0  0  0  0  0  0  0  0  0
   15.9904    2.0000    0.0000 C   0  0  0  0  0  0  0  0  0  0  0  0
    3.8660    2.0000    0.0000 C   0  0  0  0  0  0  0  0  0  0  0  0
   15.9904    3.0000    0.0000 C   0  0  0  0  0  0  0  0  0  0  0  0
    5.5981    2.0000    0.0000 C   0  0  0  0  0  0  0  0  0  0  0  0
   15.1244    1.5000    0.0000 C   0  0  0  0  0  0  0  0  0  0  0  0
    6.4641    1.5000    0.0000 C   0  0  0  0  0  0  0  0  0  0  0  0
   14.2583    2.0000    0.0000 C   0  0  0  0  0  0  0  0  0  0  0  0
    7.3301    2.0000    0.0000 C   0  0  0  0  0  0  0  0  0  0  0  0
   13.3923    1.5000    0.0000 C   0  0  0  0  0  0  0  0  0  0  0  0
    8.1962    1.5000    0.0000 C   0  0  0  0  0  0  0  0  0  0  0  0
   12.5263    2.0000    0.0000 C   0  0  0  0  0  0  0  0  0  0  0  0
    8.1962    0.5000    0.0000 C   0  0  0  0  0  0  0  0  0  0  0  0
   12.5263    3.0000    0.0000 C   0  0  0  0  0  0  0  0  0  0  0  0
    9.0622    2.0000    0.0000 C   0  0  0  0  0  0  0  0  0  0  0  0
   11.6603    1.5000    0.0000 C   0  0  0  0  0  0  0  0  0  0  0  0
    9.9282    1.5000    0.0000 C   0  0  0  0  0  0  0  0  0  0  0  0
   10.7942    2.0000    0.0000 C   0  0  0  0  0  0  0  0  0  0  0  0
    2.3894   -2.3923    0.0000 H   0  0  0  0  0  0  0  0  0  0  0  0
    2.7880   -3.0826    0.0000 H   0  0  0  0  0  0  0  0  0  0  0  0
   20.9311    1.3923    0.0000 H   0  0  0  0  0  0  0  0  0  0  0  0
   20.5326    2.0826    0.0000 H   0  0  0  0  0  0  0  0  0  0  0  0
    3.4675   -3.4750    0.0000 H   0  0  0  0  0  0  0  0  0  0  0  0
    4.2646   -3.4750    0.0000 H   0  0  0  0  0  0  0  0  0  0  0  0
   20.5326   -0.0826    0.0000 H   0  0  0  0  0  0  0  0  0  0  0  0
   20.9311    0.6077    0.0000 H   0  0  0  0  0  0  0  0  0  0  0  0
    4.9441   -3.0826    0.0000 H   0  0  0  0  0  0  0  0  0  0  0  0
    5.3426   -2.3923    0.0000 H   0  0  0  0  0  0  0  0  0  0  0  0
   19.0560   -0.4749    0.0000 H   0  0  0  0  0  0  0  0  0  0  0  0
   19.8530   -0.4749    0.0000 H   0  0  0  0  0  0  0  0  0  0  0  0
    2.0000   -0.8800    0.0000 H   0  0  0  0  0  0  0  0  0  0  0  0
    3.0369   -0.3240    0.0000 H   0  0  0  0  0  0  0  0  0  0  0  0
    2.1900   -0.0970    0.0000 H   0  0  0  0  0  0  0  0  0  0  0  0
    1.9631   -0.9440    0.0000 H   0  0  0  0  0  0  0  0  0  0  0  0
    1.3800   -1.5000    0.0000 H   0  0  0  0  0  0  0  0  0  0  0  0
    2.0000   -2.1200    0.0000 H   0  0  0  0  0  0  0  0  0  0  0  0
   19.4914    3.1760    0.0000 H   0  0  0  0  0  0  0  0  0  0  0  0
   18.6445    3.4030    0.0000 H   0  0  0  0  0  0  0  0  0  0  0  0
   18.4175    2.5560    0.0000 H   0  0  0  0  0  0  0  0  0  0  0  0
   20.4914    2.5560    0.0000 H   0  0  0  0  0  0  0  0  0  0  0  0
   20.2645    3.4030    0.0000 H   0  0  0  0  0  0  0  0  0  0  0  0
   19.4175    3.1760    0.0000 H   0  0  0  0  0  0  0  0  0  0  0  0
    3.3291    0.3100    0.0000 H   0  0  0  0  0  0  0  0  0  0  0  0
   17.7224    2.6200    0.0000 H   0  0  0  0  0  0  0  0  0  0  0  0
    5.9081   -1.5369    0.0000 H   0  0  0  0  0  0  0  0  0  0  0  0
    6.1350   -0.6900    0.0000 H   0  0  0  0  0  0  0  0  0  0  0  0
    5.2881   -0.4631    0.0000 H   0  0  0  0  0  0  0  0  0  0  0  0
   17.4124    0.5369    0.0000 H   0  0  0  0  0  0  0  0  0  0  0  0
   17.1855   -0.3100    0.0000 H   0  0  0  0  0  0  0  0  0  0  0  0
   18.0324   -0.5369    0.0000 H   0  0  0  0  0  0  0  0  0  0  0  0
    5.2690    0.1900    0.0000 H   0  0  0  0  0  0  0  0  0  0  0  0
   16.8564    0.8800    0.0000 H   0  0  0  0  0  0  0  0  0  0  0  0
    4.1760    2.5369    0.0000 H   0  0  0  0  0  0  0  0  0  0  0  0
    3.3291    2.3100    0.0000 H   0  0  0  0  0  0  0  0  0  0  0  0
    3.5560    1.4631    0.0000 H   0  0  0  0  0  0  0  0  0  0  0  0
   16.6104    3.0000    0.0000 H   0  0  0  0  0  0  0  0  0  0  0  0
   15.9904    3.6200    0.0000 H   0  0  0  0  0  0  0  0  0  0  0  0
   15.3704    3.0000    0.0000 H   0  0  0  0  0  0  0  0  0  0  0  0
    5.5981    2.6200    0.0000 H   0  0  0  0  0  0  0  0  0  0  0  0
   15.1244    0.8800    0.0000 H   0  0  0  0  0  0  0  0  0  0  0  0
    6.4641    0.8800    0.0000 H   0  0  0  0  0  0  0  0  0  0  0  0
   14.2583    2.6200    0.0000 H   0  0  0  0  0  0  0  0  0  0  0  0
    7.3301    2.6200    0.0000 H   0  0  0  0  0  0  0  0  0  0  0  0
   13.3923    0.8800    0.0000 H   0  0  0  0  0  0  0  0  0  0  0  0
    7.5762    0.5000    0.0000 H   0  0  0  0  0  0  0  0  0  0  0  0
    8.1962   -0.1200    0.0000 H   0  0  0  0  0  0  0  0  0  0  0  0
    8.8162    0.5000    0.0000 H   0  0  0  0  0  0  0  0  0  0  0  0
   13.1463    3.0000    0.0000 H   0  0  0  0  0  0  0  0  0  0  0  0
   12.5263    3.6200    0.0000 H   0  0  0  0  0  0  0  0  0  0  0  0
   11.9063    3.0000    0.0000 H   0  0  0  0  0  0  0  0  0  0  0  0
    9.0622    2.6200    0.0000 H   0  0  0  0  0  0  0  0  0  0  0  0
   11.6603    0.8800    0.0000 H   0  0  0  0  0  0  0  0  0  0  0  0
    9.9282    0.8800    0.0000 H   0  0  0  0  0  0  0  0  0  0  0  0
   10.7942    2.6200    0.0000 H   0  0  0  0  0  0  0  0  0  0  0  0
  1  3  1  0  0  0  0
  1  7  1  0  0  0  0
  1 13  1  0  0  0  0
  1 14  1  0  0  0  0
  2  4  1  0  0  0  0
  2  8  1  0  0  0  0
  2 15  1  0  0  0  0
  2 16  1  0  0  0  0
  3  5  1  0  0  0  0
  3 41  1  0  0  0  0
  3 42  1  0  0  0  0
  4  6  1  0  0  0  0
  4 43  1  0  0  0  0
  4 44  1  0  0  0  0
  5  9  1  0  0  0  0
  5 45  1  0  0  0  0
  5 46  1  0  0  0  0
  6 10  1  0  0  0  0
  6 47  1  0  0  0  0
  6 48  1  0  0  0  0
  7 11  2  0  0  0  0
  7 17  1  0  0  0  0
  8 12  2  0  0  0  0
  8 18  1  0  0  0  0
  9 11  1  0  0  0  0
  9 49  1  0  0  0  0
  9 50  1  0  0  0  0
 10 12  1  0  0  0  0
 10 51  1  0  0  0  0
 10 52  1  0  0  0  0
 11 19  1  0  0  0  0
 12 20  1  0  0  0  0
 13 53  1  0  0  0  0
 13 57  1  0  0  0  0
 13 58  1  0  0  0  0
 14 54  1  0  0  0  0
 14 55  1  0  0  0  0
 14 56  1  0  0  0  0
 15 62  1  0  0  0  0
 15 63  1  0  0  0  0
 15 64  1  0  0  0  0
 16 59  1  0  0  0  0
 16 60  1  0  0  0  0
 16 61  1  0  0  0  0
 17 21  2  0  0  0  0
 17 65  1  0  0  0  0
 18 22  2  0  0  0  0
 18 66  1  0  0  0  0
 19 67  1  0  0  0  0
 19 68  1  0  0  0  0
 19 69  1  0  0  0  0
 20 70  1  0  0  0  0
 20 71  1  0  0  0  0
 20 72  1  0  0  0  0
 21 23  1  0  0  0  0
 21 73  1  0  0  0  0
 22 24  1  0  0  0  0
 22 74  1  0  0  0  0
 23 25  1  0  0  0  0
 23 27  2  0  0  0  0
 24 26  1  0  0  0  0
 24 28  2  0  0  0  0
 25 75  1  0  0  0  0
 25 76  1  0  0  0  0
 25 77  1  0  0  0  0
 26 78  1  0  0  0  0
 26 79  1  0  0  0  0
 26 80  1  0  0  0  0
 27 29  1  0  0  0  0
 27 81  1  0  0  0  0
 28 30  1  0  0  0  0
 28 82  1  0  0  0  0
 29 31  2  0  0  0  0
 29 83  1  0  0  0  0
 30 32  2  0  0  0  0
 30 84  1  0  0  0  0
 31 33  1  0  0  0  0
 31 85  1  0  0  0  0
 32 34  1  0  0  0  0
 32 86  1  0  0  0  0
 33 35  1  0  0  0  0
 33 37  2  0  0  0  0
 34 36  1  0  0  0  0
 34 38  2  0  0  0  0
 35 87  1  0  0  0  0
 35 88  1  0  0  0  0
 35 89  1  0  0  0  0
 36 90  1  0  0  0  0
 36 91  1  0  0  0  0
 36 92  1  0  0  0  0
 37 39  1  0  0  0  0
 37 93  1  0  0  0  0
 38 40  1  0  0  0  0
 38 94  1  0  0  0  0
 39 40  2  0  0  0  0
 39 95  1  0  0  0  0
 40 96  1  0  0  0  0
M  END
>  <PUBCHEM_COMPOUND_CID>
9828626

>  <PUBCHEM_COMPOUND_CANONICALIZED>
1

>  <PUBCHEM_CACTVS_COMPLEXITY>
1120

>  <PUBCHEM_CACTVS_HBOND_ACCEPTOR>
0

>  <PUBCHEM_CACTVS_HBOND_DONOR>
0

>  <PUBCHEM_CACTVS_ROTATABLE_BOND>
10

>  <PUBCHEM_CACTVS_SUBSKEYS>
AAADcfB8AAAAAAAAAAAAAAAAAAAAAAAAAAAgQAAAAAAAAAAAAAAAGAAAAAAADgCAAAACAAAAAACAAiBCAAAAAAAgAAAICAAAAAgIAAIAAQAAAAAAgAAIgAMAgMAPAAAAAAAAAAAAAAAAAAAAAAAAAAAAAA==

>  <PUBCHEM_IUPAC_OPENEYE_NAME>
1,3,3-trimethyl-2-[(1E,3Z,5E,7E,9E,11E,13E,15E,17E)-3,7,12,16-tetramethyl-18-(2,6,6-trimethylcyclohexen-1-yl)octadeca-1,3,5,7,9,11,13,15,17-nonaenyl]cyclohexene

>  <PUBCHEM_IUPAC_CAS_NAME>
1,3,3-trimethyl-2-[(1E,3Z,5E,7E,9E,11E,13E,15E,17E)-3,7,12,16-tetramethyl-18-(2,6,6-trimethyl-1-cyclohexenyl)octadeca-1,3,5,7,9,11,13,15,17-nonaenyl]cyclohexene

>  <PUBCHEM_IUPAC_NAME>
1,3,3-trimethyl-2-[(1E,3Z,5E,7E,9E,11E,13E,15E,17E)-3,7,12,16-tetramethyl-18-(2,6,6-trimethylcyclohexen-1-yl)octadeca-1,3,5,7,9,11,13,15,17-nonaenyl]cyclohexene

>  <PUBCHEM_IUPAC_SYSTEMATIC_NAME>
1,3,3-trimethyl-2-[(1E,3Z,5E,7E,9E,11E,13E,15E,17E)-3,7,12,16-tetramethyl-18-(2,6,6-trimethylcyclohexen-1-yl)octadeca-1,3,5,7,9,11,13,15,17-nonaenyl]cyclohexene

>  <PUBCHEM_IUPAC_TRADITIONAL_NAME>
1,3,3-trimethyl-2-[(1E,3Z,5E,7E,9E,11E,13E,15E,17E)-3,7,12,16-tetramethyl-18-(2,6,6-trimethylcyclohexen-1-yl)octadeca-1,3,5,7,9,11,13,15,17-nonaenyl]cyclohexene

>  <PUBCHEM_IUPAC_INCHI>
InChI=1S/C40H56/c1-31(19-13-21-33(3)25-27-37-35(5)23-15-29-39(37,7)8)17-11-12-18-32(2)20-14-22-34(4)26-28-38-36(6)24-16-30-40(38,9)10/h11-14,17-22,25-28H,15-16,23-24,29-30H2,1-10H3/b12-11+,19-13+,20-14+,27-25+,28-26+,31-17+,32-18+,33-21-,34-22+

>  <PUBCHEM_IUPAC_INCHIKEY>
OENHQHLEOONYIE-BVZAMQQESA-N

>  <PUBCHEM_XLOGP3>
13.5

>  <PUBCHEM_EXACT_MASS>
536.438

>  <PUBCHEM_MOLECULAR_FORMULA>
C40H56

>  <PUBCHEM_MOLECULAR_WEIGHT>
536.888

>  <PUBCHEM_OPENEYE_CAN_SMILES>
CC1=C(C(CCC1)(C)C)C=CC(=CC=CC(=CC=CC=C(C)C=CC=C(C)C=CC2=C(CCCC2(C)C)C)C)C

>  <PUBCHEM_OPENEYE_ISO_SMILES>
CC1=C(C(CCC1)(C)C)/C=C/C(=C/C=C/C(=C/C=C/C=C(\C)/C=C/C=C(/C)\C=C\C2=C(CCCC2(C)C)C)/C)/C

>  <PUBCHEM_CACTVS_TPSA>
0

>  <PUBCHEM_MONOISOTOPIC_WEIGHT>
536.438

>  <PUBCHEM_TOTAL_CHARGE>
0

>  <PUBCHEM_HEAVY_ATOM_COUNT>
40

>  <PUBCHEM_ATOM_DEF_STEREO_COUNT>
0

>  <PUBCHEM_ATOM_UDEF_STEREO_COUNT>
0

>  <PUBCHEM_BOND_DEF_STEREO_COUNT>
9

>  <PUBCHEM_BOND_UDEF_STEREO_COUNT>
0

>  <PUBCHEM_ISOTOPIC_ATOM_COUNT>
0

>  <PUBCHEM_COMPONENT_COUNT>
1

>  <PUBCHEM_CACTVS_TAUTO_COUNT>
1

>  <PUBCHEM_COORDINATE_TYPE>
1
5
255

$$$$
