98331
 OpenBabel06101807152D

 40 42  0  0  1  0  0  0  0  0999 V2000
    5.5987   -1.3917    0.0000 O   0  0  0  0  0  0  0  0  0  0  0  0
    2.7364    0.9566    0.0000 O   0  0  0  0  0  0  0  0  0  0  0  0
    2.9138   -0.5926    0.0000 O   0  0  0  0  0  0  0  0  0  0  0  0
    5.8774   -3.1518    0.0000 O   0  0  0  0  0  0  0  0  0  0  0  0
    2.0000    2.5731    0.0000 O   0  0  0  0  0  0  0  0  0  0  0  0
    4.7896   -0.8039    0.0000 C   0  0  3  0  0  0  0  0  0  0  0  0
    3.8887   -0.3700    0.0000 C   0  0  3  0  0  0  0  0  0  0  0  0
    5.6906   -0.3700    0.0000 C   0  0  3  0  0  0  0  0  0  0  0  0
    3.6662    0.6049    0.0000 C   0  0  3  0  0  0  0  0  0  0  0  0
    4.2896    1.3867    0.0000 C   0  0  3  0  0  0  0  0  0  0  0  0
    3.9806   -1.3917    0.0000 C   0  0  0  0  0  0  0  0  0  0  0  0
    5.9131    0.6049    0.0000 C   0  0  0  0  0  0  0  0  0  0  0  0
    5.2896    1.3867    0.0000 C   0  0  0  0  0  0  0  0  0  0  0  0
    3.3050   -1.1820    0.0000 C   0  0  0  0  0  0  0  0  0  0  0  0
    4.2896   -2.3428    0.0000 C   0  0  0  0  0  0  0  0  0  0  0  0
    6.4724   -0.9935    0.0000 C   0  0  0  0  0  0  0  0  0  0  0  0
    3.7399    2.2149    0.0000 C   0  0  0  0  0  0  0  0  0  0  0  0
    5.2896   -2.3428    0.0000 C   0  0  0  0  0  0  0  0  0  0  0  0
    2.7818    1.9496    0.0000 C   0  0  0  0  0  0  0  0  0  0  0  0
    4.0896    3.1518    0.0000 C   0  0  0  0  0  0  0  0  0  0  0  0
    6.2758   -0.1653    0.0000 H   0  0  0  0  0  0  0  0  0  0  0  0
    3.1987    0.1976    0.0000 H   0  0  0  0  0  0  0  0  0  0  0  0
    4.5827    1.9331    0.0000 H   0  0  0  0  0  0  0  0  0  0  0  0
    3.6706   -0.8548    0.0000 H   0  0  0  0  0  0  0  0  0  0  0  0
    3.4142   -1.6439    0.0000 H   0  0  0  0  0  0  0  0  0  0  0  0
    6.4717    0.3359    0.0000 H   0  0  0  0  0  0  0  0  0  0  0  0
    6.2997    1.0896    0.0000 H   0  0  0  0  0  0  0  0  0  0  0  0
    5.8482    1.6557    0.0000 H   0  0  0  0  0  0  0  0  0  0  0  0
    5.1517    1.9912    0.0000 H   0  0  0  0  0  0  0  0  0  0  0  0
    2.8016   -0.8201    0.0000 H   0  0  0  0  0  0  0  0  0  0  0  0
    2.9431   -1.6854    0.0000 H   0  0  0  0  0  0  0  0  0  0  0  0
    3.8084   -1.5439    0.0000 H   0  0  0  0  0  0  0  0  0  0  0  0
    3.6832   -2.4717    0.0000 H   0  0  0  0  0  0  0  0  0  0  0  0
    4.3544   -2.9594    0.0000 H   0  0  0  0  0  0  0  0  0  0  0  0
    6.0859   -1.4783    0.0000 H   0  0  0  0  0  0  0  0  0  0  0  0
    6.9572   -1.3801    0.0000 H   0  0  0  0  0  0  0  0  0  0  0  0
    6.8590   -0.5088    0.0000 H   0  0  0  0  0  0  0  0  0  0  0  0
    2.4920   -0.1381    0.0000 H   0  0  0  0  0  0  0  0  0  0  0  0
    4.7011    3.2544    0.0000 H   0  0  0  0  0  0  0  0  0  0  0  0
    3.6950    3.6300    0.0000 H   0  0  0  0  0  0  0  0  0  0  0  0
  1  6  1  0  0  0  0
  1 18  1  0  0  0  0
  2  9  1  0  0  0  0
  2 19  1  0  0  0  0
  3  7  1  0  0  0  0
  3 38  1  0  0  0  0
  4 18  2  0  0  0  0
  5 19  2  0  0  0  0
  6  7  1  0  0  0  0
  6  8  1  0  0  0  0
  6 11  1  0  0  0  0
  7  9  1  0  0  0  0
  7 14  1  0  0  0  0
  8 12  1  0  0  0  0
  8 16  1  0  0  0  0
  8 21  1  0  0  0  0
  9 10  1  0  0  0  0
  9 22  1  0  0  0  0
 10 13  1  0  0  0  0
 10 17  1  0  0  0  0
 10 23  1  0  0  0  0
 11 15  1  0  0  0  0
 11 24  1  0  0  0  0
 11 25  1  0  0  0  0
 12 13  1  0  0  0  0
 12 26  1  0  0  0  0
 12 27  1  0  0  0  0
 13 28  1  0  0  0  0
 13 29  1  0  0  0  0
 14 30  1  0  0  0  0
 14 31  1  0  0  0  0
 14 32  1  0  0  0  0
 15 18  1  0  0  0  0
 15 33  1  0  0  0  0
 15 34  1  0  0  0  0
 16 35  1  0  0  0  0
 16 36  1  0  0  0  0
 16 37  1  0  0  0  0
 17 19  1  0  0  0  0
 17 20  2  0  0  0  0
 20 39  1  0  0  0  0
 20 40  1  0  0  0  0
M  END
>  <PUBCHEM_COMPOUND_CID>
98331

>  <PUBCHEM_COMPOUND_CANONICALIZED>
1

>  <PUBCHEM_CACTVS_COMPLEXITY>
499

>  <PUBCHEM_CACTVS_HBOND_ACCEPTOR>
5

>  <PUBCHEM_CACTVS_HBOND_DONOR>
1

>  <PUBCHEM_CACTVS_ROTATABLE_BOND>
0

>  <PUBCHEM_CACTVS_SUBSKEYS>
AAADceBwOAAAAAAAAAAAAAAAAAAAASJAAAAAAAAABgAAAACQAAAAGgAACAAADVSggAICCAAABgCIAgDSCAAAAAAgAAAAAAEAAEgBBBIAIQACQAAFwAADIIGK7PTOgAAAAAAAAAAAAAAAAAAAAAAAAAAAAA==

>  <PUBCHEM_IUPAC_OPENEYE_NAME>
8-hydroxy-6,8-dimethyl-3-methylene-spiro[4,5,6,8a-tetrahydro-3aH-cyclohepta[b]furan-7,5'-tetrahydrofuran]-2,2'-dione

>  <PUBCHEM_IUPAC_CAS_NAME>
8-hydroxy-6,8-dimethyl-3-methylenespiro[4,5,6,8a-tetrahydro-3aH-cyclohepta[b]furan-7,5'-oxolane]-2,2'-dione

>  <PUBCHEM_IUPAC_NAME>
8-hydroxy-6,8-dimethyl-3-methylidenespiro[4,5,6,8a-tetrahydro-3aH-cyclohepta[b]furan-7,5'-oxolane]-2,2'-dione

>  <PUBCHEM_IUPAC_SYSTEMATIC_NAME>
6,8-dimethyl-3-methylidene-8-oxidanyl-spiro[4,5,6,8a-tetrahydro-3aH-cyclohepta[b]furan-7,5'-oxolane]-2,2'-dione

>  <PUBCHEM_IUPAC_TRADITIONAL_NAME>
8-hydroxy-6,8-dimethyl-3-methylene-spiro[4,5,6,8a-tetrahydro-3aH-cyclohepta[b]furan-7,5'-tetrahydrofuran]-2,2'-quinone

>  <PUBCHEM_IUPAC_INCHI>
InChI=1S/C15H20O5/c1-8-4-5-10-9(2)13(17)19-12(10)14(3,18)15(8)7-6-11(16)20-15/h8,10,12,18H,2,4-7H2,1,3H3

>  <PUBCHEM_IUPAC_INCHIKEY>
IRPFOXRBPHCCTG-UHFFFAOYSA-N

>  <PUBCHEM_XLOGP3_AA>
1.3

>  <PUBCHEM_EXACT_MASS>
280.131

>  <PUBCHEM_MOLECULAR_FORMULA>
C15H20O5

>  <PUBCHEM_MOLECULAR_WEIGHT>
280.32

>  <PUBCHEM_OPENEYE_CAN_SMILES>
CC1CCC2C(C(C13CCC(=O)O3)(C)O)OC(=O)C2=C

>  <PUBCHEM_OPENEYE_ISO_SMILES>
CC1CCC2C(C(C13CCC(=O)O3)(C)O)OC(=O)C2=C

>  <PUBCHEM_CACTVS_TPSA>
72.8

>  <PUBCHEM_MONOISOTOPIC_WEIGHT>
280.131

>  <PUBCHEM_TOTAL_CHARGE>
0

>  <PUBCHEM_HEAVY_ATOM_COUNT>
20

>  <PUBCHEM_ATOM_DEF_STEREO_COUNT>
0

>  <PUBCHEM_ATOM_UDEF_STEREO_COUNT>
5

>  <PUBCHEM_BOND_DEF_STEREO_COUNT>
0

>  <PUBCHEM_BOND_UDEF_STEREO_COUNT>
0

>  <PUBCHEM_ISOTOPIC_ATOM_COUNT>
0

>  <PUBCHEM_COMPONENT_COUNT>
1

>  <PUBCHEM_CACTVS_TAUTO_COUNT>
2

>  <PUBCHEM_COORDINATE_TYPE>
1
5
255

>  <PUBCHEM_BONDANNOTATIONS>
10  17  3
9  2  3
7  3  3
6  11  3
8  16  3

$$$$
