9904510
 OpenBabel06101807152D

 52 53  0  0  1  0  0  0  0  0999 V2000
    2.5369   -3.2032    0.0000 O   0  0  0  0  0  0  0  0  0  0  0  0
    5.1350   -3.7032    0.0000 O   0  0  0  0  0  0  0  0  0  0  0  0
    5.1350    1.2968    0.0000 C   0  0  3  0  0  0  0  0  0  0  0  0
    5.1350    2.2968    0.0000 C   0  0  3  0  0  0  0  0  0  0  0  0
    6.0290    2.8315    0.0000 C   0  0  0  0  0  0  0  0  0  0  0  0
    4.2690    0.7968    0.0000 C   0  0  3  0  0  0  0  0  0  0  0  0
    6.0290    0.7621    0.0000 C   0  0  0  0  0  0  0  0  0  0  0  0
    4.2690    2.7968    0.0000 C   0  0  0  0  0  0  0  0  0  0  0  0
    6.9350    2.3176    0.0000 C   0  0  0  0  0  0  0  0  0  0  0  0
    6.9350    1.2760    0.0000 C   0  0  0  0  0  0  0  0  0  0  0  0
    5.1350    0.2968    0.0000 C   0  0  0  0  0  0  0  0  0  0  0  0
    3.4030    2.2968    0.0000 C   0  0  0  0  0  0  0  0  0  0  0  0
    3.4030    1.2968    0.0000 C   0  0  0  0  0  0  0  0  0  0  0  0
    6.5189    3.7032    0.0000 C   0  0  0  0  0  0  0  0  0  0  0  0
    5.5190    3.6916    0.0000 C   0  0  0  0  0  0  0  0  0  0  0  0
    4.2690   -0.2032    0.0000 C   0  0  0  0  0  0  0  0  0  0  0  0
    2.5369    0.7968    0.0000 C   0  0  0  0  0  0  0  0  0  0  0  0
    3.4030   -0.7032    0.0000 C   0  0  0  0  0  0  0  0  0  0  0  0
    3.4030   -1.7032    0.0000 C   0  0  0  0  0  0  0  0  0  0  0  0
    4.2690   -2.2032    0.0000 C   0  0  0  0  0  0  0  0  0  0  0  0
    2.5369   -2.2032    0.0000 C   0  0  0  0  0  0  0  0  0  0  0  0
    4.2690   -3.2032    0.0000 C   0  0  0  0  0  0  0  0  0  0  0  0
    5.1285    3.1468    0.0000 H   0  0  0  0  0  0  0  0  0  0  0  0
    3.5329    0.3718    0.0000 H   0  0  0  0  0  0  0  0  0  0  0  0
    5.6244    0.2923    0.0000 H   0  0  0  0  0  0  0  0  0  0  0  0
    6.4226    0.2831    0.0000 H   0  0  0  0  0  0  0  0  0  0  0  0
    4.6675    3.2717    0.0000 H   0  0  0  0  0  0  0  0  0  0  0  0
    3.8705    3.2717    0.0000 H   0  0  0  0  0  0  0  0  0  0  0  0
    7.5459    2.2115    0.0000 H   0  0  0  0  0  0  0  0  0  0  0  0
    7.1441    2.9013    0.0000 H   0  0  0  0  0  0  0  0  0  0  0  0
    7.1441    0.6923    0.0000 H   0  0  0  0  0  0  0  0  0  0  0  0
    7.5459    1.3821    0.0000 H   0  0  0  0  0  0  0  0  0  0  0  0
    4.5150    0.2968    0.0000 H   0  0  0  0  0  0  0  0  0  0  0  0
    5.1350   -0.3232    0.0000 H   0  0  0  0  0  0  0  0  0  0  0  0
    5.7550    0.2968    0.0000 H   0  0  0  0  0  0  0  0  0  0  0  0
    3.1909    2.8794    0.0000 H   0  0  0  0  0  0  0  0  0  0  0  0
    2.7924    2.1891    0.0000 H   0  0  0  0  0  0  0  0  0  0  0  0
    7.0594    3.3994    0.0000 H   0  0  0  0  0  0  0  0  0  0  0  0
    6.8227    4.2437    0.0000 H   0  0  0  0  0  0  0  0  0  0  0  0
    5.9784    4.0070    0.0000 H   0  0  0  0  0  0  0  0  0  0  0  0
    6.0523    4.0078    0.0000 H   0  0  0  0  0  0  0  0  0  0  0  0
    5.2028    4.2250    0.0000 H   0  0  0  0  0  0  0  0  0  0  0  0
    4.9857    3.3754    0.0000 H   0  0  0  0  0  0  0  0  0  0  0  0
    4.4810   -0.7858    0.0000 H   0  0  0  0  0  0  0  0  0  0  0  0
    4.8796   -0.0955    0.0000 H   0  0  0  0  0  0  0  0  0  0  0  0
    2.0000    1.1068    0.0000 H   0  0  0  0  0  0  0  0  0  0  0  0
    2.5369    0.1768    0.0000 H   0  0  0  0  0  0  0  0  0  0  0  0
    2.8660   -0.3932    0.0000 H   0  0  0  0  0  0  0  0  0  0  0  0
    4.8796   -2.3109    0.0000 H   0  0  0  0  0  0  0  0  0  0  0  0
    4.4810   -1.6206    0.0000 H   0  0  0  0  0  0  0  0  0  0  0  0
    2.0000   -1.8932    0.0000 H   0  0  0  0  0  0  0  0  0  0  0  0
    3.7320   -3.5132    0.0000 H   0  0  0  0  0  0  0  0  0  0  0  0
  1 21  2  0  0  0  0
  2 22  2  0  0  0  0
  3  4  1  0  0  0  0
  3  6  1  0  0  0  0
  3  7  1  0  0  0  0
  3 11  1  0  0  0  0
  4  5  1  0  0  0  0
  4  8  1  0  0  0  0
  4 23  1  0  0  0  0
  5  9  1  0  0  0  0
  5 14  1  0  0  0  0
  5 15  1  0  0  0  0
  6 13  1  0  0  0  0
  6 16  1  0  0  0  0
  6 24  1  0  0  0  0
  7 10  1  0  0  0  0
  7 25  1  0  0  0  0
  7 26  1  0  0  0  0
  8 12  1  0  0  0  0
  8 27  1  0  0  0  0
  8 28  1  0  0  0  0
  9 10  1  0  0  0  0
  9 29  1  0  0  0  0
  9 30  1  0  0  0  0
 10 31  1  0  0  0  0
 10 32  1  0  0  0  0
 11 33  1  0  0  0  0
 11 34  1  0  0  0  0
 11 35  1  0  0  0  0
 12 13  1  0  0  0  0
 12 36  1  0  0  0  0
 12 37  1  0  0  0  0
 13 17  2  0  0  0  0
 14 38  1  0  0  0  0
 14 39  1  0  0  0  0
 14 40  1  0  0  0  0
 15 41  1  0  0  0  0
 15 42  1  0  0  0  0
 15 43  1  0  0  0  0
 16 18  1  0  0  0  0
 16 44  1  0  0  0  0
 16 45  1  0  0  0  0
 17 46  1  0  0  0  0
 17 47  1  0  0  0  0
 18 19  2  0  0  0  0
 18 48  1  0  0  0  0
 19 20  1  0  0  0  0
 19 21  1  0  0  0  0
 20 22  1  0  0  0  0
 20 49  1  0  0  0  0
 20 50  1  0  0  0  0
 21 51  1  0  0  0  0
 22 52  1  0  0  0  0
M  END
>  <PUBCHEM_COMPOUND_CID>
9904510

>  <PUBCHEM_COMPOUND_CANONICALIZED>
1

>  <PUBCHEM_CACTVS_COMPLEXITY>
486

>  <PUBCHEM_CACTVS_HBOND_ACCEPTOR>
2

>  <PUBCHEM_CACTVS_HBOND_DONOR>
0

>  <PUBCHEM_CACTVS_ROTATABLE_BOND>
5

>  <PUBCHEM_CACTVS_SUBSKEYS>
AAADceB4MAAAAAAAAAAAAAAAAAAAAAAAAAAwYAAAAAAAAADAAAAAGgAAAAAADwCggAICAAAAAACIAihSgAAAAAAgAAAACAEAAEgAABIAAQAAAAAAgAAIAYMBgMAPgAAAAAAAAAAAAAQAACAAAAAAAAAAAA==

>  <PUBCHEM_IUPAC_OPENEYE_NAME>
(2E)-2-[2-(5,5,8a-trimethyl-2-methylene-decalin-1-yl)ethylidene]butanedial

>  <PUBCHEM_IUPAC_CAS_NAME>
(2E)-2-[2-(5,5,8a-trimethyl-2-methylene-3,4,4a,6,7,8-hexahydro-1H-naphthalen-1-yl)ethylidene]butanedial

>  <PUBCHEM_IUPAC_NAME>
(2E)-2-[2-(5,5,8a-trimethyl-2-methylidene-3,4,4a,6,7,8-hexahydro-1H-naphthalen-1-yl)ethylidene]butanedial

>  <PUBCHEM_IUPAC_SYSTEMATIC_NAME>
(2E)-2-[2-(5,5,8a-trimethyl-2-methylidene-3,4,4a,6,7,8-hexahydro-1H-naphthalen-1-yl)ethylidene]butanedial

>  <PUBCHEM_IUPAC_TRADITIONAL_NAME>
(2E)-2-[2-(5,5,8a-trimethyl-2-methylene-decalin-1-yl)ethylidene]succinaldehyde

>  <PUBCHEM_IUPAC_INCHI>
InChI=1S/C20H30O2/c1-15-6-9-18-19(2,3)11-5-12-20(18,4)17(15)8-7-16(14-22)10-13-21/h7,13-14,17-18H,1,5-6,8-12H2,2-4H3/b16-7+

>  <PUBCHEM_IUPAC_INCHIKEY>
TZCSIFOYBLPUIF-FRKPEAEDSA-N

>  <PUBCHEM_XLOGP3_AA>
4.4

>  <PUBCHEM_EXACT_MASS>
302.225

>  <PUBCHEM_MOLECULAR_FORMULA>
C20H30O2

>  <PUBCHEM_MOLECULAR_WEIGHT>
302.458

>  <PUBCHEM_OPENEYE_CAN_SMILES>
CC1(CCCC2(C1CCC(=C)C2CC=C(CC=O)C=O)C)C

>  <PUBCHEM_OPENEYE_ISO_SMILES>
CC1(CCCC2(C1CCC(=C)C2C/C=C(\CC=O)/C=O)C)C

>  <PUBCHEM_CACTVS_TPSA>
34.1

>  <PUBCHEM_MONOISOTOPIC_WEIGHT>
302.225

>  <PUBCHEM_TOTAL_CHARGE>
0

>  <PUBCHEM_HEAVY_ATOM_COUNT>
22

>  <PUBCHEM_ATOM_DEF_STEREO_COUNT>
0

>  <PUBCHEM_ATOM_UDEF_STEREO_COUNT>
3

>  <PUBCHEM_BOND_DEF_STEREO_COUNT>
1

>  <PUBCHEM_BOND_UDEF_STEREO_COUNT>
0

>  <PUBCHEM_ISOTOPIC_ATOM_COUNT>
0

>  <PUBCHEM_COMPONENT_COUNT>
1

>  <PUBCHEM_CACTVS_TAUTO_COUNT>
3

>  <PUBCHEM_COORDINATE_TYPE>
1
5
255

>  <PUBCHEM_BONDANNOTATIONS>
3  11  3
4  23  3
6  24  3

$$$$
