9926336
 OpenBabel06101807152D

 34 36  0  0  0  0  0  0  0  0999 V2000
    5.5301   -1.5479    0.0000 O   0  0  0  0  0  0  0  0  0  0  0  0
    2.0000   -1.5721    0.0000 O   0  0  0  0  0  0  0  0  0  0  0  0
    3.7817    1.4867    0.0000 O   0  0  0  0  0  0  0  0  0  0  0  0
    5.5301    1.4521    0.0000 O   0  0  0  0  0  0  0  0  0  0  0  0
    9.8602   -0.0479    0.0000 O   0  0  0  0  0  0  0  0  0  0  0  0
    9.8602    1.9521    0.0000 O   0  0  0  0  0  0  0  0  0  0  0  0
    4.6641   -0.0479    0.0000 C   0  0  0  0  0  0  0  0  0  0  0  0
    6.3961   -0.0479    0.0000 C   0  0  0  0  0  0  0  0  0  0  0  0
    4.6641   -1.0479    0.0000 C   0  0  0  0  0  0  0  0  0  0  0  0
    5.5301    0.4521    0.0000 C   0  0  0  0  0  0  0  0  0  0  0  0
    7.2622    0.4521    0.0000 C   0  0  0  0  0  0  0  0  0  0  0  0
    3.7702    0.4867    0.0000 C   0  0  0  0  0  0  0  0  0  0  0  0
    3.7702   -1.5826    0.0000 C   0  0  0  0  0  0  0  0  0  0  0  0
    6.3961   -1.0479    0.0000 C   0  0  0  0  0  0  0  0  0  0  0  0
    2.8641   -1.0687    0.0000 C   0  0  0  0  0  0  0  0  0  0  0  0
    2.8641   -0.0271    0.0000 C   0  0  0  0  0  0  0  0  0  0  0  0
    8.1282   -0.0479    0.0000 C   0  0  0  0  0  0  0  0  0  0  0  0
    7.2622    1.4521    0.0000 C   0  0  0  0  0  0  0  0  0  0  0  0
    8.9942    0.4521    0.0000 C   0  0  0  0  0  0  0  0  0  0  0  0
    8.1282    1.9521    0.0000 C   0  0  0  0  0  0  0  0  0  0  0  0
    8.9942    1.4521    0.0000 C   0  0  0  0  0  0  0  0  0  0  0  0
    2.0038   -2.5721    0.0000 C   0  0  0  0  0  0  0  0  0  0  0  0
    3.7773   -2.2026    0.0000 H   0  0  0  0  0  0  0  0  0  0  0  0
    6.9331   -1.3579    0.0000 H   0  0  0  0  0  0  0  0  0  0  0  0
    2.3284    0.2850    0.0000 H   0  0  0  0  0  0  0  0  0  0  0  0
    8.1282   -0.6679    0.0000 H   0  0  0  0  0  0  0  0  0  0  0  0
    6.7252    1.7621    0.0000 H   0  0  0  0  0  0  0  0  0  0  0  0
    8.1282    2.5721    0.0000 H   0  0  0  0  0  0  0  0  0  0  0  0
    3.2484    1.8028    0.0000 H   0  0  0  0  0  0  0  0  0  0  0  0
    1.3839   -2.5745    0.0000 H   0  0  0  0  0  0  0  0  0  0  0  0
    2.0062   -3.1921    0.0000 H   0  0  0  0  0  0  0  0  0  0  0  0
    2.6238   -2.5697    0.0000 H   0  0  0  0  0  0  0  0  0  0  0  0
    9.8602   -0.6679    0.0000 H   0  0  0  0  0  0  0  0  0  0  0  0
    9.8602    2.5721    0.0000 H   0  0  0  0  0  0  0  0  0  0  0  0
  1  9  1  0  0  0  0
  1 14  1  0  0  0  0
  2 15  1  0  0  0  0
  2 22  1  0  0  0  0
  3 12  1  0  0  0  0
  3 29  1  0  0  0  0
  4 10  2  0  0  0  0
  5 19  1  0  0  0  0
  5 33  1  0  0  0  0
  6 21  1  0  0  0  0
  6 34  1  0  0  0  0
  7  9  1  0  0  0  0
  7 10  1  0  0  0  0
  7 12  2  0  0  0  0
  8 10  1  0  0  0  0
  8 11  1  0  0  0  0
  8 14  2  0  0  0  0
  9 13  2  0  0  0  0
 11 17  2  0  0  0  0
 11 18  1  0  0  0  0
 12 16  1  0  0  0  0
 13 15  1  0  0  0  0
 13 23  1  0  0  0  0
 14 24  1  0  0  0  0
 15 16  2  0  0  0  0
 16 25  1  0  0  0  0
 17 19  1  0  0  0  0
 17 26  1  0  0  0  0
 18 20  2  0  0  0  0
 18 27  1  0  0  0  0
 19 21  2  0  0  0  0
 20 21  1  0  0  0  0
 20 28  1  0  0  0  0
 22 30  1  0  0  0  0
 22 31  1  0  0  0  0
 22 32  1  0  0  0  0
M  END
>  <PUBCHEM_COMPOUND_CID>
9926336

>  <PUBCHEM_COMPOUND_CANONICALIZED>
1

>  <PUBCHEM_CACTVS_COMPLEXITY>
462

>  <PUBCHEM_CACTVS_HBOND_ACCEPTOR>
6

>  <PUBCHEM_CACTVS_HBOND_DONOR>
3

>  <PUBCHEM_CACTVS_ROTATABLE_BOND>
2

>  <PUBCHEM_CACTVS_SUBSKEYS>
AAADccB4OAAAAAAAAAAAAAAAAAAAAAAAAAAwYIAAAAAAAACBQAAAGgAACAAADASgmAIyBoAABgCIAqBSAAACCAAkIAAIiAEGiMgNJzaGNRqAcWEl4BUJuYeI7PzOIAABCAAIQABAAAIQABCAAAAAAAAAAA==

>  <PUBCHEM_IUPAC_OPENEYE_NAME>
3-(3,4-dihydroxyphenyl)-5-hydroxy-7-methoxy-chromen-4-one

>  <PUBCHEM_IUPAC_CAS_NAME>
3-(3,4-dihydroxyphenyl)-5-hydroxy-7-methoxy-1-benzopyran-4-one

>  <PUBCHEM_IUPAC_NAME>
3-(3,4-dihydroxyphenyl)-5-hydroxy-7-methoxychromen-4-one

>  <PUBCHEM_IUPAC_SYSTEMATIC_NAME>
3-[3,4-bis(oxidanyl)phenyl]-7-methoxy-5-oxidanyl-chromen-4-one

>  <PUBCHEM_IUPAC_TRADITIONAL_NAME>
3-(3,4-dihydroxyphenyl)-5-hydroxy-7-methoxy-chromone

>  <PUBCHEM_IUPAC_INCHI>
InChI=1S/C16H12O6/c1-21-9-5-13(19)15-14(6-9)22-7-10(16(15)20)8-2-3-11(17)12(18)4-8/h2-7,17-19H,1H3

>  <PUBCHEM_IUPAC_INCHIKEY>
OEYQBKYISMRWQB-UHFFFAOYSA-N

>  <PUBCHEM_XLOGP3_AA>
2.6

>  <PUBCHEM_EXACT_MASS>
300.063

>  <PUBCHEM_MOLECULAR_FORMULA>
C16H12O6

>  <PUBCHEM_MOLECULAR_WEIGHT>
300.266

>  <PUBCHEM_OPENEYE_CAN_SMILES>
COC1=CC(=C2C(=C1)OC=C(C2=O)C3=CC(=C(C=C3)O)O)O

>  <PUBCHEM_OPENEYE_ISO_SMILES>
COC1=CC(=C2C(=C1)OC=C(C2=O)C3=CC(=C(C=C3)O)O)O

>  <PUBCHEM_CACTVS_TPSA>
96.2

>  <PUBCHEM_MONOISOTOPIC_WEIGHT>
300.063

>  <PUBCHEM_TOTAL_CHARGE>
0

>  <PUBCHEM_HEAVY_ATOM_COUNT>
22

>  <PUBCHEM_ATOM_DEF_STEREO_COUNT>
0

>  <PUBCHEM_ATOM_UDEF_STEREO_COUNT>
0

>  <PUBCHEM_BOND_DEF_STEREO_COUNT>
0

>  <PUBCHEM_BOND_UDEF_STEREO_COUNT>
0

>  <PUBCHEM_ISOTOPIC_ATOM_COUNT>
0

>  <PUBCHEM_COMPONENT_COUNT>
1

>  <PUBCHEM_CACTVS_TAUTO_COUNT>
50

>  <PUBCHEM_COORDINATE_TYPE>
1
5
255

>  <PUBCHEM_BONDANNOTATIONS>
1  14  8
1  9  8
11  17  8
11  18  8
12  16  8
13  15  8
15  16  8
17  19  8
18  20  8
19  21  8
20  21  8
7  10  8
7  12  8
7  9  8
8  10  8
8  14  8
9  13  8

$$$$
