9965663
 OpenBabel06101807152D

 31 33  0  0  0  0  0  0  0  0999 V2000
    6.0682   -2.3877    0.0000 O   0  0  0  0  0  0  0  0  0  0  0  0
    6.0682    0.6123    0.0000 O   0  0  0  0  0  0  0  0  0  0  0  0
    8.6663    2.1123    0.0000 O   0  0  0  0  0  0  0  0  0  0  0  0
   10.3984   -0.8877    0.0000 O   0  0  0  0  0  0  0  0  0  0  0  0
   10.3984    1.1123    0.0000 O   0  0  0  0  0  0  0  0  0  0  0  0
    2.5381   -2.4118    0.0000 O   0  0  0  0  0  0  0  0  0  0  0  0
    6.9343   -0.8877    0.0000 C   0  0  0  0  0  0  0  0  0  0  0  0
    5.2022   -0.8877    0.0000 C   0  0  0  0  0  0  0  0  0  0  0  0
    7.8003   -0.3877    0.0000 C   0  0  0  0  0  0  0  0  0  0  0  0
    6.0682   -0.3877    0.0000 C   0  0  0  0  0  0  0  0  0  0  0  0
    5.2022   -1.8877    0.0000 C   0  0  0  0  0  0  0  0  0  0  0  0
    6.9343   -1.8877    0.0000 C   0  0  0  0  0  0  0  0  0  0  0  0
    8.6663   -0.8877    0.0000 C   0  0  0  0  0  0  0  0  0  0  0  0
    7.8003    0.6123    0.0000 C   0  0  0  0  0  0  0  0  0  0  0  0
    4.3083   -0.3530    0.0000 C   0  0  0  0  0  0  0  0  0  0  0  0
    4.3083   -2.4223    0.0000 C   0  0  0  0  0  0  0  0  0  0  0  0
    8.6663    1.1123    0.0000 C   0  0  0  0  0  0  0  0  0  0  0  0
    9.5323   -0.3877    0.0000 C   0  0  0  0  0  0  0  0  0  0  0  0
    9.5323    0.6123    0.0000 C   0  0  0  0  0  0  0  0  0  0  0  0
    3.4022   -1.9085    0.0000 C   0  0  0  0  0  0  0  0  0  0  0  0
    3.4022   -0.8669    0.0000 C   0  0  0  0  0  0  0  0  0  0  0  0
    7.4712   -2.1977    0.0000 H   0  0  0  0  0  0  0  0  0  0  0  0
    8.6663   -1.5077    0.0000 H   0  0  0  0  0  0  0  0  0  0  0  0
    7.2634    0.9223    0.0000 H   0  0  0  0  0  0  0  0  0  0  0  0
    4.3154    0.2670    0.0000 H   0  0  0  0  0  0  0  0  0  0  0  0
    4.3154   -3.0423    0.0000 H   0  0  0  0  0  0  0  0  0  0  0  0
    2.8665   -0.5548    0.0000 H   0  0  0  0  0  0  0  0  0  0  0  0
    8.1294    2.4223    0.0000 H   0  0  0  0  0  0  0  0  0  0  0  0
   10.3984   -1.5077    0.0000 H   0  0  0  0  0  0  0  0  0  0  0  0
   10.9353    0.8023    0.0000 H   0  0  0  0  0  0  0  0  0  0  0  0
    2.0000   -2.1039    0.0000 H   0  0  0  0  0  0  0  0  0  0  0  0
  1 11  1  0  0  0  0
  1 12  1  0  0  0  0
  2 10  2  0  0  0  0
  3 17  1  0  0  0  0
  3 28  1  0  0  0  0
  4 18  1  0  0  0  0
  4 29  1  0  0  0  0
  5 19  1  0  0  0  0
  5 30  1  0  0  0  0
  6 20  1  0  0  0  0
  6 31  1  0  0  0  0
  7  9  1  0  0  0  0
  7 10  1  0  0  0  0
  7 12  2  0  0  0  0
  8 10  1  0  0  0  0
  8 11  2  0  0  0  0
  8 15  1  0  0  0  0
  9 13  2  0  0  0  0
  9 14  1  0  0  0  0
 11 16  1  0  0  0  0
 12 22  1  0  0  0  0
 13 18  1  0  0  0  0
 13 23  1  0  0  0  0
 14 17  2  0  0  0  0
 14 24  1  0  0  0  0
 15 21  2  0  0  0  0
 15 25  1  0  0  0  0
 16 20  2  0  0  0  0
 16 26  1  0  0  0  0
 17 19  1  0  0  0  0
 18 19  2  0  0  0  0
 20 21  1  0  0  0  0
 21 27  1  0  0  0  0
M  END
>  <PUBCHEM_COMPOUND_CID>
9965663

>  <PUBCHEM_COMPOUND_CANONICALIZED>
1

>  <PUBCHEM_CACTVS_COMPLEXITY>
435

>  <PUBCHEM_CACTVS_HBOND_ACCEPTOR>
6

>  <PUBCHEM_CACTVS_HBOND_DONOR>
4

>  <PUBCHEM_CACTVS_ROTATABLE_BOND>
1

>  <PUBCHEM_CACTVS_SUBSKEYS>
AAADccBwOAAAAAAAAAAAAAAAAAAAAAAAAAAwYIAAAAAAAACBQAAAGgAACAAADASgmAIwBoAABgCIAqBSAAACCAAkIAAIiAEGiMgNJzaGNRqAcWEl4BUJuYeI7PzOIAABCAAIQABAAAIQABCAAAAAAAAAAA==

>  <PUBCHEM_IUPAC_OPENEYE_NAME>
7-hydroxy-3-(3,4,5-trihydroxyphenyl)chromen-4-one

>  <PUBCHEM_IUPAC_CAS_NAME>
7-hydroxy-3-(3,4,5-trihydroxyphenyl)-1-benzopyran-4-one

>  <PUBCHEM_IUPAC_NAME>
7-hydroxy-3-(3,4,5-trihydroxyphenyl)chromen-4-one

>  <PUBCHEM_IUPAC_SYSTEMATIC_NAME>
7-oxidanyl-3-[3,4,5-tris(oxidanyl)phenyl]chromen-4-one

>  <PUBCHEM_IUPAC_TRADITIONAL_NAME>
7-hydroxy-3-(3,4,5-trihydroxyphenyl)chromone

>  <PUBCHEM_IUPAC_INCHI>
InChI=1S/C15H10O6/c16-8-1-2-9-13(5-8)21-6-10(14(9)19)7-3-11(17)15(20)12(18)4-7/h1-6,16-18,20H

>  <PUBCHEM_IUPAC_INCHIKEY>
YFVNYAXYZNDLIY-UHFFFAOYSA-N

>  <PUBCHEM_XLOGP3_AA>
1.8

>  <PUBCHEM_EXACT_MASS>
286.048

>  <PUBCHEM_MOLECULAR_FORMULA>
C15H10O6

>  <PUBCHEM_MOLECULAR_WEIGHT>
286.239

>  <PUBCHEM_OPENEYE_CAN_SMILES>
C1=CC2=C(C=C1O)OC=C(C2=O)C3=CC(=C(C(=C3)O)O)O

>  <PUBCHEM_OPENEYE_ISO_SMILES>
C1=CC2=C(C=C1O)OC=C(C2=O)C3=CC(=C(C(=C3)O)O)O

>  <PUBCHEM_CACTVS_TPSA>
107

>  <PUBCHEM_MONOISOTOPIC_WEIGHT>
286.048

>  <PUBCHEM_TOTAL_CHARGE>
0

>  <PUBCHEM_HEAVY_ATOM_COUNT>
21

>  <PUBCHEM_ATOM_DEF_STEREO_COUNT>
0

>  <PUBCHEM_ATOM_UDEF_STEREO_COUNT>
0

>  <PUBCHEM_BOND_DEF_STEREO_COUNT>
0

>  <PUBCHEM_BOND_UDEF_STEREO_COUNT>
0

>  <PUBCHEM_ISOTOPIC_ATOM_COUNT>
0

>  <PUBCHEM_COMPONENT_COUNT>
1

>  <PUBCHEM_CACTVS_TAUTO_COUNT>
55

>  <PUBCHEM_COORDINATE_TYPE>
1
5
255

>  <PUBCHEM_BONDANNOTATIONS>
1  11  8
1  12  8
11  16  8
13  18  8
14  17  8
15  21  8
16  20  8
17  19  8
18  19  8
20  21  8
7  10  8
7  12  8
8  10  8
8  11  8
8  15  8
9  13  8
9  14  8

$$$$
