9989713
 OpenBabel06101807152D

 32 31  0  0  1  0  0  0  0  0999 V2000
    7.1962    1.3100    0.0000 O   0  0  0  0  0  0  0  0  0  0  0  0
    8.0622   -0.1900    0.0000 O   0  0  0  0  0  0  0  0  0  0  0  0
    5.4641    1.3100    0.0000 C   0  0  0  0  0  0  0  0  0  0  0  0
    6.3301    0.8100    0.0000 C   0  0  3  0  0  0  0  0  0  0  0  0
    4.5981    0.8100    0.0000 C   0  0  0  0  0  0  0  0  0  0  0  0
    3.7320    1.3100    0.0000 C   0  0  0  0  0  0  0  0  0  0  0  0
    6.3301   -0.1900    0.0000 C   0  0  0  0  0  0  0  0  0  0  0  0
    2.8660    0.8100    0.0000 C   0  0  0  0  0  0  0  0  0  0  0  0
    5.4641   -0.6900    0.0000 C   0  0  0  0  0  0  0  0  0  0  0  0
    2.0000    1.3100    0.0000 C   0  0  0  0  0  0  0  0  0  0  0  0
    8.0622    0.8100    0.0000 C   0  0  0  0  0  0  0  0  0  0  0  0
    8.9282    1.3100    0.0000 C   0  0  0  0  0  0  0  0  0  0  0  0
    5.8626    1.7850    0.0000 H   0  0  0  0  0  0  0  0  0  0  0  0
    5.0656    1.7850    0.0000 H   0  0  0  0  0  0  0  0  0  0  0  0
    7.0662    0.3850    0.0000 H   0  0  0  0  0  0  0  0  0  0  0  0
    4.1996    0.3351    0.0000 H   0  0  0  0  0  0  0  0  0  0  0  0
    4.9966    0.3351    0.0000 H   0  0  0  0  0  0  0  0  0  0  0  0
    4.1306    1.7850    0.0000 H   0  0  0  0  0  0  0  0  0  0  0  0
    3.3335    1.7850    0.0000 H   0  0  0  0  0  0  0  0  0  0  0  0
    6.5422   -0.7726    0.0000 H   0  0  0  0  0  0  0  0  0  0  0  0
    6.9407   -0.0823    0.0000 H   0  0  0  0  0  0  0  0  0  0  0  0
    2.4675    0.3351    0.0000 H   0  0  0  0  0  0  0  0  0  0  0  0
    3.2646    0.3351    0.0000 H   0  0  0  0  0  0  0  0  0  0  0  0
    5.4641   -1.3100    0.0000 H   0  0  0  0  0  0  0  0  0  0  0  0
    5.2520   -0.1074    0.0000 H   0  0  0  0  0  0  0  0  0  0  0  0
    4.8535   -0.7977    0.0000 H   0  0  0  0  0  0  0  0  0  0  0  0
    2.3100    1.8469    0.0000 H   0  0  0  0  0  0  0  0  0  0  0  0
    1.4631    1.6200    0.0000 H   0  0  0  0  0  0  0  0  0  0  0  0
    1.6900    0.7731    0.0000 H   0  0  0  0  0  0  0  0  0  0  0  0
    9.2382    0.7731    0.0000 H   0  0  0  0  0  0  0  0  0  0  0  0
    9.4651    1.6200    0.0000 H   0  0  0  0  0  0  0  0  0  0  0  0
    8.6182    1.8469    0.0000 H   0  0  0  0  0  0  0  0  0  0  0  0
  1  4  1  0  0  0  0
  1 11  1  0  0  0  0
  2 11  2  0  0  0  0
  3  4  1  0  0  0  0
  3  5  1  0  0  0  0
  3 13  1  0  0  0  0
  3 14  1  0  0  0  0
  4  7  1  0  0  0  0
  4 15  1  0  0  0  0
  5  6  1  0  0  0  0
  5 16  1  0  0  0  0
  5 17  1  0  0  0  0
  6  8  1  0  0  0  0
  6 18  1  0  0  0  0
  6 19  1  0  0  0  0
  7  9  1  0  0  0  0
  7 20  1  0  0  0  0
  7 21  1  0  0  0  0
  8 10  1  0  0  0  0
  8 22  1  0  0  0  0
  8 23  1  0  0  0  0
  9 24  1  0  0  0  0
  9 25  1  0  0  0  0
  9 26  1  0  0  0  0
 10 27  1  0  0  0  0
 10 28  1  0  0  0  0
 10 29  1  0  0  0  0
 11 12  1  0  0  0  0
 12 30  1  0  0  0  0
 12 31  1  0  0  0  0
 12 32  1  0  0  0  0
M  ISO  1  24   2
M  END
>  <PUBCHEM_COMPOUND_CID>
9989713

>  <PUBCHEM_COMPOUND_CANONICALIZED>
1

>  <PUBCHEM_CACTVS_COMPLEXITY>
121

>  <PUBCHEM_CACTVS_HBOND_ACCEPTOR>
2

>  <PUBCHEM_CACTVS_HBOND_DONOR>
0

>  <PUBCHEM_CACTVS_ROTATABLE_BOND>
7

>  <PUBCHEM_CACTVS_SUBSKEYS>
AAADceBwMAAAAAAAAAAAAAAAAAAAAAAAAAAAAAAAAAAAAAAAAAAAGgAAAAAACBSggAICCAAABAAIAACQCAAAAAAAAAAAAAAAAAAAAAIAAAACAAAEAAAAAAGAwIAAAAAAAAAAAAAAAAAAAAAAAAAAAAAAAA==

>  <PUBCHEM_IUPAC_OPENEYE_NAME>
1-(2-deuterioethyl)hexyl acetate

>  <PUBCHEM_IUPAC_CAS_NAME>
acetic acid 1-deuteriooctan-3-yl ester

>  <PUBCHEM_IUPAC_NAME>
1-deuteriooctan-3-yl acetate

>  <PUBCHEM_IUPAC_SYSTEMATIC_NAME>
1-deuteriooctan-3-yl ethanoate

>  <PUBCHEM_IUPAC_TRADITIONAL_NAME>
acetic acid 1-(2-deuterioethyl)hexyl ester

>  <PUBCHEM_IUPAC_INCHI>
InChI=1S/C10H20O2/c1-4-6-7-8-10(5-2)12-9(3)11/h10H,4-8H2,1-3H3/i2D

>  <PUBCHEM_IUPAC_INCHIKEY>
STZUZYMKSMSTOU-VMNATFBRSA-N

>  <PUBCHEM_XLOGP3_AA>
3.4

>  <PUBCHEM_EXACT_MASS>
173.153

>  <PUBCHEM_MOLECULAR_FORMULA>
C10H20O2

>  <PUBCHEM_MOLECULAR_WEIGHT>
173.274

>  <PUBCHEM_OPENEYE_CAN_SMILES>
CCCCCC(CC)OC(=O)C

>  <PUBCHEM_OPENEYE_ISO_SMILES>
[2H]CCC(CCCCC)OC(=O)C

>  <PUBCHEM_CACTVS_TPSA>
26.3

>  <PUBCHEM_MONOISOTOPIC_WEIGHT>
173.153

>  <PUBCHEM_TOTAL_CHARGE>
0

>  <PUBCHEM_HEAVY_ATOM_COUNT>
12

>  <PUBCHEM_ATOM_DEF_STEREO_COUNT>
0

>  <PUBCHEM_ATOM_UDEF_STEREO_COUNT>
1

>  <PUBCHEM_BOND_DEF_STEREO_COUNT>
0

>  <PUBCHEM_BOND_UDEF_STEREO_COUNT>
0

>  <PUBCHEM_ISOTOPIC_ATOM_COUNT>
1

>  <PUBCHEM_COMPONENT_COUNT>
1

>  <PUBCHEM_CACTVS_TAUTO_COUNT>
1

>  <PUBCHEM_COORDINATE_TYPE>
1
5
255

>  <PUBCHEM_BONDANNOTATIONS>
4  15  3

$$$$
