9997840
 OpenBabel06101807152D

 51 53  0  0  0  0  0  0  0  0999 V2000
    8.0321   -1.4352    0.0000 O   0  0  0  0  0  0  0  0  0  0  0  0
    7.0864   -4.3331    0.0000 O   0  0  0  0  0  0  0  0  0  0  0  0
    4.5274   -0.5226    0.0000 N   0  0  0  0  0  0  0  0  0  0  0  0
    5.3364   -1.1104    0.0000 C   0  0  0  0  0  0  0  0  0  0  0  0
    5.0274   -2.0615    0.0000 C   0  0  0  0  0  0  0  0  0  0  0  0
    6.3518   -0.8782    0.0000 C   0  0  0  0  0  0  0  0  0  0  0  0
    4.0274   -2.0615    0.0000 C   0  0  0  0  0  0  0  0  0  0  0  0
    3.7183   -1.1104    0.0000 C   0  0  0  0  0  0  0  0  0  0  0  0
    6.6498    0.0764    0.0000 C   0  0  0  0  0  0  0  0  0  0  0  0
    7.0547   -1.6468    0.0000 C   0  0  0  0  0  0  0  0  0  0  0  0
    5.7123   -2.8462    0.0000 C   0  0  0  0  0  0  0  0  0  0  0  0
    6.7328   -2.6375    0.0000 C   0  0  0  0  0  0  0  0  0  0  0  0
    7.6255    0.2956    0.0000 C   0  0  0  0  0  0  0  0  0  0  0  0
    7.9235    1.2502    0.0000 C   0  0  0  0  0  0  0  0  0  0  0  0
    3.3424   -2.8462    0.0000 C   0  0  0  0  0  0  0  0  0  0  0  0
    8.8991    1.4694    0.0000 C   0  0  0  0  0  0  0  0  0  0  0  0
    2.7029   -0.8782    0.0000 C   0  0  0  0  0  0  0  0  0  0  0  0
    9.1971    2.4240    0.0000 C   0  0  0  0  0  0  0  0  0  0  0  0
    2.3219   -2.6375    0.0000 C   0  0  0  0  0  0  0  0  0  0  0  0
    2.0000   -1.6468    0.0000 C   0  0  0  0  0  0  0  0  0  0  0  0
    7.2458    1.9855    0.0000 C   0  0  0  0  0  0  0  0  0  0  0  0
    7.3991   -3.3832    0.0000 C   0  0  0  0  0  0  0  0  0  0  0  0
   10.1728    2.6432    0.0000 C   0  0  0  0  0  0  0  0  0  0  0  0
   10.4708    3.5977    0.0000 C   0  0  0  0  0  0  0  0  0  0  0  0
   11.4465    3.8169    0.0000 C   0  0  0  0  0  0  0  0  0  0  0  0
    9.7931    4.3331    0.0000 C   0  0  0  0  0  0  0  0  0  0  0  0
    6.6210    0.6957    0.0000 H   0  0  0  0  0  0  0  0  0  0  0  0
    6.0349    0.1556    0.0000 H   0  0  0  0  0  0  0  0  0  0  0  0
    4.5274    0.0974    0.0000 H   0  0  0  0  0  0  0  0  0  0  0  0
    5.5139   -3.4336    0.0000 H   0  0  0  0  0  0  0  0  0  0  0  0
    8.0456   -0.1603    0.0000 H   0  0  0  0  0  0  0  0  0  0  0  0
    3.5408   -3.4336    0.0000 H   0  0  0  0  0  0  0  0  0  0  0  0
    8.9279    0.8501    0.0000 H   0  0  0  0  0  0  0  0  0  0  0  0
    9.5141    1.3902    0.0000 H   0  0  0  0  0  0  0  0  0  0  0  0
    2.5182   -0.2863    0.0000 H   0  0  0  0  0  0  0  0  0  0  0  0
    9.1683    3.0433    0.0000 H   0  0  0  0  0  0  0  0  0  0  0  0
    8.5822    2.5031    0.0000 H   0  0  0  0  0  0  0  0  0  0  0  0
    1.9088   -3.0998    0.0000 H   0  0  0  0  0  0  0  0  0  0  0  0
    1.3940   -1.5156    0.0000 H   0  0  0  0  0  0  0  0  0  0  0  0
    7.7017    2.4057    0.0000 H   0  0  0  0  0  0  0  0  0  0  0  0
    6.8256    2.4414    0.0000 H   0  0  0  0  0  0  0  0  0  0  0  0
    6.7899    1.5654    0.0000 H   0  0  0  0  0  0  0  0  0  0  0  0
    8.0060   -3.2567    0.0000 H   0  0  0  0  0  0  0  0  0  0  0  0
   10.5930    2.1872    0.0000 H   0  0  0  0  0  0  0  0  0  0  0  0
    8.4487   -1.8943    0.0000 H   0  0  0  0  0  0  0  0  0  0  0  0
   11.5824    3.2120    0.0000 H   0  0  0  0  0  0  0  0  0  0  0  0
   10.2491    4.7532    0.0000 H   0  0  0  0  0  0  0  0  0  0  0  0
    9.3730    4.7890    0.0000 H   0  0  0  0  0  0  0  0  0  0  0  0
    9.3372    3.9129    0.0000 H   0  0  0  0  0  0  0  0  0  0  0  0
   12.0514    3.9528    0.0000 H   0  0  0  0  0  0  0  0  0  0  0  0
   11.3106    4.4218    0.0000 H   0  0  0  0  0  0  0  0  0  0  0  0
  1 10  1  0  0  0  0
  1 45  1  0  0  0  0
  2 22  2  0  0  0  0
  3  4  1  0  0  0  0
  3  8  1  0  0  0  0
  3 29  1  0  0  0  0
  4  5  2  0  0  0  0
  4  6  1  0  0  0  0
  5  7  1  0  0  0  0
  5 11  1  0  0  0  0
  6  9  1  0  0  0  0
  6 10  2  0  0  0  0
  7  8  1  0  0  0  0
  7 15  2  0  0  0  0
  8 17  2  0  0  0  0
  9 13  1  0  0  0  0
  9 27  1  0  0  0  0
  9 28  1  0  0  0  0
 10 12  1  0  0  0  0
 11 12  2  0  0  0  0
 11 30  1  0  0  0  0
 12 22  1  0  0  0  0
 13 14  2  0  0  0  0
 13 31  1  0  0  0  0
 14 16  1  0  0  0  0
 14 21  1  0  0  0  0
 15 19  1  0  0  0  0
 15 32  1  0  0  0  0
 16 18  1  0  0  0  0
 16 33  1  0  0  0  0
 16 34  1  0  0  0  0
 17 20  1  0  0  0  0
 17 35  1  0  0  0  0
 18 23  1  0  0  0  0
 18 36  1  0  0  0  0
 18 37  1  0  0  0  0
 19 20  2  0  0  0  0
 19 38  1  0  0  0  0
 20 39  1  0  0  0  0
 21 40  1  0  0  0  0
 21 41  1  0  0  0  0
 21 42  1  0  0  0  0
 22 43  1  0  0  0  0
 23 24  2  0  0  0  0
 23 44  1  0  0  0  0
 24 25  1  0  0  0  0
 24 26  1  0  0  0  0
 25 46  1  0  0  0  0
 25 50  1  0  0  0  0
 25 51  1  0  0  0  0
 26 47  1  0  0  0  0
 26 48  1  0  0  0  0
 26 49  1  0  0  0  0
M  END
>  <PUBCHEM_COMPOUND_CID>
9997840

>  <PUBCHEM_COMPOUND_CANONICALIZED>
1

>  <PUBCHEM_CACTVS_COMPLEXITY>
548

>  <PUBCHEM_CACTVS_HBOND_ACCEPTOR>
2

>  <PUBCHEM_CACTVS_HBOND_DONOR>
2

>  <PUBCHEM_CACTVS_ROTATABLE_BOND>
6

>  <PUBCHEM_CACTVS_SUBSKEYS>
AAADceB6MAAAAAAAAAAAAAAAAAAAAWAAAAAwYAAAAAAAAFgB/AAAHgAQCAAADAyhngIyxvLJkgCoAyxyxACCgCAlIiAImSE0bNgIJvbClZOEcUhm8BnI2YeY2fOeqAACAgAKAABQAAQEABQAAAAAAAAAAA==

>  <PUBCHEM_IUPAC_OPENEYE_NAME>
1-[(2E)-3,7-dimethylocta-2,6-dienyl]-2-hydroxy-9H-carbazole-3-carbaldehyde

>  <PUBCHEM_IUPAC_CAS_NAME>
1-[(2E)-3,7-dimethylocta-2,6-dienyl]-2-hydroxy-9H-carbazole-3-carboxaldehyde

>  <PUBCHEM_IUPAC_NAME>
1-[(2E)-3,7-dimethylocta-2,6-dienyl]-2-hydroxy-9H-carbazole-3-carbaldehyde

>  <PUBCHEM_IUPAC_SYSTEMATIC_NAME>
1-[(2E)-3,7-dimethylocta-2,6-dienyl]-2-oxidanyl-9H-carbazole-3-carbaldehyde

>  <PUBCHEM_IUPAC_TRADITIONAL_NAME>
1-[(2E)-3,7-dimethylocta-2,6-dienyl]-2-hydroxy-9H-carbazole-3-carbaldehyde

>  <PUBCHEM_IUPAC_INCHI>
InChI=1S/C23H25NO2/c1-15(2)7-6-8-16(3)11-12-19-22-20(13-17(14-25)23(19)26)18-9-4-5-10-21(18)24-22/h4-5,7,9-11,13-14,24,26H,6,8,12H2,1-3H3/b16-11+

>  <PUBCHEM_IUPAC_INCHIKEY>
HYKYGURKMDNXGG-LFIBNONCSA-N

>  <PUBCHEM_XLOGP3_AA>
6.8

>  <PUBCHEM_EXACT_MASS>
347.189

>  <PUBCHEM_MOLECULAR_FORMULA>
C23H25NO2

>  <PUBCHEM_MOLECULAR_WEIGHT>
347.458

>  <PUBCHEM_OPENEYE_CAN_SMILES>
CC(=CCCC(=CCC1=C2C(=CC(=C1O)C=O)C3=CC=CC=C3N2)C)C

>  <PUBCHEM_OPENEYE_ISO_SMILES>
CC(=CCC/C(=C/CC1=C2C(=CC(=C1O)C=O)C3=CC=CC=C3N2)/C)C

>  <PUBCHEM_CACTVS_TPSA>
53.1

>  <PUBCHEM_MONOISOTOPIC_WEIGHT>
347.189

>  <PUBCHEM_TOTAL_CHARGE>
0

>  <PUBCHEM_HEAVY_ATOM_COUNT>
26

>  <PUBCHEM_ATOM_DEF_STEREO_COUNT>
0

>  <PUBCHEM_ATOM_UDEF_STEREO_COUNT>
0

>  <PUBCHEM_BOND_DEF_STEREO_COUNT>
1

>  <PUBCHEM_BOND_UDEF_STEREO_COUNT>
0

>  <PUBCHEM_ISOTOPIC_ATOM_COUNT>
0

>  <PUBCHEM_COMPONENT_COUNT>
1

>  <PUBCHEM_CACTVS_TAUTO_COUNT>
12

>  <PUBCHEM_COORDINATE_TYPE>
1
5
255

>  <PUBCHEM_BONDANNOTATIONS>
10  12  8
11  12  8
15  19  8
17  20  8
19  20  8
3  4  8
3  8  8
4  5  8
4  6  8
5  11  8
5  7  8
6  10  8
7  15  8
7  8  8
8  17  8

$$$$
